Siesta Version  : v4.1.5-1-g384057250
Architecture    : gcc
Compiler version: GNU Fortran (Ubuntu 11.3.0-1ubuntu1~22.04) 11.3.0
Compiler flags  : mpifort -O2 -fPIC -ftree-vectorize -fallow-argument-mismatch
PP flags        : -DFC_HAVE_ABORT -DMPI -DSIESTA__FLOOK -DSIESTA__METIS -DSIESTA__MUMPS -DCDF -DNCDF -DNCDF_4 -DNCDF_PARALLEL -DSIESTA__MRRR -DSIESTA__ELPA
Libraries       : libncdf.a libfdict.a  -lflookall -ldl -lnetcdff -lnetcdf -lhdf5_hl -lhdf5 -lhdf5_fortran -lz -lscalapack-openmpi -lopenblas -lmetis -lzmumps -lcmumps -ldmumps -lmumps_common -lpord -lsmumps -lesmumps -lscotch -lscotcherr -fopenmp -lelpa
PARALLEL version
NetCDF support
NetCDF-4 support
NetCDF-4 MPI-IO support
METIS ordering support
Lua support

* Running on 4 nodes in parallel
>> Start of run:  22-MAY-2023  17:45:51

                           ***********************       
                           *  WELCOME TO SIESTA  *       
                           ***********************       

reinit: Reading from standard input
reinit: Dumped input in INPUT_TMP.04295
************************** Dump of input data file ****************************
SystemLabel      GC
NumberOfAtoms    29
NumberOfSpecies  4
%block ChemicalSpeciesLabel
    1    8  O
    2    7  N
    3   14  Si
    4    1  H
%endblock ChemicalSpeciesLabel
# Single point calculation
MD.TypeOfRun                CG
MD.Steps                    0
SCF.MustConverge            F # In case it does not. There can be 2 very close atoms
AtomicCoordinatesFormat NotScaledCartesianAng
%block AtomicCoordinatesAndAtomicSpecies
0.854927710    3.902811360    0.000000000       1
-3.151486600   0.823854130    0.000000000       2
1.928518680    1.174000900    0.000000000       2
0.979899500    -1.830275890   0.000000000       2
-2.159258930   -2.028004800   0.000000000       2
3.785319770    -1.112700660   0.000000000       2
-1.345933810   0.976250250    0.000000000       3
-0.599439880   -1.096077170   0.000000000       3
0.453182890    2.350510230    0.000000000       3
2.133302030    -0.576510800   0.000000000       3
-3.516065660   -0.842056510   0.000000000       3
2.824527830    1.754723110    0.000000000       4
-4.877551690   -1.469214660   0.000000000       4
3.994952020    -2.143204000   0.000000000       4
4.620903610    -0.483666060   0.000000000       4
-2.279085180   -3.081514090   0.000000000       4
6.005598712    5.870872862    -0.000000000      3
7.874558202    7.130516492    -0.000000000      3
7.415625822    3.129134642    -0.000000000      3
9.483218542    5.635725862    -0.000000000      3
6.065128662    4.185920402    -0.000000000      2
4.375599512    6.500933092    -0.000000000      2
9.059514692    3.920225052    -0.000000000      2
8.154921902    8.600739012    -0.000000000      4
10.978629922   5.854578402    -0.000000000      4
4.131140522    7.519399042    -0.000000000      4
3.548858332    5.844084962    -0.000000000      4
7.474901582    1.546692612    -0.000000000      1
9.831170282    3.193257692    -0.000000000      4
%endblock AtomicCoordinatesAndAtomicSpecies
%include ../../../Defaults.fdf
************************** End of input data file *****************************

reinit: -----------------------------------------------------------------------
reinit: System Name: 
reinit: -----------------------------------------------------------------------
reinit: System Label: GC
reinit: -----------------------------------------------------------------------

initatom: Reading input for the pseudopotentials and atomic orbitals ----------
Species number:   1 Atomic number:    8 Label: O
Species number:   2 Atomic number:    7 Label: N
Species number:   3 Atomic number:   14 Label: Si
Species number:   4 Atomic number:    1 Label: H

Ground state valence configuration:   2s02  2p04
Reading pseudopotential information in formatted form from O.psf

Pseudopotential generated from a relativistic atomic calculation

Valence configuration for pseudopotential generation:
2s( 2.00) rc: 0.45
2p( 4.00) rc: 0.92
3d( 0.00) rc: 2.24
4f( 0.00) rc: 0.25
Ground state valence configuration:   2s02  2p03
Reading pseudopotential information in formatted form from N.psf

Pseudopotential generated from a relativistic atomic calculation

Valence configuration for pseudopotential generation:
2s( 2.00) rc: 0.94
2p( 3.00) rc: 0.59
3d( 0.00) rc: 3.46
4f( 0.00) rc: 2.47
Ground state valence configuration:   3s02  3p02
Reading pseudopotential information in formatted form from Si.psf

Pseudopotential generated from a relativistic atomic calculation

Valence configuration for pseudopotential generation:
3s( 2.00) rc: 1.67
3p( 2.00) rc: 2.04
3d( 0.00) rc: 2.89
4f( 0.00) rc: 2.49
Ground state valence configuration:   1s01
Reading pseudopotential information in formatted form from H.psf

Pseudopotential generated from a relativistic atomic calculation

Valence configuration for pseudopotential generation:
1s( 1.00) rc: 0.01
2p( 0.00) rc: 0.60
3d( 0.00) rc: 1.99
4f( 0.00) rc: 2.49
For O, standard SIESTA heuristics set lmxkb to 3
 (one more than the basis l, including polarization orbitals).
Use PS.lmax or PS.KBprojectors blocks to override.
For N, standard SIESTA heuristics set lmxkb to 3
 (one more than the basis l, including polarization orbitals).
Use PS.lmax or PS.KBprojectors blocks to override.
For Si, standard SIESTA heuristics set lmxkb to 3
 (one more than the basis l, including polarization orbitals).
Use PS.lmax or PS.KBprojectors blocks to override.
For H, standard SIESTA heuristics set lmxkb to 2
 (one more than the basis l, including polarization orbitals).
Use PS.lmax or PS.KBprojectors blocks to override.

<basis_specs>
===============================================================================
O                    Z=   8    Mass=  16.000        Charge= 0.17977+309
Lmxo=1 Lmxkb= 3    BasisType=split      Semic=F
L=0  Nsemic=0  Cnfigmx=2
          i=1  nzeta=2  polorb=0  (2s)
            splnorm:   0.28000    
               vcte:    0.0000    
               rinn:    0.0000    
               qcoe:    0.0000    
               qyuk:    0.0000    
               qwid:   0.10000E-01
                rcs:    0.0000      0.0000    
            lambdas:    1.0000      1.0000    
L=1  Nsemic=0  Cnfigmx=2
          i=1  nzeta=2  polorb=1  (2p)
            splnorm:   0.28000    
               vcte:    0.0000    
               rinn:    0.0000    
               qcoe:    0.0000    
               qyuk:    0.0000    
               qwid:   0.10000E-01
                rcs:    0.0000      0.0000    
            lambdas:    1.0000      1.0000    
-------------------------------------------------------------------------------
L=0  Nkbl=1  erefs: 0.17977+309
L=1  Nkbl=1  erefs: 0.17977+309
L=2  Nkbl=1  erefs: 0.17977+309
L=3  Nkbl=1  erefs: 0.17977+309
===============================================================================
</basis_specs>

atom: Called for O                     (Z =   8)

read_vps: Pseudopotential generation method:
read_vps: ATM4.2.7  Troullier-Martins                       
Valence charge for ps generation:    6.00000

xc_check: Exchange-correlation functional:
xc_check: GGA Perdew, Burke & Ernzerhof 1996
V l=0 = -2*Zval/r beyond r=  1.1000
V l=1 = -2*Zval/r beyond r=  1.1000
V l=2 = -2*Zval/r beyond r=  2.2154
V l=3 = -2*Zval/r beyond r=  1.1000
All V_l potentials equal beyond r=  2.2154
This should be close to max(r_c) in ps generation
All pots = -2*Zval/r beyond r=  2.2154

VLOCAL1: 99.0% of the norm of Vloc inside      8.845 Ry
VLOCAL1: 99.9% of the norm of Vloc inside     20.157 Ry
atom: Maximum radius for 4*pi*r*r*local-pseudopot. charge    2.67231
atom: Maximum radius for r*vlocal+2*Zval:    2.32897
GHOST: No ghost state for L =  0
GHOST: No ghost state for L =  1
GHOST: No ghost state for L =  2
GHOST: No ghost state for L =  3

KBgen: Kleinman-Bylander projectors: 
   l= 0   rc=  2.243238   el= -1.759686   Ekb=**********   kbcos= -0.171774
   l= 1   rc=  2.328968   el= -0.663873   Ekb=-14.506792   kbcos= -0.519897
   l= 2   rc=  2.573941   el=  0.002031   Ekb= -1.137373   kbcos= -0.019581
   l= 3   rc=  2.606321   el=  0.003153   Ekb= -1.013546   kbcos= -0.003122

KBgen: Total number of Kleinman-Bylander projectors:   16
atom: -------------------------------------------------------------------------

atom: SANKEY-TYPE ORBITALS:
atom: Selected multiple-zeta basis: split     

SPLIT: Orbitals with angular momentum L= 0

SPLIT: Basis orbitals for state 2s

SPLIT: PAO cut-off radius determined from an
SPLIT: energy shift=  0.002000 Ry

   izeta = 1
                 lambda =    1.000000
                     rc =    4.243912
                 energy =   -1.758270
                kinetic =    3.286084
    potential(screened) =   -5.044353
       potential(ionic) =  -12.921184

   izeta = 2
                 rmatch =    2.187845
              splitnorm =    0.280000
                 energy =   -0.885018
                kinetic =    8.134434
    potential(screened) =   -9.019452
       potential(ionic) =  -17.710645

SPLIT: Orbitals with angular momentum L= 1

SPLIT: Basis orbitals for state 2p

SPLIT: PAO cut-off radius determined from an
SPLIT: energy shift=  0.002000 Ry

   izeta = 1
                 lambda =    1.000000
                     rc =    5.314825
                 energy =   -0.661986
                kinetic =    4.917472
    potential(screened) =   -5.579458
       potential(ionic) =  -13.236259

   izeta = 2
                 rmatch =    2.160663
              splitnorm =    0.280000
                 energy =   -0.068760
                kinetic =    9.183374
    potential(screened) =   -9.252135
       potential(ionic) =  -18.274251

POLgen: Perturbative polarization orbital with L=  2

POLgen: Polarization orbital for state 2p

   izeta = 1
                     rc =    5.314825
                 energy =    1.970580
                kinetic =    3.886128
    potential(screened) =   -1.915547
       potential(ionic) =   -7.749584
atom: Total number of Sankey-type orbitals: 13

atm_pop: Valence configuration (for local Pseudopot. screening):
 2s( 2.00)                                                            
 2p( 4.00)                                                            
Vna: chval, zval:    6.00000   6.00000

Vna:  Cut-off radius for the neutral-atom potential:   5.314825

atom: _________________________________________________________________________

<basis_specs>
===============================================================================
N                    Z=   7    Mass=  14.010        Charge= 0.17977+309
Lmxo=1 Lmxkb= 3    BasisType=split      Semic=F
L=0  Nsemic=0  Cnfigmx=2
          i=1  nzeta=2  polorb=0  (2s)
            splnorm:   0.28000    
               vcte:    0.0000    
               rinn:    0.0000    
               qcoe:    0.0000    
               qyuk:    0.0000    
               qwid:   0.10000E-01
                rcs:    0.0000      0.0000    
            lambdas:    1.0000      1.0000    
L=1  Nsemic=0  Cnfigmx=2
          i=1  nzeta=2  polorb=1  (2p)
            splnorm:   0.28000    
               vcte:    0.0000    
               rinn:    0.0000    
               qcoe:    0.0000    
               qyuk:    0.0000    
               qwid:   0.10000E-01
                rcs:    0.0000      0.0000    
            lambdas:    1.0000      1.0000    
-------------------------------------------------------------------------------
L=0  Nkbl=1  erefs: 0.17977+309
L=1  Nkbl=1  erefs: 0.17977+309
L=2  Nkbl=1  erefs: 0.17977+309
L=3  Nkbl=1  erefs: 0.17977+309
===============================================================================
</basis_specs>

atom: Called for N                     (Z =   7)

read_vps: Pseudopotential generation method:
read_vps: ATM4.2.7  Troullier-Martins                       
Valence charge for ps generation:    5.00000

xc_check: Exchange-correlation functional:
xc_check: GGA Perdew, Burke & Ernzerhof 1996
V l=0 = -2*Zval/r beyond r=  1.2889
V l=1 = -2*Zval/r beyond r=  1.2889
V l=2 = -2*Zval/r beyond r=  3.4178
V l=3 = -2*Zval/r beyond r=  2.4084
All V_l potentials equal beyond r=  3.3753
This should be close to max(r_c) in ps generation
All pots = -2*Zval/r beyond r=  3.4178

VLOCAL1: 99.0% of the norm of Vloc inside      3.810 Ry
VLOCAL1: 99.9% of the norm of Vloc inside      8.683 Ry
atom: Maximum radius for 4*pi*r*r*local-pseudopot. charge    4.02088
atom: Maximum radius for r*vlocal+2*Zval:    3.54838
GHOST: No ghost state for L =  0
GHOST: No ghost state for L =  1
GHOST: No ghost state for L =  2
GHOST: No ghost state for L =  3

KBgen: Kleinman-Bylander projectors: 
   l= 0   rc=  3.417763   el= -1.365098   Ekb= -4.433130   kbcos= -0.707855
   l= 1   rc=  3.375302   el= -0.521201   Ekb=-13.264039   kbcos= -0.535594
   l= 2   rc=  3.872880   el=  0.001991   Ekb= -0.641094   kbcos= -0.062456
   l= 3   rc=  3.970931   el=  0.003093   Ekb= -0.474517   kbcos= -0.018236

KBgen: Total number of Kleinman-Bylander projectors:   16
atom: -------------------------------------------------------------------------

atom: SANKEY-TYPE ORBITALS:
atom: Selected multiple-zeta basis: split     

SPLIT: Orbitals with angular momentum L= 0

SPLIT: Basis orbitals for state 2s

SPLIT: PAO cut-off radius determined from an
SPLIT: energy shift=  0.002000 Ry

   izeta = 1
                 lambda =    1.000000
                     rc =    4.730425
                 energy =   -1.363399
                kinetic =    1.245246
    potential(screened) =   -2.608645
       potential(ionic) =   -8.121105

   izeta = 2
                 rmatch =    2.531849
              splitnorm =    0.280000
                 energy =   -0.959908
                kinetic =    2.409435
    potential(screened) =   -3.369343
       potential(ionic) =   -9.427975

SPLIT: Orbitals with angular momentum L= 1

SPLIT: Basis orbitals for state 2p

SPLIT: PAO cut-off radius determined from an
SPLIT: energy shift=  0.002000 Ry

   izeta = 1
                 lambda =    1.000000
                     rc =    5.924108
                 energy =   -0.519262
                kinetic =    3.672940
    potential(screened) =   -4.192202
       potential(ionic) =   -9.518354

   izeta = 2
                 rmatch =    2.531849
              splitnorm =    0.280000
                 energy =   -0.104258
                kinetic =    6.807538
    potential(screened) =   -6.911796
       potential(ionic) =  -13.149920

POLgen: Perturbative polarization orbital with L=  2

POLgen: Polarization orbital for state 2p

   izeta = 1
                     rc =    5.924108
                 energy =    1.427508
                kinetic =    2.872379
    potential(screened) =   -1.444871
       potential(ionic) =   -5.563644
atom: Total number of Sankey-type orbitals: 13

atm_pop: Valence configuration (for local Pseudopot. screening):
 2s( 2.00)                                                            
 2p( 3.00)                                                            
Vna: chval, zval:    5.00000   5.00000

Vna:  Cut-off radius for the neutral-atom potential:   5.924108

atom: _________________________________________________________________________

<basis_specs>
===============================================================================
Si                   Z=  14    Mass=  28.090        Charge= 0.17977+309
Lmxo=1 Lmxkb= 3    BasisType=split      Semic=F
L=0  Nsemic=0  Cnfigmx=3
          i=1  nzeta=2  polorb=0  (3s)
            splnorm:   0.28000    
               vcte:    0.0000    
               rinn:    0.0000    
               qcoe:    0.0000    
               qyuk:    0.0000    
               qwid:   0.10000E-01
                rcs:    0.0000      0.0000    
            lambdas:    1.0000      1.0000    
L=1  Nsemic=0  Cnfigmx=3
          i=1  nzeta=2  polorb=1  (3p)
            splnorm:   0.28000    
               vcte:    0.0000    
               rinn:    0.0000    
               qcoe:    0.0000    
               qyuk:    0.0000    
               qwid:   0.10000E-01
                rcs:    0.0000      0.0000    
            lambdas:    1.0000      1.0000    
-------------------------------------------------------------------------------
L=0  Nkbl=1  erefs: 0.17977+309
L=1  Nkbl=1  erefs: 0.17977+309
L=2  Nkbl=1  erefs: 0.17977+309
L=3  Nkbl=1  erefs: 0.17977+309
===============================================================================
</basis_specs>

atom: Called for Si                    (Z =  14)

read_vps: Pseudopotential generation method:
read_vps: ATM4.2.7  Troullier-Martins                       
Valence charge for ps generation:    4.00000

xc_check: Exchange-correlation functional:
xc_check: GGA Perdew, Burke & Ernzerhof 1996
V l=0 = -2*Zval/r beyond r=  2.7826
V l=1 = -2*Zval/r beyond r=  2.7826
V l=2 = -2*Zval/r beyond r=  2.9253
V l=3 = -2*Zval/r beyond r=  2.7826
All V_l potentials equal beyond r=  2.8530
This should be close to max(r_c) in ps generation
All pots = -2*Zval/r beyond r=  2.9253

VLOCAL1: 99.0% of the norm of Vloc inside      5.333 Ry
VLOCAL1: 99.9% of the norm of Vloc inside     12.154 Ry
atom: Maximum radius for 4*pi*r*r*local-pseudopot. charge    3.39869
atom: Maximum radius for r*vlocal+2*Zval:    2.96205
GHOST: No ghost state for L =  0
GHOST: No ghost state for L =  1
GHOST: No ghost state for L =  2
GHOST: No ghost state for L =  3

KBgen: Kleinman-Bylander projectors: 
   l= 0   rc=  3.075247   el= -0.794092   Ekb=  5.879390   kbcos=  0.167461
   l= 1   rc=  3.153101   el= -0.300068   Ekb=  2.642817   kbcos=  0.058301
   l= 2   rc=  3.273594   el=  0.001958   Ekb= -1.185135   kbcos= -0.104411
   l= 3   rc=  3.232927   el=  0.003046   Ekb= -0.497174   kbcos= -0.015889

KBgen: Total number of Kleinman-Bylander projectors:   16
atom: -------------------------------------------------------------------------

atom: SANKEY-TYPE ORBITALS:
atom: Selected multiple-zeta basis: split     

SPLIT: Orbitals with angular momentum L= 0

SPLIT: Basis orbitals for state 3s

SPLIT: PAO cut-off radius determined from an
SPLIT: energy shift=  0.002000 Ry

   izeta = 1
                 lambda =    1.000000
                     rc =    6.429618
                 energy =   -0.792283
                kinetic =    0.525293
    potential(screened) =   -1.317576
       potential(ionic) =   -3.744923

   izeta = 2
                 rmatch =    3.998416
              splitnorm =    0.280000
                 energy =   -0.583081
                kinetic =    1.069570
    potential(screened) =   -1.652651
       potential(ionic) =   -4.235185

SPLIT: Orbitals with angular momentum L= 1

SPLIT: Basis orbitals for state 3p

SPLIT: PAO cut-off radius determined from an
SPLIT: energy shift=  0.002000 Ry

   izeta = 1
                 lambda =    1.000000
                     rc =    8.464845
                 energy =   -0.298236
                kinetic =    0.785360
    potential(screened) =   -1.083596
       potential(ionic) =   -3.273779

   izeta = 2
                 rmatch =    4.587816
              splitnorm =    0.280000
                 energy =   -0.131871
                kinetic =    1.403687
    potential(screened) =   -1.535557
       potential(ionic) =   -4.015310

POLgen: Perturbative polarization orbital with L=  2

POLgen: Polarization orbital for state 3p

   izeta = 1
                     rc =    8.464845
                 energy =    0.321949
                kinetic =    1.055677
    potential(screened) =   -0.733728
       potential(ionic) =   -2.672950
atom: Total number of Sankey-type orbitals: 13

atm_pop: Valence configuration (for local Pseudopot. screening):
 3s( 2.00)                                                            
 3p( 2.00)                                                            
Vna: chval, zval:    4.00000   4.00000

Vna:  Cut-off radius for the neutral-atom potential:   8.464845

atom: _________________________________________________________________________

<basis_specs>
===============================================================================
H                    Z=   1    Mass=  1.0100        Charge= 0.17977+309
Lmxo=0 Lmxkb= 2    BasisType=split      Semic=F
L=0  Nsemic=0  Cnfigmx=1
          i=1  nzeta=2  polorb=1  (1s)
            splnorm:   0.62000    
               vcte:    0.0000    
               rinn:    0.0000    
               qcoe:    0.0000    
               qyuk:    0.0000    
               qwid:   0.10000E-01
                rcs:    0.0000      0.0000    
            lambdas:    1.0000      1.0000    
-------------------------------------------------------------------------------
L=0  Nkbl=1  erefs: 0.17977+309
L=1  Nkbl=1  erefs: 0.17977+309
L=2  Nkbl=1  erefs: 0.17977+309
===============================================================================
</basis_specs>

atom: Called for H                     (Z =   1)

read_vps: Pseudopotential generation method:
read_vps: ATM4.2.7  Troullier-Martins                       
Valence charge for ps generation:    1.00000

xc_check: Exchange-correlation functional:
xc_check: GGA Perdew, Burke & Ernzerhof 1996
V l=0 = -2*Zval/r beyond r=  0.0098
V l=1 = -2*Zval/r beyond r=  0.5817
V l=2 = -2*Zval/r beyond r=  1.9372
All V_l potentials equal beyond r=  1.9372
This should be close to max(r_c) in ps generation
All pots = -2*Zval/r beyond r=  1.9372

VLOCAL1: 99.0% of the norm of Vloc inside     11.567 Ry
VLOCAL1: 99.9% of the norm of Vloc inside     26.362 Ry
atom: Maximum radius for 4*pi*r*r*local-pseudopot. charge    2.25106
atom: Maximum radius for r*vlocal+2*Zval:    1.91306
GHOST: No ghost state for L =  0
GHOST: No ghost state for L =  1
GHOST: No ghost state for L =  2

KBgen: Kleinman-Bylander projectors: 
   l= 0   rc=  2.036604   el= -0.477180   Ekb= -6.081590   kbcos= -0.277285
   l= 1   rc=  2.195416   el=  0.001076   Ekb= -0.926943   kbcos= -0.034643
   l= 2   rc=  2.251056   el=  0.002010   Ekb= -0.130941   kbcos= -0.009788

KBgen: Total number of Kleinman-Bylander projectors:    9
atom: -------------------------------------------------------------------------

atom: SANKEY-TYPE ORBITALS:
atom: Selected multiple-zeta basis: split     

SPLIT: Orbitals with angular momentum L= 0

SPLIT: Basis orbitals for state 1s

SPLIT: PAO cut-off radius determined from an
SPLIT: energy shift=  0.002000 Ry

   izeta = 1
                 lambda =    1.000000
                     rc =    6.518340
                 energy =   -0.475305
                kinetic =    0.912139
    potential(screened) =   -1.387444
       potential(ionic) =   -1.907295

   izeta = 2
                 rmatch =    2.141150
              splitnorm =    0.620000
                 energy =    0.566467
                kinetic =    3.772856
    potential(screened) =   -3.206389
       potential(ionic) =   -3.759093

POLgen: Perturbative polarization orbital with L=  1

POLgen: Polarization orbital for state 1s

   izeta = 1
                     rc =    6.518340
                 energy =    0.533861
                kinetic =    1.121086
    potential(screened) =   -0.587225
       potential(ionic) =   -1.053027
atom: Total number of Sankey-type orbitals:  5

atm_pop: Valence configuration (for local Pseudopot. screening):
 1s( 1.00)                                                            
Vna: chval, zval:    1.00000   1.00000

Vna:  Cut-off radius for the neutral-atom potential:   6.518340

atom: _________________________________________________________________________

prinput: Basis input ----------------------------------------------------------

PAO.BasisType split     

%block ChemicalSpeciesLabel
    1    8 O                       # Species index, atomic number, species label
    2    7 N                       # Species index, atomic number, species label
    3   14 Si                      # Species index, atomic number, species label
    4    1 H                       # Species index, atomic number, species label
%endblock ChemicalSpeciesLabel

%block PAO.Basis                 # Define Basis set
O                     2                    # Species label, number of l-shells
 n=2   0   2                         # n, l, Nzeta 
   4.244      2.188   
   1.000      1.000   
 n=2   1   2 P   1                   # n, l, Nzeta, Polarization, NzetaPol
   5.315      2.161   
   1.000      1.000   
N                     2                    # Species label, number of l-shells
 n=2   0   2                         # n, l, Nzeta 
   4.730      2.532   
   1.000      1.000   
 n=2   1   2 P   1                   # n, l, Nzeta, Polarization, NzetaPol
   5.924      2.532   
   1.000      1.000   
Si                    2                    # Species label, number of l-shells
 n=3   0   2                         # n, l, Nzeta 
   6.430      3.998   
   1.000      1.000   
 n=3   1   2 P   1                   # n, l, Nzeta, Polarization, NzetaPol
   8.465      4.588   
   1.000      1.000   
H                     1                    # Species label, number of l-shells
 n=1   0   2 P   1                   # n, l, Nzeta, Polarization, NzetaPol
   6.518      2.141   
   1.000      1.000   
%endblock PAO.Basis

prinput: ----------------------------------------------------------------------

Dumping basis to NetCDF file O.ion.nc
Dumping basis to NetCDF file N.ion.nc
Dumping basis to NetCDF file Si.ion.nc
Dumping basis to NetCDF file H.ion.nc
coor:   Atomic-coordinates input format  =     Cartesian coordinates
coor:                                          (in Angstroms)

siesta: Atomic coordinates (Bohr) and species
siesta:      1.61558   7.37525   0.00000  1        1
siesta:     -5.95545   1.55686   0.00000  2        2
siesta:      3.64437   2.21854   0.00000  2        3
siesta:      1.85174  -3.45872   0.00000  2        4
siesta:     -4.08041  -3.83238   0.00000  2        5
siesta:      7.15322  -2.10270   0.00000  2        6
siesta:     -2.54345   1.84485   0.00000  3        7
siesta:     -1.13278  -2.07129   0.00000  3        8
siesta:      0.85639   4.44182   0.00000  3        9
siesta:      4.03136  -1.08945   0.00000  3       10
siesta:     -6.64440  -1.59126   0.00000  3       11
siesta:      5.33759   3.31595   0.00000  4       12
siesta:     -9.21724  -2.77641   0.00000  4       13
siesta:      7.54937  -4.05007   0.00000  4       14
siesta:      8.73225  -0.91400   0.00000  4       15
siesta:     -4.30685  -5.82322   0.00000  4       16
siesta:     11.34894  11.09435  -0.00000  3       17
siesta:     14.88076  13.47473  -0.00000  3       18
siesta:     14.01351   5.91321  -0.00000  3       19
siesta:     17.92069  10.64998  -0.00000  3       20
siesta:     11.46144   7.91025  -0.00000  2       21
siesta:      8.26869  12.28499  -0.00000  2       22
siesta:     17.12001   7.40815  -0.00000  2       23
siesta:     15.41058  16.25305  -0.00000  4       24
siesta:     20.74661  11.06355  -0.00000  4       25
siesta:      7.80673  14.20961  -0.00000  4       26
siesta:      6.70637  11.04372  -0.00000  4       27
siesta:     14.12552   2.92283  -0.00000  1       28
siesta:     18.57823   6.03438  -0.00000  4       29

siesta: Automatic unit cell vectors (Ang):
siesta:   25.030383    0.000000    0.000000
siesta:    0.000000   20.439061    0.000000
siesta:    0.000000    0.000000    9.854683

siesta: System type = molecule  

initatomlists: Number of atoms, orbitals, and projectors:     29   297   394

siesta: ******************** Simulation parameters ****************************
siesta:
siesta: The following are some of the parameters of the simulation.
siesta: A complete list of the parameters used, including default values,
siesta: can be found in file out.fdf
siesta:
redata: Spin configuration                          = spin-orbit
redata: Number of spin components                   = 8
redata: Time-Reversal Symmetry                      = F
redata: Spin spiral                                 = F
############################################################
This spin-orbit implementation uses a local approximation.
From 4.2 and onwards the full non-local approximation is implemented
You are strongly advised to use >=4.2 versions!
############################################################
redata: Long output                                 =   F
redata: Number of Atomic Species                    =        4
redata: Charge density info will appear in .RHO file
redata: Write Mulliken Pop.                         = Atomic and Orbital charges
redata: Matel table size (NRTAB)                    =     1024
redata: Mesh Cutoff                                 =   340.0000 Ry
redata: Net charge of the system                    =     0.0000 |e|
redata: Min. number of SCF Iter                     =        1
redata: Max. number of SCF Iter                     =      200
redata: SCF mix quantity                            = Hamiltonian
redata: Mix DM or H after convergence               =   F
redata: Recompute H after scf cycle                 =   F
redata: Mix DM in first SCF step                    =   T
redata: Write Pulay info on disk                    =   F
redata: New DM Occupancy tolerance                  = 0.000000000001
redata: No kicks to SCF
redata: DM Mixing Weight for Kicks                  =     0.5000
redata: Require Harris convergence for SCF          =   F
redata: Harris energy tolerance for SCF             =     0.000100 eV
redata: Require DM convergence for SCF              =   T
redata: DM tolerance for SCF                        =     0.000008
redata: Require EDM convergence for SCF             =   F
redata: EDM tolerance for SCF                       =     0.001000 eV
redata: Require H convergence for SCF               =   T
redata: Hamiltonian tolerance for SCF               =     0.000001 eV
redata: Require (free) Energy convergence for SCF   =   F
redata: (free) Energy tolerance for SCF             =     0.000100 eV
redata: Using Saved Data (generic)                  =   F
redata: Use continuation files for DM               =   F
redata: Neglect nonoverlap interactions             =   F
redata: Method of Calculation                       = Diagonalization
redata: Electronic Temperature                      =   299.9978 K
redata: Fix the spin of the system                  =   F
redata: Dynamics option                             = Single-point calculation
mix.SCF: Pulay mixing                            = Pulay
mix.SCF:    Variant                              = stable
mix.SCF:    History steps                        = 6
mix.SCF:    Linear mixing weight                 =     0.250000
mix.SCF:    Mixing weight                        =     0.250000
mix.SCF:    SVD condition                        = 0.1000E-07
mix.SCF:    Restart steps                        = 24
mix.SCF:    Restart save steps                   = 3
mix.SCF: Spin-component mixing                   all
redata: Save all siesta data in one NC              =   F
redata: ***********************************************************************

%block SCF.Mixers
  Pulay
%endblock SCF.Mixers

%block SCF.Mixer.Pulay
  # Mixing method
  method pulay
  variant stable

  # Mixing options
  weight 0.2500
  weight.linear 0.2500
  history 6
  restart 24
  restart.save 3
%endblock SCF.Mixer.Pulay

DM_history_depth set to one: no extrapolation allowed by default for geometry relaxation
Size of DM history Fstack: 1
Total number of electrons:    98.000000
Total ionic charge:    98.000000

* ProcessorY, Blocksize:    2  24


* Orbital distribution balance (max,min):    81    72


Time-reversal symmetry not used.

siesta: k-grid: Number of k-points =     1
siesta: k-grid: Cutoff (effective) =     4.927 Ang
siesta: k-grid: Supercell and displacements
siesta: k-grid:    1   0   0      0.000
siesta: k-grid:    0   1   0      0.000
siesta: k-grid:    0   0   1      0.000

diag: Algorithm                                     = ELPA-1stage
diag: Parallel over k                               =   F
diag: Use parallel 2D distribution                  =   T
diag: Parallel block-size                           = 24
diag: Parallel distribution                         =     2 x     2
diag: Used triangular part                          = Lower
diag: Absolute tolerance                            =  0.100E-15
diag: Orthogonalization factor                      =  0.100E-05
diag: Memory factor                                 =  1.0000


ts: **************************************************************
ts: Save H and S matrices                           =    F
ts: Save DM and EDM matrices                        =    F
ts: Only save the overlap matrix S                  =    F
ts: **************************************************************

************************ Begin: TS CHECKS AND WARNINGS ************************
************************ End: TS CHECKS AND WARNINGS **************************


                     ====================================
                        Single-point calculation
                     ====================================

outcoor: Atomic coordinates (Ang):                          
    0.85492771    3.90281136    0.00000000   1       1  O
   -3.15148660    0.82385413    0.00000000   2       2  N
    1.92851868    1.17400090    0.00000000   2       3  N
    0.97989950   -1.83027589    0.00000000   2       4  N
   -2.15925893   -2.02800480    0.00000000   2       5  N
    3.78531977   -1.11270066    0.00000000   2       6  N
   -1.34593381    0.97625025    0.00000000   3       7  Si
   -0.59943988   -1.09607717    0.00000000   3       8  Si
    0.45318289    2.35051023    0.00000000   3       9  Si
    2.13330203   -0.57651080    0.00000000   3      10  Si
   -3.51606566   -0.84205651    0.00000000   3      11  Si
    2.82452783    1.75472311    0.00000000   4      12  H
   -4.87755169   -1.46921466    0.00000000   4      13  H
    3.99495202   -2.14320400    0.00000000   4      14  H
    4.62090361   -0.48366606    0.00000000   4      15  H
   -2.27908518   -3.08151409    0.00000000   4      16  H
    6.00559871    5.87087286    0.00000000   3      17  Si
    7.87455820    7.13051649    0.00000000   3      18  Si
    7.41562582    3.12913464    0.00000000   3      19  Si
    9.48321854    5.63572586    0.00000000   3      20  Si
    6.06512866    4.18592040    0.00000000   2      21  N
    4.37559951    6.50093309    0.00000000   2      22  N
    9.05951469    3.92022505    0.00000000   2      23  N
    8.15492190    8.60073901    0.00000000   4      24  H
   10.97862992    5.85457840    0.00000000   4      25  H
    4.13114052    7.51939904    0.00000000   4      26  H
    3.54885833    5.84408496    0.00000000   4      27  H
    7.47490158    1.54669261    0.00000000   1      28  O
    9.83117028    3.19325769    0.00000000   4      29  H

outcell: Unit cell vectors (Ang):
       25.030383    0.000000    0.000000
        0.000000   20.439061    0.000000
        0.000000    0.000000    9.854683

outcell: Cell vector modules (Ang)   :   25.030383   20.439061    9.854683
outcell: Cell angles (23,13,12) (deg):     90.0000     90.0000     90.0000
outcell: Cell volume (Ang**3)        :   5041.6315
<dSpData1D:S at geom step 0
  <sparsity:sparsity for geom step 0
    nrows_g=297 nrows=81 sparsity=.1936 nnzs=17081, refcount: 8>
  <dData1D:(new from dSpData1D) n=17081, refcount: 1>
refcount: 1>
new_DM -- step:     1
Initializing Density Matrix...
DM filled with atomic data:
<dSpData2D:DM initialized from atoms
  <sparsity:sparsity for geom step 0
    nrows_g=297 nrows=81 sparsity=.1936 nnzs=17081, refcount: 9>
  <dData2D:DM n=17081 m=8, refcount: 1>
refcount: 1>
     spin moment: S , {S} =   56.00000   0.00000   0.00000  56.00000
No. of atoms with KB's overlaping orbs in proc 0. Max # of overlaps:      29     170

Initializing spin-orbit part of the Hamiltonian
  Adding spin-orbit effects for O 
  Adding spin-orbit effects for N 
  Adding spin-orbit effects for Si
  Adding spin-orbit effects for H 


New grid distribution:   1
           1       1:  144    1:   60    1:   30
           2       1:  144    1:   60   31:   60
           3       1:  144   61:  120    1:   30
           4       1:  144   61:  120   31:   60

InitMesh: MESH =   288 x   240 x   120 =     8294400
InitMesh: (bp) =   144 x   120 x    60 =     1036800
InitMesh: Mesh cutoff (required, used) =   340.000   365.891 Ry
ExtMesh (bp) on 0 =   248 x   168 x   142 =     5916288
New grid distribution:   2
           1      43:  144    1:   32    1:   60
           2       1:   42    1:   30    1:   60
           3      43:  144   33:  120    1:   60
           4       1:   42   31:  120    1:   60
New grid distribution:   3
           1      49:  144    1:   37    1:   60
           2       1:   48    1:   40    1:   60
           3      49:  144   38:  120    1:   60
           4       1:   48   41:  120    1:   60
Setting up quadratic distribution...
ExtMesh (bp) on 0 =   206 x   140 x   172 =     4960480
PhiOnMesh: Number of (b)points on node 0 =               195840
PhiOnMesh: nlist on node 0 =              2633723

stepf: Fermi-Dirac step function

siesta: Program's energy decomposition (eV):
siesta: Ebs     =      -614.079345
siesta: Eions   =      3585.165840
siesta: Ena     =       384.945216
siesta: Ekin    =      3376.038638
siesta: Enl     =     -3307.851246
siesta: Eso     =        -0.003380
siesta: Edftu   =         0.000000
siesta: DEna    =       154.621418
siesta: DUscf   =        81.658366
siesta: DUext   =         0.000000
siesta: Exc     =     -1205.337088
siesta: eta*DQ  =         0.000000
siesta: Emadel  =         0.000000
siesta: Emeta   =         0.000000
siesta: Emolmec =         0.000000
siesta: Ekinion =         0.000000
siesta: Eharris =     -4022.187693
siesta: Etot    =     -4101.093917
siesta: FreeEng =     -4101.095418

        iscf     Eharris(eV)        E_KS(eV)     FreeEng(eV)     dDmax    Ef(eV) dHmax(eV)
   scf:    1    -4022.187693    -4101.093917    -4101.095418  0.964638 -4.889237 21.520943
     spin moment: S , {S} =    2.00784   0.00000   0.00000   2.00784
timer: Routine,Calls,Time,% = IterSCF        1      13.364  18.28
   scf:    2    -4149.217023    -4137.096193    -4137.100441  0.461129 -4.221911 11.506430
     spin moment: S , {S} =    1.96866  -0.00000  -0.00000   1.96866
   scf:    3    -4111.357466    -4134.940717    -4134.962261  0.433342 -4.329060 11.372005
     spin moment: S , {S} =    2.01375   0.00000  -0.00000   2.01375
   scf:    4    -4150.049959    -4145.570510    -4145.570511  0.289822 -3.938742  5.972760
     spin moment: S , {S} =    0.00010   0.00000  -0.00000   0.00010
   scf:    5    -4146.798676    -4146.286026    -4146.286026  0.037524 -3.742351  4.149602
     spin moment: S , {S} =    0.00006   0.00000   0.00000   0.00006
   scf:    6    -4147.019994    -4146.659483    -4146.659483  0.024111 -3.565168  2.101120
     spin moment: S , {S} =    0.00003   0.00000  -0.00000   0.00003
   scf:    7    -4147.011630    -4146.833140    -4146.833140  0.022213 -3.727271  0.892163
     spin moment: S , {S} =    0.00001   0.00000  -0.00000   0.00001
   scf:    8    -4146.952361    -4146.890863    -4146.890863  0.012404 -3.642185  0.495243
     spin moment: S , {S} =    0.00000  -0.00000  -0.00000   0.00000
   scf:    9    -4146.931394    -4146.910390    -4146.910390  0.006967 -3.779777  0.341702
     spin moment: S , {S} =    0.00000  -0.00000   0.00000   0.00000
   scf:   10    -4146.961010    -4146.930398    -4146.930398  0.019885 -3.808229  0.202340
     spin moment: S , {S} =    0.00000   0.00000  -0.00000  -0.00000
   scf:   11    -4146.933631    -4146.931953    -4146.931953  0.005638 -3.800001  0.053220
     spin moment: S , {S} =    0.00000  -0.00000  -0.00000  -0.00000
   scf:   12    -4146.932810    -4146.932394    -4146.932394  0.001219 -3.796160  0.025183
     spin moment: S , {S} =    0.00000   0.00000  -0.00000   0.00000
   scf:   13    -4146.932784    -4146.932583    -4146.932583  0.001497 -3.792353  0.018174
     spin moment: S , {S} =    0.00000  -0.00000  -0.00000   0.00000
   scf:   14    -4146.932837    -4146.932702    -4146.932702  0.001412 -3.790309  0.014481
     spin moment: S , {S} =    0.00000  -0.00000  -0.00000   0.00000
   scf:   15    -4146.932848    -4146.932768    -4146.932768  0.001289 -3.790026  0.010566
     spin moment: S , {S} =    0.00000   0.00000  -0.00000   0.00000
   scf:   16    -4146.932871    -4146.932812    -4146.932812  0.001341 -3.790016  0.006633
     spin moment: S , {S} =    0.00000   0.00000  -0.00000   0.00000
   scf:   17    -4146.932844    -4146.932826    -4146.932826  0.000766 -3.790068  0.004344
     spin moment: S , {S} =    0.00000   0.00000  -0.00000   0.00000
   scf:   18    -4146.932838    -4146.932831    -4146.932831  0.000473 -3.790063  0.002238
     spin moment: S , {S} =    0.00000   0.00000  -0.00000   0.00000
   scf:   19    -4146.932835    -4146.932833    -4146.932833  0.000287 -3.790098  0.001165
     spin moment: S , {S} =    0.00000   0.00000  -0.00000   0.00000
   scf:   20    -4146.932834    -4146.932833    -4146.932833  0.000135 -3.790098  0.000663
     spin moment: S , {S} =    0.00000   0.00000  -0.00000   0.00000
   scf:   21    -4146.932834    -4146.932834    -4146.932834  0.000121 -3.790112  0.000308
     spin moment: S , {S} =    0.00000   0.00000  -0.00000   0.00000
   scf:   22    -4146.932834    -4146.932834    -4146.932834  0.000050 -3.790117  0.000168
     spin moment: S , {S} =    0.00000   0.00000  -0.00000   0.00000
   scf:   23    -4146.932834    -4146.932834    -4146.932834  0.000010 -3.790120  0.000122
     spin moment: S , {S} =    0.00000   0.00000  -0.00000   0.00000
   scf:   24    -4146.932834    -4146.932834    -4146.932834  0.000005 -3.790119  0.000098
     spin moment: S , {S} =    0.00000   0.00000  -0.00000   0.00000
mix: Pulay -- resetting history
   scf:   25    -4146.932834    -4146.932834    -4146.932834  0.000005 -3.790118  0.000067
     spin moment: S , {S} =    0.00000   0.00000  -0.00000   0.00000
   scf:   26    -4146.932834    -4146.932834    -4146.932834  0.000006 -3.790118  0.000046
     spin moment: S , {S} =    0.00000   0.00000  -0.00000   0.00000
   scf:   27    -4146.932834    -4146.932834    -4146.932834  0.000004 -3.790117  0.000031
     spin moment: S , {S} =    0.00000   0.00000  -0.00000  -0.00000
   scf:   28    -4146.932834    -4146.932834    -4146.932834  0.000005 -3.790117  0.000014
     spin moment: S , {S} =    0.00000   0.00000  -0.00000  -0.00000
   scf:   29    -4146.932834    -4146.932834    -4146.932834  0.000001 -3.790117  0.000007
     spin moment: S , {S} =    0.00000   0.00000  -0.00000  -0.00000
   scf:   30    -4146.932834    -4146.932834    -4146.932834  0.000001 -3.790117  0.000003
     spin moment: S , {S} =    0.00000   0.00000  -0.00000   0.00000
   scf:   31    -4146.932834    -4146.932834    -4146.932834  0.000001 -3.790117  0.000001
     spin moment: S , {S} =    0.00000   0.00000  -0.00000   0.00000
   scf:   32    -4146.932834    -4146.932834    -4146.932834  0.000000 -3.790117  0.000001
     spin moment: S , {S} =    0.00000   0.00000  -0.00000   0.00000

SCF Convergence by DM+H criterion
max |DM_out - DM_in|         :     0.0000001982
max |H_out - H_in|      (eV) :     0.0000007796
SCF cycle converged after 32 iterations

Using DM_out to compute the final energy and forces
No. of atoms with KB's overlaping orbs in proc 0. Max # of overlaps:      29     170

siesta: E_KS(eV) =            -4146.9328

siesta: E_KS - E_eggbox =     -4146.9328
     spin moment: S , {S} =    0.00000   0.00000  -0.00000   0.00000

siesta: Atomic forces (eV/Ang):
     1    2.171874    1.848060   -0.000000
     2   -0.022840   -0.010306    0.000000
     3   -0.141916    0.092176    0.000000
     4   -0.159508   -0.040622    0.000000
     5    0.003057    0.001771   -0.000000
     6   -0.166923   -0.001499   -0.000000
     7   -0.009730    0.030562    0.000000
     8    0.104990   -0.008410    0.000000
     9    0.119092   -0.169491    0.000000
    10    0.314981    0.007197   -0.000000
    11   -0.023948    0.030060    0.000000
    12   -0.066047   -0.042936   -0.000000
    13    0.062087    0.172777   -0.000000
    14    0.027887    0.140557    0.000000
    15    0.252447    0.126993    0.000000
    16    0.105207    0.203894    0.000000
    17   -0.252113    0.134515    0.000000
    18    0.039883   -0.033638    0.000000
    19    0.005488    0.248640   -0.000000
    20   -0.020852    0.066723   -0.000000
    21    0.072158   -0.200542   -0.000000
    22    0.203533   -0.028017   -0.000000
    23   -0.021174   -0.096818    0.000000
    24    0.081106    0.102335    0.000000
    25   -0.139509    0.041713   -0.000000
    26   -0.036352    0.124961   -0.000000
    27   -0.029583   -0.014151    0.000000
    28   -0.235038   -2.167812    0.000000
    29    0.048836    0.038294   -0.000000
----------------------------------------
   Tot    2.287094    0.596989    0.000000
----------------------------------------
   Max    2.171874
   Res    0.395792    sqrt( Sum f_i^2 / 3N )
----------------------------------------
   Max    2.171874    constrained

Stress tensor Voigt[x,y,z,yz,xz,xy] (kbar):        0.38        0.05       -0.10       -0.00       -0.00        0.49
(Free)E + p*V (eV/cell)    -4147.2659
Target enthalpy (eV/cell)    -4146.9328

mulliken: Atomic and Orbital Populations:

Species: O                   

Atom      Orb        Charge      Spin       Svec
----------------------------------------------------------------
    1  1 2s         1.74258   0.00000     -0.000  -0.000   0.000
    1  2 2s         0.06805   0.00000      0.000   0.000   0.000
    1  3 2py        1.43568   0.00000     -0.000  -0.000   0.000
    1  4 2pz        1.55092   0.00000     -0.000  -0.000   0.000
    1  5 2px        1.62048   0.00000     -0.000  -0.000  -0.000
    1  6 2py        0.03875   0.00000      0.000   0.000   0.000
    1  7 2pz       -0.00499   0.00000      0.000   0.000   0.000
    1  8 2px        0.00524   0.00000      0.000   0.000   0.000
    1  9 3Pdxy      0.00720   0.00000      0.000   0.000   0.000
    1 10 3Pdyz      0.00921   0.00000     -0.000  -0.000  -0.000
    1 11 3Pdz2      0.00163   0.00000     -0.000   0.000   0.000
    1 12 3Pdxz      0.00039   0.00000      0.000  -0.000   0.000
    1 13 3Pdx2-y2   0.00699   0.00000     -0.000  -0.000   0.000
    1     Total     6.48212   0.00000     -0.000  -0.000   0.000

   28  1 2s         1.73139   0.00000      0.000   0.000   0.000
   28  2 2s         0.07333   0.00000     -0.000  -0.000   0.000
   28  3 2py        1.42795   0.00000     -0.000  -0.000   0.000
   28  4 2pz        1.54542   0.00000     -0.000   0.000   0.000
   28  5 2px        1.63464   0.00000      0.000   0.000  -0.000
   28  6 2py        0.04228   0.00000      0.000   0.000   0.000
   28  7 2pz       -0.00237   0.00000      0.000  -0.000   0.000
   28  8 2px        0.01239   0.00000     -0.000  -0.000   0.000
   28  9 3Pdxy      0.00695   0.00000     -0.000  -0.000   0.000
   28 10 3Pdyz      0.01017   0.00000      0.000   0.000  -0.000
   28 11 3Pdz2      0.00123   0.00000      0.000   0.000  -0.000
   28 12 3Pdxz     -0.00017   0.00000      0.000  -0.000  -0.000
   28 13 3Pdx2-y2   0.00772   0.00000      0.000  -0.000   0.000
   28     Total     6.49093   0.00000      0.000   0.000   0.000

----------------------------------------------------------------
Total              12.97305   0.00000      0.000   0.000   0.000


Species: N                   

Atom      Orb        Charge      Spin       Svec
----------------------------------------------------------------
    2  1 2s         1.54933   0.00000      0.000  -0.000  -0.000
    2  2 2s         0.08445   0.00000     -0.000   0.000   0.000
    2  3 2py        1.03216   0.00000     -0.000   0.000  -0.000
    2  4 2pz        1.22395   0.00000      0.000  -0.000  -0.000
    2  5 2px        1.00631   0.00000     -0.000  -0.000  -0.000
    2  6 2py        0.19261   0.00000      0.000  -0.000   0.000
    2  7 2pz        0.05452   0.00000     -0.000   0.000   0.000
    2  8 2px        0.19058   0.00000      0.000   0.000   0.000
    2  9 3Pdxy      0.00841   0.00000      0.000  -0.000   0.000
    2 10 3Pdyz      0.01082   0.00000     -0.000  -0.000   0.000
    2 11 3Pdz2      0.00195   0.00000     -0.000  -0.000   0.000
    2 12 3Pdxz      0.00754   0.00000      0.000  -0.000   0.000
    2 13 3Pdx2-y2   0.00891   0.00000     -0.000   0.000  -0.000
    2     Total     5.37153   0.00000     -0.000   0.000  -0.000

    3  1 2s         1.40479   0.00000     -0.000  -0.000  -0.000
    3  2 2s         0.11549   0.00000      0.000   0.000   0.000
    3  3 2py        0.94032   0.00000     -0.000  -0.000  -0.000
    3  4 2pz        1.53896   0.00000      0.000   0.000  -0.000
    3  5 2px        1.09965   0.00000      0.000  -0.000  -0.000
    3  6 2py        0.24814   0.00000      0.000  -0.000   0.000
    3  7 2pz        0.00812   0.00000     -0.000  -0.000   0.000
    3  8 2px        0.16853   0.00000      0.000   0.000   0.000
    3  9 3Pdxy      0.00421   0.00000     -0.000   0.000   0.000
    3 10 3Pdyz      0.00410   0.00000     -0.000   0.000  -0.000
    3 11 3Pdz2      0.00080   0.00000     -0.000   0.000   0.000
    3 12 3Pdxz      0.00263   0.00000      0.000  -0.000  -0.000
    3 13 3Pdx2-y2   0.00296   0.00000      0.000   0.000  -0.000
    3     Total     5.53870   0.00000     -0.000  -0.000  -0.000

    4  1 2s         1.46910   0.00000     -0.000  -0.000   0.000
    4  2 2s         0.11667   0.00000      0.000   0.000   0.000
    4  3 2py        1.10444   0.00000      0.000  -0.000   0.000
    4  4 2pz        1.29287   0.00000      0.000   0.000   0.000
    4  5 2px        0.84182   0.00000      0.000   0.000  -0.000
    4  6 2py        0.15582   0.00000      0.000   0.000   0.000
    4  7 2pz        0.05353   0.00000     -0.000   0.000   0.000
    4  8 2px        0.28655   0.00000     -0.000  -0.000   0.000
    4  9 3Pdxy      0.00856   0.00000     -0.000  -0.000   0.000
    4 10 3Pdyz      0.01079   0.00000      0.000  -0.000  -0.000
    4 11 3Pdz2      0.00132   0.00000      0.000   0.000   0.000
    4 12 3Pdxz      0.00491   0.00000      0.000  -0.000  -0.000
    4 13 3Pdx2-y2   0.00852   0.00000     -0.000  -0.000  -0.000
    4     Total     5.35489   0.00000      0.000  -0.000   0.000

    5  1 2s         1.37357   0.00000     -0.000  -0.000  -0.000
    5  2 2s         0.12895   0.00000      0.000   0.000   0.000
    5  3 2py        1.02703   0.00000      0.000   0.000  -0.000
    5  4 2pz        1.50095   0.00000      0.000   0.000  -0.000
    5  5 2px        1.05912   0.00000      0.000   0.000  -0.000
    5  6 2py        0.20333   0.00000      0.000   0.000   0.000
    5  7 2pz        0.01350   0.00000     -0.000   0.000   0.000
    5  8 2px        0.20248   0.00000     -0.000  -0.000   0.000
    5  9 3Pdxy      0.00369   0.00000      0.000   0.000  -0.000
    5 10 3Pdyz      0.00249   0.00000      0.000   0.000   0.000
    5 11 3Pdz2      0.00138   0.00000     -0.000  -0.000   0.000
    5 12 3Pdxz      0.00682   0.00000      0.000   0.000   0.000
    5 13 3Pdx2-y2   0.00572   0.00000     -0.000  -0.000   0.000
    5     Total     5.52904   0.00000      0.000   0.000  -0.000

    6  1 2s         1.26511   0.00000     -0.000   0.000  -0.000
    6  2 2s         0.18090   0.00000      0.000  -0.000   0.000
    6  3 2py        1.08180   0.00000     -0.000  -0.000  -0.000
    6  4 2pz        1.57161   0.00000      0.000  -0.000  -0.000
    6  5 2px        0.97402   0.00000     -0.000   0.000  -0.000
    6  6 2py        0.18756   0.00000      0.000   0.000   0.000
    6  7 2pz        0.02933   0.00000     -0.000   0.000   0.000
    6  8 2px        0.25253   0.00000      0.000  -0.000   0.000
    6  9 3Pdxy      0.00244   0.00000     -0.000  -0.000   0.000
    6 10 3Pdyz      0.00011   0.00000     -0.000  -0.000  -0.000
    6 11 3Pdz2      0.00161   0.00000     -0.000   0.000   0.000
    6 12 3Pdxz      0.00293   0.00000      0.000   0.000  -0.000
    6 13 3Pdx2-y2   0.00304   0.00000      0.000  -0.000   0.000
    6     Total     5.55298   0.00000     -0.000  -0.000  -0.000

   21  1 2s         1.40797   0.00000      0.000   0.000   0.000
   21  2 2s         0.13376   0.00000     -0.000  -0.000   0.000
   21  3 2py        0.87282   0.00000     -0.000   0.000  -0.000
   21  4 2pz        1.29662   0.00000     -0.000   0.000   0.000
   21  5 2px        1.15835   0.00000      0.000  -0.000  -0.000
   21  6 2py        0.28050   0.00000      0.000   0.000   0.000
   21  7 2pz        0.04952   0.00000     -0.000  -0.000   0.000
   21  8 2px        0.16401   0.00000     -0.000   0.000   0.000
   21  9 3Pdxy      0.00639   0.00000      0.000  -0.000   0.000
   21 10 3Pdyz      0.00510   0.00000     -0.000  -0.000  -0.000
   21 11 3Pdz2     -0.00006   0.00000      0.000   0.000  -0.000
   21 12 3Pdxz      0.00583   0.00000      0.000   0.000  -0.000
   21 13 3Pdx2-y2   0.00560   0.00000     -0.000  -0.000  -0.000
   21     Total     5.38642   0.00000      0.000   0.000   0.000

   22  1 2s         1.28471   0.00000      0.000   0.000   0.000
   22  2 2s         0.17230   0.00000     -0.000   0.000  -0.000
   22  3 2py        1.07280   0.00000     -0.000   0.000  -0.000
   22  4 2pz        1.55322   0.00000     -0.000   0.000  -0.000
   22  5 2px        1.00610   0.00000      0.000   0.000  -0.000
   22  6 2py        0.19289   0.00000      0.000  -0.000   0.000
   22  7 2pz        0.02787   0.00000      0.000   0.000  -0.000
   22  8 2px        0.23206   0.00000     -0.000  -0.000   0.000
   22  9 3Pdxy      0.00334   0.00000     -0.000  -0.000   0.000
   22 10 3Pdyz      0.00011   0.00000     -0.000   0.000  -0.000
   22 11 3Pdz2      0.00251   0.00000     -0.000  -0.000   0.000
   22 12 3Pdxz      0.00287   0.00000      0.000  -0.000   0.000
   22 13 3Pdx2-y2   0.00336   0.00000      0.000  -0.000  -0.000
   22     Total     5.55415   0.00000      0.000   0.000  -0.000

   23  1 2s         1.39593   0.00000     -0.000   0.000  -0.000
   23  2 2s         0.11820   0.00000      0.000  -0.000  -0.000
   23  3 2py        0.99671   0.00000      0.000  -0.000  -0.000
   23  4 2pz        1.52099   0.00000     -0.000   0.000  -0.000
   23  5 2px        1.07429   0.00000      0.000   0.000  -0.000
   23  6 2py        0.22135   0.00000     -0.000  -0.000   0.000
   23  7 2pz        0.00529   0.00000      0.000  -0.000   0.000
   23  8 2px        0.19230   0.00000     -0.000  -0.000   0.000
   23  9 3Pdxy      0.00526   0.00000      0.000   0.000   0.000
   23 10 3Pdyz      0.00451   0.00000     -0.000   0.000  -0.000
   23 11 3Pdz2      0.00056   0.00000     -0.000  -0.000  -0.000
   23 12 3Pdxz      0.00230   0.00000      0.000   0.000  -0.000
   23 13 3Pdx2-y2   0.00119   0.00000     -0.000   0.000  -0.000
   23     Total     5.53888   0.00000     -0.000   0.000  -0.000

----------------------------------------------------------------
Total              56.79963   0.00000      0.000   0.000  -0.000


Species: Si                  

Atom      Orb        Charge      Spin       Svec
----------------------------------------------------------------
    7  1 3s         0.68893   0.00000      0.000   0.000   0.000
    7  2 3s         0.35770   0.00000     -0.000   0.000   0.000
    7  3 3py        0.47436   0.00000     -0.000   0.000   0.000
    7  4 3pz        0.70286   0.00000     -0.000   0.000   0.000
    7  5 3px        0.13632   0.00000     -0.000  -0.000   0.000
    7  6 3py        0.27188   0.00000      0.000  -0.000   0.000
    7  7 3pz        0.25765   0.00000      0.000  -0.000   0.000
    7  8 3px        0.42209   0.00000     -0.000   0.000   0.000
    7  9 3Pdxy      0.24263   0.00000     -0.000  -0.000   0.000
    7 10 3Pdyz      0.03023   0.00000      0.000  -0.000   0.000
    7 11 3Pdz2      0.01204   0.00000      0.000   0.000   0.000
    7 12 3Pdxz      0.13843   0.00000      0.000   0.000  -0.000
    7 13 3Pdx2-y2   0.11318   0.00000      0.000   0.000   0.000
    7     Total     3.84828   0.00000     -0.000   0.000   0.000

    8  1 3s         0.64786   0.00000      0.000   0.000   0.000
    8  2 3s         0.37138   0.00000     -0.000   0.000  -0.000
    8  3 3py        0.38743   0.00000     -0.000  -0.000  -0.000
    8  4 3pz        0.52270   0.00000      0.000   0.000  -0.000
    8  5 3px       -0.03084   0.00000      0.000  -0.000  -0.000
    8  6 3py        0.30437   0.00000      0.000   0.000   0.000
    8  7 3pz        0.20287   0.00000      0.000  -0.000   0.000
    8  8 3px        0.52027   0.00000     -0.000   0.000   0.000
    8  9 3Pdxy      0.25921   0.00000     -0.000  -0.000   0.000
    8 10 3Pdyz      0.11044   0.00000      0.000   0.000  -0.000
    8 11 3Pdz2      0.01320   0.00000      0.000  -0.000   0.000
    8 12 3Pdxz      0.15639   0.00000      0.000   0.000   0.000
    8 13 3Pdx2-y2   0.18821   0.00000     -0.000  -0.000  -0.000
    8     Total     3.65350   0.00000      0.000  -0.000   0.000

    9  1 3s         0.62931   0.00000      0.000   0.000  -0.000
    9  2 3s         0.35630   0.00000     -0.000  -0.000  -0.000
    9  3 3py        0.08791   0.00000      0.000   0.000  -0.000
    9  4 3pz        0.48310   0.00000     -0.000  -0.000  -0.000
    9  5 3px        0.37197   0.00000     -0.000   0.000  -0.000
    9  6 3py        0.43671   0.00000     -0.000  -0.000   0.000
    9  7 3pz        0.18358   0.00000      0.000   0.000  -0.000
    9  8 3px        0.26790   0.00000      0.000  -0.000   0.000
    9  9 3Pdxy      0.31251   0.00000      0.000   0.000   0.000
    9 10 3Pdyz      0.19251   0.00000     -0.000  -0.000  -0.000
    9 11 3Pdz2      0.01588   0.00000      0.000   0.000   0.000
    9 12 3Pdxz      0.08929   0.00000     -0.000   0.000  -0.000
    9 13 3Pdx2-y2   0.15578   0.00000      0.000   0.000  -0.000
    9     Total     3.58276   0.00000      0.000   0.000  -0.000

   10  1 3s         0.48215   0.00000     -0.000   0.000   0.000
   10  2 3s         0.38034   0.00000      0.000  -0.000   0.000
   10  3 3py        0.23835   0.00000      0.000   0.000   0.000
   10  4 3pz        0.40881   0.00000     -0.000  -0.000   0.000
   10  5 3px        0.10246   0.00000     -0.000   0.000  -0.000
   10  6 3py        0.33586   0.00000     -0.000  -0.000   0.000
   10  7 3pz        0.22095   0.00000      0.000   0.000   0.000
   10  8 3px        0.42345   0.00000      0.000   0.000   0.000
   10  9 3Pdxy      0.16309   0.00000      0.000   0.000  -0.000
   10 10 3Pdyz      0.14784   0.00000     -0.000   0.000   0.000
   10 11 3Pdz2      0.01119   0.00000     -0.000   0.000  -0.000
   10 12 3Pdxz      0.17053   0.00000      0.000  -0.000   0.000
   10 13 3Pdx2-y2   0.32095   0.00000     -0.000   0.000  -0.000
   10     Total     3.40597   0.00000      0.000   0.000   0.000

   11  1 3s         0.55850   0.00000     -0.000  -0.000   0.000
   11  2 3s         0.38191   0.00000      0.000   0.000  -0.000
   11  3 3py        0.30460   0.00000      0.000   0.000   0.000
   11  4 3pz        0.54442   0.00000     -0.000  -0.000   0.000
   11  5 3px        0.13912   0.00000     -0.000   0.000   0.000
   11  6 3py        0.30276   0.00000     -0.000  -0.000   0.000
   11  7 3pz        0.17662   0.00000      0.000  -0.000   0.000
   11  8 3px        0.43149   0.00000      0.000  -0.000   0.000
   11  9 3Pdxy      0.24386   0.00000     -0.000  -0.000   0.000
   11 10 3Pdyz      0.12491   0.00000     -0.000   0.000   0.000
   11 11 3Pdz2      0.00940   0.00000     -0.000  -0.000   0.000
   11 12 3Pdxz      0.05279   0.00000     -0.000   0.000   0.000
   11 13 3Pdx2-y2   0.18390   0.00000     -0.000  -0.000   0.000
   11     Total     3.45429   0.00000     -0.000  -0.000   0.000

   17  1 3s         0.64709   0.00000      0.000   0.000   0.000
   17  2 3s         0.35848   0.00000     -0.000  -0.000  -0.000
   17  3 3py        0.24775   0.00000      0.000   0.000   0.000
   17  4 3pz        0.42490   0.00000     -0.000   0.000   0.000
   17  5 3px        0.22802   0.00000     -0.000   0.000   0.000
   17  6 3py        0.37029   0.00000     -0.000   0.000  -0.000
   17  7 3pz        0.21363   0.00000      0.000  -0.000   0.000
   17  8 3px        0.37783   0.00000      0.000  -0.000  -0.000
   17  9 3Pdxy      0.29456   0.00000     -0.000  -0.000  -0.000
   17 10 3Pdyz      0.13886   0.00000     -0.000  -0.000   0.000
   17 11 3Pdz2      0.00966   0.00000      0.000  -0.000   0.000
   17 12 3Pdxz      0.14791   0.00000      0.000   0.000   0.000
   17 13 3Pdx2-y2   0.17001   0.00000     -0.000   0.000  -0.000
   17     Total     3.62901   0.00000      0.000   0.000   0.000

   18  1 3s         0.74598   0.00000     -0.000  -0.000   0.000
   18  2 3s         0.33857   0.00000      0.000   0.000   0.000
   18  3 3py        0.08739   0.00000     -0.000  -0.000   0.000
   18  4 3pz        0.82802   0.00000     -0.000   0.000   0.000
   18  5 3px        0.54542   0.00000     -0.000  -0.000   0.000
   18  6 3py        0.51462   0.00000      0.000   0.000   0.000
   18  7 3pz        0.19759   0.00000      0.000   0.000   0.000
   18  8 3px        0.25267   0.00000      0.000  -0.000   0.000
   18  9 3Pdxy      0.10871   0.00000      0.000   0.000  -0.000
   18 10 3Pdyz      0.02777   0.00000      0.000   0.000  -0.000
   18 11 3Pdz2      0.00933   0.00000     -0.000  -0.000  -0.000
   18 12 3Pdxz      0.02932   0.00000     -0.000  -0.000  -0.000
   18 13 3Pdx2-y2   0.10608   0.00000     -0.000  -0.000  -0.000
   18     Total     3.79147   0.00000     -0.000   0.000   0.000

   19  1 3s         0.45595   0.00000     -0.000  -0.000   0.000
   19  2 3s         0.36459   0.00000      0.000  -0.000  -0.000
   19  3 3py        0.08169   0.00000     -0.000   0.000   0.000
   19  4 3pz        0.41887   0.00000      0.000  -0.000  -0.000
   19  5 3px        0.34799   0.00000     -0.000  -0.000   0.000
   19  6 3py        0.46846   0.00000      0.000  -0.000  -0.000
   19  7 3pz        0.18662   0.00000      0.000   0.000  -0.000
   19  8 3px        0.24335   0.00000      0.000   0.000  -0.000
   19  9 3Pdxy      0.34907   0.00000     -0.000   0.000   0.000
   19 10 3Pdyz      0.19068   0.00000     -0.000   0.000  -0.000
   19 11 3Pdz2      0.01573   0.00000      0.000  -0.000  -0.000
   19 12 3Pdxz      0.08609   0.00000     -0.000   0.000  -0.000
   19 13 3Pdx2-y2   0.23050   0.00000      0.000   0.000   0.000
   19     Total     3.43958   0.00000     -0.000  -0.000  -0.000

   20  1 3s         0.67350   0.00000     -0.000  -0.000   0.000
   20  2 3s         0.37966   0.00000      0.000   0.000  -0.000
   20  3 3py        0.33765   0.00000     -0.000   0.000  -0.000
   20  4 3pz        0.58221   0.00000     -0.000  -0.000  -0.000
   20  5 3px        0.13863   0.00000      0.000   0.000   0.000
   20  6 3py        0.28990   0.00000      0.000  -0.000   0.000
   20  7 3pz        0.16319   0.00000     -0.000  -0.000  -0.000
   20  8 3px        0.49924   0.00000     -0.000  -0.000   0.000
   20  9 3Pdxy      0.10257   0.00000     -0.000   0.000  -0.000
   20 10 3Pdyz      0.13467   0.00000     -0.000  -0.000  -0.000
   20 11 3Pdz2      0.00735   0.00000      0.000  -0.000   0.000
   20 12 3Pdxz      0.02683   0.00000     -0.000  -0.000  -0.000
   20 13 3Pdx2-y2   0.17114   0.00000      0.000   0.000   0.000
   20     Total     3.50653   0.00000     -0.000  -0.000  -0.000

----------------------------------------------------------------
Total              89.11101   0.00000     -0.000  -0.000   0.000


Species: H                   

Atom      Orb        Charge      Spin       Svec
----------------------------------------------------------------
   12  1 1s         0.48664   0.00000     -0.000   0.000  -0.000
   12  2 1s         0.18626   0.00000      0.000   0.000   0.000
   12  3 2Ppy       0.02876   0.00000     -0.000   0.000  -0.000
   12  4 2Ppz       0.03454   0.00000     -0.000  -0.000  -0.000
   12  5 2Ppx       0.02360   0.00000      0.000   0.000   0.000
   12     Total     0.75981   0.00000     -0.000   0.000  -0.000

   13  1 1s         1.02064   0.00000      0.000   0.000  -0.000
   13  2 1s         0.09468   0.00000     -0.000  -0.000   0.000
   13  3 2Ppy       0.01983   0.00000      0.000  -0.000  -0.000
   13  4 2Ppz       0.02018   0.00000      0.000   0.000   0.000
   13  5 2Ppx       0.03317   0.00000     -0.000  -0.000   0.000
   13     Total     1.18850   0.00000      0.000   0.000  -0.000

   14  1 1s         0.46613   0.00000      0.000  -0.000  -0.000
   14  2 1s         0.19967   0.00000     -0.000   0.000   0.000
   14  3 2Ppy       0.01846   0.00000     -0.000   0.000  -0.000
   14  4 2Ppz       0.04718   0.00000      0.000   0.000  -0.000
   14  5 2Ppx       0.01743   0.00000     -0.000  -0.000  -0.000
   14     Total     0.74888   0.00000      0.000  -0.000  -0.000

   15  1 1s         0.45871   0.00000     -0.000  -0.000   0.000
   15  2 1s         0.20028   0.00000      0.000   0.000   0.000
   15  3 2Ppy       0.00552   0.00000      0.000  -0.000   0.000
   15  4 2Ppz       0.04553   0.00000     -0.000   0.000  -0.000
   15  5 2Ppx       0.02975   0.00000      0.000  -0.000   0.000
   15     Total     0.73979   0.00000     -0.000  -0.000   0.000

   16  1 1s         0.50787   0.00000     -0.000  -0.000  -0.000
   16  2 1s         0.18758   0.00000      0.000  -0.000   0.000
   16  3 2Ppy       0.03004   0.00000     -0.000   0.000  -0.000
   16  4 2Ppz       0.03952   0.00000     -0.000   0.000  -0.000
   16  5 2Ppx       0.02320   0.00000     -0.000  -0.000  -0.000
   16     Total     0.78820   0.00000     -0.000  -0.000  -0.000

   24  1 1s         1.05726   0.00000      0.000   0.000  -0.000
   24  2 1s         0.07640   0.00000      0.000  -0.000   0.000
   24  3 2Ppy       0.03152   0.00000      0.000  -0.000   0.000
   24  4 2Ppz       0.03127   0.00000     -0.000   0.000  -0.000
   24  5 2Ppx       0.01754   0.00000      0.000  -0.000  -0.000
   24     Total     1.21398   0.00000      0.000   0.000  -0.000

   25  1 1s         1.04778   0.00000      0.000  -0.000  -0.000
   25  2 1s         0.08401   0.00000     -0.000   0.000   0.000
   25  3 2Ppy       0.01170   0.00000     -0.000   0.000  -0.000
   25  4 2Ppz       0.01793   0.00000     -0.000  -0.000  -0.000
   25  5 2Ppx       0.03642   0.00000      0.000  -0.000   0.000
   25     Total     1.19784   0.00000      0.000  -0.000  -0.000

   26  1 1s         0.47613   0.00000      0.000  -0.000  -0.000
   26  2 1s         0.19882   0.00000     -0.000  -0.000   0.000
   26  3 2Ppy       0.01890   0.00000      0.000  -0.000   0.000
   26  4 2Ppz       0.05123   0.00000      0.000  -0.000  -0.000
   26  5 2Ppx       0.01615   0.00000     -0.000  -0.000  -0.000
   26     Total     0.76123   0.00000      0.000  -0.000  -0.000

   27  1 1s         0.45802   0.00000      0.000  -0.000   0.000
   27  2 1s         0.19775   0.00000     -0.000   0.000   0.000
   27  3 2Ppy       0.00694   0.00000     -0.000   0.000  -0.000
   27  4 2Ppz       0.04087   0.00000     -0.000   0.000  -0.000
   27  5 2Ppx       0.03150   0.00000      0.000  -0.000  -0.000
   27     Total     0.73508   0.00000     -0.000  -0.000   0.000

   29  1 1s         0.48389   0.00000     -0.000  -0.000  -0.000
   29  2 1s         0.18828   0.00000      0.000   0.000   0.000
   29  3 2Ppy       0.02517   0.00000      0.000   0.000  -0.000
   29  4 2Ppz       0.03433   0.00000      0.000  -0.000  -0.000
   29  5 2Ppx       0.02402   0.00000      0.000  -0.000   0.000
   29     Total     0.75568   0.00000     -0.000  -0.000  -0.000

----------------------------------------------------------------
Total              98.00000   0.00000      0.000  -0.000   0.000


siesta: Eigenvalues (eV):
ik =     1
  -22.1364  -22.1364  -21.9105  -21.9105  -21.5713  -21.5713  -21.3929  -21.3929  -21.2853  -21.2853
  -21.1277  -21.1277  -20.7084  -20.7084  -19.7892  -19.7892  -19.5193  -19.5193  -19.3597  -19.3597
  -14.7312  -14.7312  -13.8550  -13.8550  -13.2910  -13.2910  -13.1442  -13.1442  -13.0114  -13.0114
  -12.7778  -12.7778  -12.6764  -12.6764  -12.3553  -12.3553  -12.2780  -12.2780  -11.9659  -11.9659
  -11.3269  -11.3269  -10.7831  -10.7831  -10.6988  -10.6988  -10.6047  -10.6047  -10.0988  -10.0988
   -9.5878   -9.5878   -9.1265   -9.1265   -8.9541   -8.9541   -8.7486   -8.7486   -8.6305   -8.6305
   -8.5515   -8.5515   -8.4381   -8.4381   -8.1382   -8.1382   -7.8365   -7.8365   -7.7842   -7.7842
   -7.6658   -7.6658   -7.4272   -7.4272   -7.2075   -7.2075   -6.8314   -6.8314   -6.7308   -6.7308
   -6.5943   -6.5943   -6.5188   -6.5188   -6.2704   -6.2704   -6.2102   -6.2102   -6.1806   -6.1806
   -6.0711   -6.0711   -5.9151   -5.9151   -5.4784   -5.4784   -4.3596   -4.3596   -3.2238   -3.2238
   -2.3867   -2.3867   -2.2770   -2.2770   -2.2536   -2.2536   -1.9562   -1.9562   -1.8816   -1.8816
   -1.8092   -1.8092   -1.7854   -1.7854   -1.6082   -1.6082   -1.4130   -1.4130   -1.2340   -1.2340
   -1.0006   -1.0006   -0.7326   -0.7326   -0.4360   -0.4360   -0.2371   -0.2371    0.2767    0.2767
    0.3502    0.3502    0.4063    0.4063    0.6936    0.6936    0.7174    0.7174    0.9578    0.9578
    1.2006    1.2006    1.2993    1.2993    1.4116    1.4116    1.4409    1.4409    1.5694    1.5694
    1.8035    1.8035    1.9397    1.9397    2.3035    2.3035    2.5275    2.5275    2.6561    2.6561
    2.7158    2.7158    2.9540    2.9540    2.9977    2.9977    3.2566    3.2566    3.3459    3.3459
    3.5406    3.5406    3.7798    3.7798    3.9588    3.9588    4.1181    4.1181    4.3999    4.3999
    4.4716    4.4716    4.5608    4.5608    4.6053    4.6053    4.7486    4.7486    4.8079    4.8079
    4.8561    4.8561    5.1847    5.1847    5.2647    5.2647    5.5818    5.5818    5.6093    5.6093
    5.7088    5.7088    5.8071    5.8071    5.9601    5.9601    6.1169    6.1169    6.2230    6.2230
    6.2973    6.2973    6.3637    6.3637    6.5689    6.5689    6.6564    6.6564    6.8615    6.8615
    7.1336    7.1336    7.1570    7.1570    7.3273    7.3273    7.6075    7.6075    7.7453    7.7453
    7.8713    7.8713    8.0582    8.0582    8.0948    8.0948    8.2325    8.2325    8.4238    8.4238
    8.6078    8.6078    8.7211    8.7211    8.8023    8.8023    8.9436    8.9436    9.2092    9.2092
    9.2344    9.2344    9.4055    9.4055    9.7679    9.7679    9.7762    9.7762    9.7952    9.7952
    9.8786    9.8786   10.1836   10.1836   10.3807   10.3807   10.8539   10.8539   10.9205   10.9205
   10.9992   10.9992   11.0724   11.0724   11.3881   11.3881   11.7517   11.7517   12.0424   12.0424
   12.1117   12.1117   12.1547   12.1547   12.1934   12.1934   12.3739   12.3739   12.5185   12.5185
   12.7754   12.7754   12.8452   12.8452   13.4718   13.4718   13.5863   13.5863   13.8314   13.8314
   13.9091   13.9091   14.0199   14.0199   14.1777   14.1777   14.3171   14.3171   14.7009   14.7009
   15.0141   15.0141   15.5089   15.5089   15.8663   15.8663   16.2822   16.2822   16.7462   16.7462
   16.9514   16.9514   17.3644   17.3644   17.9666   17.9666   18.3909   18.3909   18.4948   18.4948
   18.6129   18.6129   19.3357   19.3357   19.4883   19.4883   20.1692   20.1692   20.1991   20.1991
   21.0411   21.0411   21.2083   21.2083   21.8442   21.8442   22.2841   22.2841   22.5711   22.5711
   23.0413   23.0413   23.3015   23.3015   23.5822   23.5822   23.9666   23.9666   23.9894   23.9894
   24.7875   24.7875   24.8596   24.8596   26.2629   26.2629   26.9797   26.9797   28.5246   28.5246
   28.8514   28.8514   29.1918   29.1918   29.4797   29.4797   29.8415   29.8415   30.0721   30.0721
   30.2091   30.2091   30.4809   30.4809   30.6999   30.6999   30.9856   30.9856   31.1483   31.1483
   31.2319   31.2319   31.5236   31.5236   31.9915   31.9915   32.2081   32.2081   32.3758   32.3758
   33.5317   33.5317   34.2842   34.2842   34.4499   34.4499   34.4986   34.4986   34.6031   34.6031
   34.9084   34.9084   35.1902   35.1902   35.3699   35.3699   35.4759   35.4759   35.8562   35.8562
   36.9504   36.9504   37.0252   37.0252   37.4556   37.4556   37.5887   37.5887   37.9640   37.9640
   38.3403   38.3403   38.9555   38.9555   39.3489   39.3489   39.4157   39.4157   40.0298   40.0298
   40.3679   40.3679   40.7232   40.7232   40.7898   40.7898   40.8186   40.8186   41.3731   41.3731
   41.8529   41.8529   42.2835   42.2835   42.9754   42.9754   43.2357   43.2357   43.4396   43.4396
   43.5192   43.5192   43.8796   43.8796   44.0614   44.0614   44.3232   44.3232   44.5350   44.5350
   44.7408   44.7408   45.0876   45.0876   45.1574   45.1574   45.6615   45.6615   46.2716   46.2716
   46.7394   46.7394   47.3324   47.3324   47.4206   47.4206   49.0122   49.0122   49.2711   49.2711
   49.9639   49.9639   50.4373   50.4373   50.9814   50.9814   51.0564   51.0564   51.3364   51.3364
   51.6562   51.6562   52.0924   52.0924   52.3630   52.3630   53.4476   53.4476   54.6542   54.6542
   54.7227   54.7227   55.2117   55.2117   55.7404   55.7404   55.8941   55.8941   56.0035   56.0035
   56.5996   56.5996   57.0481   57.0481   57.2349   57.2349   58.4436   58.4436   59.3909   59.3909
   60.0166   60.0166   60.4183   60.4183   60.5935   60.5935   61.3752   61.3752   61.9807   61.9807
   62.0196   62.0196   62.6017   62.6017   63.4756   63.4756   64.5352   64.5352   66.4702   66.4702
   67.2961   67.2962   67.6250   67.6250   68.9110   68.9110   69.1301   69.1301   70.7244   70.7244
   73.7004   73.7004   81.9717   81.9717   90.3421   90.3421   91.7109   91.7109   93.5505   93.5505
   98.3760   98.3760   99.6653   99.6653  101.1227  101.1227  103.4278  103.4278  103.8651  103.8651
  110.6805  110.6805  112.0960  112.0960  123.9495  123.9495  126.2886  126.2886  131.3996  131.3996
  140.1118  140.1118  141.4952  141.4952
siesta: Fermi energy =      -3.790117 eV

siesta: Program's energy decomposition (eV):
siesta: Ebs     =     -1135.312715
siesta: Eions   =      3585.165840
siesta: Ena     =       384.945216
siesta: Ekin    =      2907.935951
siesta: Enl     =     -2795.551637
siesta: Eso     =        -0.004255
siesta: Edftu   =         0.000000
siesta: DEna    =        47.558286
siesta: DUscf   =        14.263311
siesta: DUext   =         0.000000
siesta: Exc     =     -1120.913867
siesta: eta*DQ  =         0.000000
siesta: Emadel  =         0.000000
siesta: Emeta   =         0.000000
siesta: Emolmec =         0.000000
siesta: Ekinion =         0.000000
siesta: Eharris =     -4146.932834
siesta: Etot    =     -4146.932834
siesta: FreeEng =     -4146.932834

siesta: Final energy (eV):
siesta:  Band Struct. =   -1135.312715
siesta:       Kinetic =    2907.935951
siesta:       Hartree =    8433.630161
siesta:       Edftu   =       0.000000
siesta:       Eso     =      -0.004255
siesta:    Ext. field =       0.000000
siesta:   Exch.-corr. =   -1120.913867
siesta:  Ion-electron =  -19455.436925
siesta:       Ion-ion =    5087.856101
siesta:       Ekinion =       0.000000
siesta:         Total =   -4146.932834
siesta:         Fermi =      -3.790117

siesta: Atomic forces (eV/Ang):
siesta:      1    2.171874    1.848060   -0.000000
siesta:      2   -0.022840   -0.010306    0.000000
siesta:      3   -0.141916    0.092176    0.000000
siesta:      4   -0.159508   -0.040622    0.000000
siesta:      5    0.003057    0.001771   -0.000000
siesta:      6   -0.166923   -0.001499   -0.000000
siesta:      7   -0.009730    0.030562    0.000000
siesta:      8    0.104990   -0.008410    0.000000
siesta:      9    0.119092   -0.169491    0.000000
siesta:     10    0.314981    0.007197   -0.000000
siesta:     11   -0.023948    0.030060    0.000000
siesta:     12   -0.066047   -0.042936   -0.000000
siesta:     13    0.062087    0.172777   -0.000000
siesta:     14    0.027887    0.140557    0.000000
siesta:     15    0.252447    0.126993    0.000000
siesta:     16    0.105207    0.203894    0.000000
siesta:     17   -0.252113    0.134515    0.000000
siesta:     18    0.039883   -0.033638    0.000000
siesta:     19    0.005488    0.248640   -0.000000
siesta:     20   -0.020852    0.066723   -0.000000
siesta:     21    0.072158   -0.200542   -0.000000
siesta:     22    0.203533   -0.028017   -0.000000
siesta:     23   -0.021174   -0.096818    0.000000
siesta:     24    0.081106    0.102335    0.000000
siesta:     25   -0.139509    0.041713   -0.000000
siesta:     26   -0.036352    0.124961   -0.000000
siesta:     27   -0.029583   -0.014151    0.000000
siesta:     28   -0.235038   -2.167812    0.000000
siesta:     29    0.048836    0.038294   -0.000000
siesta: ----------------------------------------
siesta:    Tot    2.287094    0.596989    0.000000

siesta: Stress tensor (static) (eV/Ang**3):
siesta:     0.000235    0.000306   -0.000000
siesta:     0.000306    0.000028    0.000000
siesta:    -0.000000   -0.000000   -0.000065

siesta: Cell volume =       5041.631540 Ang**3

siesta: Pressure (static):
siesta:                Solid            Molecule  Units
siesta:          -0.00000072          0.00000274  Ry/Bohr**3
siesta:          -0.00006607          0.00025127  eV/Ang**3
siesta:          -0.10585826          0.40258684  kBar
(Free)E+ p_basis*V_orbitals  =       -4127.082416
(Free)Eharris+ p_basis*V_orbitals  =       -4127.082416
     spin moment: S , {S} =    0.00000   0.00000  -0.00000   0.00000

siesta: Electric dipole (a.u.)  =    1.458505    0.051702   -0.000000
siesta: Electric dipole (Debye) =    3.707151    0.131412   -0.000000

cite: Please see "GC.bib" for an exhaustive BiBTeX file.
cite: Please clearly indicate Siesta version in published work: v4.1.5-1-g384057250
cite: This calculation has made use of the following articles
cite: which are encouraged to be cited in a published work.
        Primary SIESTA paper
          DOI: www.doi.org/10.1088/0953-8984/14/11/302
        Spin-orbit coupling (on-site approximation)
          DOI: www.doi.org/10.1088/0953-8984/19/19/489001


WARNING: alloc-realloc-dealloc name mismatch
         Name: atomlist isa
         Size:              -116. Bytes
         Node:     0
         Subsequent mismatches will not be reported
>> End of run:  22-MAY-2023  17:50:54
Job completed
