Siesta Version  : v4.1.5-1-g384057250
Architecture    : gcc
Compiler version: GNU Fortran (Debian 10.2.1-6) 10.2.1 20210110
Compiler flags  : mpifort -O2 -fPIC -ftree-vectorize -fallow-argument-mismatch
PP flags        : -DFC_HAVE_ABORT -DMPI -DSIESTA__FLOOK -DSIESTA__METIS -DSIESTA__MUMPS -DCDF -DNCDF -DNCDF_4 -DNCDF_PARALLEL -DSIESTA__MRRR -DSIESTA__ELPA
Libraries       : libncdf.a libfdict.a  -lflookall -ldl -lnetcdff -lnetcdf -lhdf5_hl -lhdf5 -lhdf5_fortran -lz -lscalapack-openmpi -lopenblas -lmetis -lzmumps -lcmumps -ldmumps -lmumps_common -lpord -lsmumps -lesmumps -lscotch -lscotcherr -fopenmp -lelpa
PARALLEL version
NetCDF support
NetCDF-4 support
NetCDF-4 MPI-IO support
METIS ordering support
Lua support

* Running on 6 nodes in parallel
>> Start of run:  22-MAY-2023   9:45:28

                           ***********************       
                           *  WELCOME TO SIESTA  *       
                           ***********************       

reinit: Reading from standard input
reinit: Dumped input in INPUT_TMP.31285
************************** Dump of input data file ****************************
SystemLabel      AT
NumberOfAtoms    30
NumberOfSpecies  4
%block ChemicalSpeciesLabel
    1    1  H
    2    7  N
    3   14  Si
    4    8  O
%endblock ChemicalSpeciesLabel
# Single point calculation
MD.TypeOfRun                CG
MD.Steps                    0
SCF.MustConverge            F # In case it does not. There can be 2 very close atoms
AtomicCoordinatesFormat NotScaledCartesianAng
%block AtomicCoordinatesAndAtomicSpecies
2.582377650    -5.776830440   0.000000000       1
1.654759240    -5.269361980   0.000000000       2
0.063128840    -6.101704590   0.000000000       3
0.119223240    -7.596849500   0.000000000       1
-1.376892050   -5.182603740   0.000000000       2
-0.824371900   -3.460866440   0.000000000       3
-1.170571480   -1.270002100   0.000000000       3
-2.706933680   -0.417515780   0.000000000       2
-2.754569660   0.634858620    0.000000000       1
-3.637675640   -0.909967860   0.000000000       1
0.218091790    -0.234193970   0.000000000       2
1.872004100    -0.697162300   0.000000000       3
2.828001130    0.461464770    0.000000000       1
2.648150080    -2.255024470   0.000000000       2
1.391921380    -3.454727220   0.000000000       3
1.895639493    4.965504422    0.000000000       2
0.568267973    6.175708722    0.000000000       3
1.208269243    7.537026962    0.000000000       1
-1.517477967   5.505177372    0.000000000       3
-3.547040567   6.635293562    0.000000000       3
-3.392804797   7.795523772    0.940305280       1
-4.532975287   5.613372942    0.512613700       1
-3.963255527   7.111519412    -1.366678340      1
-1.450982547   3.231200752    0.000000000       3
-2.490031277   2.038141252    0.000000000       4
0.206009033    2.597225562    0.000000000       2
0.187991663    1.534780732    0.000000000       1
1.829612103    3.194295772    0.000000000       3
3.024628273    2.179870572    0.000000000       4
2.895676863    5.311011522    0.000000000       1
%endblock AtomicCoordinatesAndAtomicSpecies
%include ../../../Defaults.fdf
************************** End of input data file *****************************

reinit: -----------------------------------------------------------------------
reinit: System Name: 
reinit: -----------------------------------------------------------------------
reinit: System Label: AT
reinit: -----------------------------------------------------------------------

initatom: Reading input for the pseudopotentials and atomic orbitals ----------
Species number:   1 Atomic number:    1 Label: H
Species number:   2 Atomic number:    7 Label: N
Species number:   3 Atomic number:   14 Label: Si
Species number:   4 Atomic number:    8 Label: O

Ground state valence configuration:   1s01
Reading pseudopotential information in formatted form from H.psf

Pseudopotential generated from a relativistic atomic calculation

Valence configuration for pseudopotential generation:
1s( 1.00) rc: 0.01
2p( 0.00) rc: 0.60
3d( 0.00) rc: 1.99
4f( 0.00) rc: 2.49
Ground state valence configuration:   2s02  2p03
Reading pseudopotential information in formatted form from N.psf

Pseudopotential generated from a relativistic atomic calculation

Valence configuration for pseudopotential generation:
2s( 2.00) rc: 0.94
2p( 3.00) rc: 0.59
3d( 0.00) rc: 3.46
4f( 0.00) rc: 2.47
Ground state valence configuration:   3s02  3p02
Reading pseudopotential information in formatted form from Si.psf

Pseudopotential generated from a relativistic atomic calculation

Valence configuration for pseudopotential generation:
3s( 2.00) rc: 1.67
3p( 2.00) rc: 2.04
3d( 0.00) rc: 2.89
4f( 0.00) rc: 2.49
Ground state valence configuration:   2s02  2p04
Reading pseudopotential information in formatted form from O.psf

Pseudopotential generated from a relativistic atomic calculation

Valence configuration for pseudopotential generation:
2s( 2.00) rc: 0.45
2p( 4.00) rc: 0.92
3d( 0.00) rc: 2.24
4f( 0.00) rc: 0.25
For H, standard SIESTA heuristics set lmxkb to 2
 (one more than the basis l, including polarization orbitals).
Use PS.lmax or PS.KBprojectors blocks to override.
For N, standard SIESTA heuristics set lmxkb to 3
 (one more than the basis l, including polarization orbitals).
Use PS.lmax or PS.KBprojectors blocks to override.
For Si, standard SIESTA heuristics set lmxkb to 3
 (one more than the basis l, including polarization orbitals).
Use PS.lmax or PS.KBprojectors blocks to override.
For O, standard SIESTA heuristics set lmxkb to 3
 (one more than the basis l, including polarization orbitals).
Use PS.lmax or PS.KBprojectors blocks to override.

<basis_specs>
===============================================================================
H                    Z=   1    Mass=  1.0100        Charge= 0.17977+309
Lmxo=0 Lmxkb= 2    BasisType=split      Semic=F
L=0  Nsemic=0  Cnfigmx=1
          i=1  nzeta=2  polorb=1  (1s)
            splnorm:   0.62000    
               vcte:    0.0000    
               rinn:    0.0000    
               qcoe:    0.0000    
               qyuk:    0.0000    
               qwid:   0.10000E-01
                rcs:    0.0000      0.0000    
            lambdas:    1.0000      1.0000    
-------------------------------------------------------------------------------
L=0  Nkbl=1  erefs: 0.17977+309
L=1  Nkbl=1  erefs: 0.17977+309
L=2  Nkbl=1  erefs: 0.17977+309
===============================================================================
</basis_specs>

atom: Called for H                     (Z =   1)

read_vps: Pseudopotential generation method:
read_vps: ATM4.2.7  Troullier-Martins                       
Valence charge for ps generation:    1.00000

xc_check: Exchange-correlation functional:
xc_check: GGA Perdew, Burke & Ernzerhof 1996
V l=0 = -2*Zval/r beyond r=  0.0098
V l=1 = -2*Zval/r beyond r=  0.5817
V l=2 = -2*Zval/r beyond r=  1.9372
All V_l potentials equal beyond r=  1.9372
This should be close to max(r_c) in ps generation
All pots = -2*Zval/r beyond r=  1.9372

VLOCAL1: 99.0% of the norm of Vloc inside     11.567 Ry
VLOCAL1: 99.9% of the norm of Vloc inside     26.362 Ry
atom: Maximum radius for 4*pi*r*r*local-pseudopot. charge    2.25106
atom: Maximum radius for r*vlocal+2*Zval:    1.91306
GHOST: No ghost state for L =  0
GHOST: No ghost state for L =  1
GHOST: No ghost state for L =  2

KBgen: Kleinman-Bylander projectors: 
   l= 0   rc=  2.036604   el= -0.477180   Ekb= -6.081590   kbcos= -0.277285
   l= 1   rc=  2.195416   el=  0.001076   Ekb= -0.926943   kbcos= -0.034643
   l= 2   rc=  2.251056   el=  0.002010   Ekb= -0.130941   kbcos= -0.009788

KBgen: Total number of Kleinman-Bylander projectors:    9
atom: -------------------------------------------------------------------------

atom: SANKEY-TYPE ORBITALS:
atom: Selected multiple-zeta basis: split     

SPLIT: Orbitals with angular momentum L= 0

SPLIT: Basis orbitals for state 1s

SPLIT: PAO cut-off radius determined from an
SPLIT: energy shift=  0.002000 Ry

   izeta = 1
                 lambda =    1.000000
                     rc =    6.518340
                 energy =   -0.475305
                kinetic =    0.912139
    potential(screened) =   -1.387444
       potential(ionic) =   -1.907295

   izeta = 2
                 rmatch =    2.141150
              splitnorm =    0.620000
                 energy =    0.566467
                kinetic =    3.772856
    potential(screened) =   -3.206389
       potential(ionic) =   -3.759093

POLgen: Perturbative polarization orbital with L=  1

POLgen: Polarization orbital for state 1s

   izeta = 1
                     rc =    6.518340
                 energy =    0.533861
                kinetic =    1.121086
    potential(screened) =   -0.587225
       potential(ionic) =   -1.053027
atom: Total number of Sankey-type orbitals:  5

atm_pop: Valence configuration (for local Pseudopot. screening):
 1s( 1.00)                                                            
Vna: chval, zval:    1.00000   1.00000

Vna:  Cut-off radius for the neutral-atom potential:   6.518340

atom: _________________________________________________________________________

<basis_specs>
===============================================================================
N                    Z=   7    Mass=  14.010        Charge= 0.17977+309
Lmxo=1 Lmxkb= 3    BasisType=split      Semic=F
L=0  Nsemic=0  Cnfigmx=2
          i=1  nzeta=2  polorb=0  (2s)
            splnorm:   0.28000    
               vcte:    0.0000    
               rinn:    0.0000    
               qcoe:    0.0000    
               qyuk:    0.0000    
               qwid:   0.10000E-01
                rcs:    0.0000      0.0000    
            lambdas:    1.0000      1.0000    
L=1  Nsemic=0  Cnfigmx=2
          i=1  nzeta=2  polorb=1  (2p)
            splnorm:   0.28000    
               vcte:    0.0000    
               rinn:    0.0000    
               qcoe:    0.0000    
               qyuk:    0.0000    
               qwid:   0.10000E-01
                rcs:    0.0000      0.0000    
            lambdas:    1.0000      1.0000    
-------------------------------------------------------------------------------
L=0  Nkbl=1  erefs: 0.17977+309
L=1  Nkbl=1  erefs: 0.17977+309
L=2  Nkbl=1  erefs: 0.17977+309
L=3  Nkbl=1  erefs: 0.17977+309
===============================================================================
</basis_specs>

atom: Called for N                     (Z =   7)

read_vps: Pseudopotential generation method:
read_vps: ATM4.2.7  Troullier-Martins                       
Valence charge for ps generation:    5.00000

xc_check: Exchange-correlation functional:
xc_check: GGA Perdew, Burke & Ernzerhof 1996
V l=0 = -2*Zval/r beyond r=  1.2889
V l=1 = -2*Zval/r beyond r=  1.2889
V l=2 = -2*Zval/r beyond r=  3.4178
V l=3 = -2*Zval/r beyond r=  2.4084
All V_l potentials equal beyond r=  3.3753
This should be close to max(r_c) in ps generation
All pots = -2*Zval/r beyond r=  3.4178

VLOCAL1: 99.0% of the norm of Vloc inside      3.810 Ry
VLOCAL1: 99.9% of the norm of Vloc inside      8.683 Ry
atom: Maximum radius for 4*pi*r*r*local-pseudopot. charge    4.02088
atom: Maximum radius for r*vlocal+2*Zval:    3.54838
GHOST: No ghost state for L =  0
GHOST: No ghost state for L =  1
GHOST: No ghost state for L =  2
GHOST: No ghost state for L =  3

KBgen: Kleinman-Bylander projectors: 
   l= 0   rc=  3.417763   el= -1.365098   Ekb= -4.433130   kbcos= -0.707855
   l= 1   rc=  3.375302   el= -0.521201   Ekb=-13.264039   kbcos= -0.535594
   l= 2   rc=  3.872880   el=  0.001991   Ekb= -0.641094   kbcos= -0.062456
   l= 3   rc=  3.970931   el=  0.003093   Ekb= -0.474517   kbcos= -0.018236

KBgen: Total number of Kleinman-Bylander projectors:   16
atom: -------------------------------------------------------------------------

atom: SANKEY-TYPE ORBITALS:
atom: Selected multiple-zeta basis: split     

SPLIT: Orbitals with angular momentum L= 0

SPLIT: Basis orbitals for state 2s

SPLIT: PAO cut-off radius determined from an
SPLIT: energy shift=  0.002000 Ry

   izeta = 1
                 lambda =    1.000000
                     rc =    4.730425
                 energy =   -1.363399
                kinetic =    1.245246
    potential(screened) =   -2.608645
       potential(ionic) =   -8.121105

   izeta = 2
                 rmatch =    2.531849
              splitnorm =    0.280000
                 energy =   -0.959908
                kinetic =    2.409435
    potential(screened) =   -3.369343
       potential(ionic) =   -9.427975

SPLIT: Orbitals with angular momentum L= 1

SPLIT: Basis orbitals for state 2p

SPLIT: PAO cut-off radius determined from an
SPLIT: energy shift=  0.002000 Ry

   izeta = 1
                 lambda =    1.000000
                     rc =    5.924108
                 energy =   -0.519262
                kinetic =    3.672940
    potential(screened) =   -4.192202
       potential(ionic) =   -9.518354

   izeta = 2
                 rmatch =    2.531849
              splitnorm =    0.280000
                 energy =   -0.104258
                kinetic =    6.807538
    potential(screened) =   -6.911796
       potential(ionic) =  -13.149920

POLgen: Perturbative polarization orbital with L=  2

POLgen: Polarization orbital for state 2p

   izeta = 1
                     rc =    5.924108
                 energy =    1.427508
                kinetic =    2.872379
    potential(screened) =   -1.444871
       potential(ionic) =   -5.563644
atom: Total number of Sankey-type orbitals: 13

atm_pop: Valence configuration (for local Pseudopot. screening):
 2s( 2.00)                                                            
 2p( 3.00)                                                            
Vna: chval, zval:    5.00000   5.00000

Vna:  Cut-off radius for the neutral-atom potential:   5.924108

atom: _________________________________________________________________________

<basis_specs>
===============================================================================
Si                   Z=  14    Mass=  28.090        Charge= 0.17977+309
Lmxo=1 Lmxkb= 3    BasisType=split      Semic=F
L=0  Nsemic=0  Cnfigmx=3
          i=1  nzeta=2  polorb=0  (3s)
            splnorm:   0.28000    
               vcte:    0.0000    
               rinn:    0.0000    
               qcoe:    0.0000    
               qyuk:    0.0000    
               qwid:   0.10000E-01
                rcs:    0.0000      0.0000    
            lambdas:    1.0000      1.0000    
L=1  Nsemic=0  Cnfigmx=3
          i=1  nzeta=2  polorb=1  (3p)
            splnorm:   0.28000    
               vcte:    0.0000    
               rinn:    0.0000    
               qcoe:    0.0000    
               qyuk:    0.0000    
               qwid:   0.10000E-01
                rcs:    0.0000      0.0000    
            lambdas:    1.0000      1.0000    
-------------------------------------------------------------------------------
L=0  Nkbl=1  erefs: 0.17977+309
L=1  Nkbl=1  erefs: 0.17977+309
L=2  Nkbl=1  erefs: 0.17977+309
L=3  Nkbl=1  erefs: 0.17977+309
===============================================================================
</basis_specs>

atom: Called for Si                    (Z =  14)

read_vps: Pseudopotential generation method:
read_vps: ATM4.2.7  Troullier-Martins                       
Valence charge for ps generation:    4.00000

xc_check: Exchange-correlation functional:
xc_check: GGA Perdew, Burke & Ernzerhof 1996
V l=0 = -2*Zval/r beyond r=  2.7826
V l=1 = -2*Zval/r beyond r=  2.7826
V l=2 = -2*Zval/r beyond r=  2.9253
V l=3 = -2*Zval/r beyond r=  2.7826
All V_l potentials equal beyond r=  2.8530
This should be close to max(r_c) in ps generation
All pots = -2*Zval/r beyond r=  2.9253

VLOCAL1: 99.0% of the norm of Vloc inside      5.333 Ry
VLOCAL1: 99.9% of the norm of Vloc inside     12.154 Ry
atom: Maximum radius for 4*pi*r*r*local-pseudopot. charge    3.39869
atom: Maximum radius for r*vlocal+2*Zval:    2.96205
GHOST: No ghost state for L =  0
GHOST: No ghost state for L =  1
GHOST: No ghost state for L =  2
GHOST: No ghost state for L =  3

KBgen: Kleinman-Bylander projectors: 
   l= 0   rc=  3.075247   el= -0.794092   Ekb=  5.879390   kbcos=  0.167461
   l= 1   rc=  3.153101   el= -0.300068   Ekb=  2.642817   kbcos=  0.058301
   l= 2   rc=  3.273594   el=  0.001958   Ekb= -1.185135   kbcos= -0.104411
   l= 3   rc=  3.232927   el=  0.003046   Ekb= -0.497174   kbcos= -0.015889

KBgen: Total number of Kleinman-Bylander projectors:   16
atom: -------------------------------------------------------------------------

atom: SANKEY-TYPE ORBITALS:
atom: Selected multiple-zeta basis: split     

SPLIT: Orbitals with angular momentum L= 0

SPLIT: Basis orbitals for state 3s

SPLIT: PAO cut-off radius determined from an
SPLIT: energy shift=  0.002000 Ry

   izeta = 1
                 lambda =    1.000000
                     rc =    6.429618
                 energy =   -0.792283
                kinetic =    0.525293
    potential(screened) =   -1.317576
       potential(ionic) =   -3.744923

   izeta = 2
                 rmatch =    3.998416
              splitnorm =    0.280000
                 energy =   -0.583081
                kinetic =    1.069570
    potential(screened) =   -1.652651
       potential(ionic) =   -4.235185

SPLIT: Orbitals with angular momentum L= 1

SPLIT: Basis orbitals for state 3p

SPLIT: PAO cut-off radius determined from an
SPLIT: energy shift=  0.002000 Ry

   izeta = 1
                 lambda =    1.000000
                     rc =    8.464845
                 energy =   -0.298236
                kinetic =    0.785360
    potential(screened) =   -1.083596
       potential(ionic) =   -3.273779

   izeta = 2
                 rmatch =    4.587816
              splitnorm =    0.280000
                 energy =   -0.131871
                kinetic =    1.403687
    potential(screened) =   -1.535557
       potential(ionic) =   -4.015310

POLgen: Perturbative polarization orbital with L=  2

POLgen: Polarization orbital for state 3p

   izeta = 1
                     rc =    8.464845
                 energy =    0.321949
                kinetic =    1.055677
    potential(screened) =   -0.733728
       potential(ionic) =   -2.672950
atom: Total number of Sankey-type orbitals: 13

atm_pop: Valence configuration (for local Pseudopot. screening):
 3s( 2.00)                                                            
 3p( 2.00)                                                            
Vna: chval, zval:    4.00000   4.00000

Vna:  Cut-off radius for the neutral-atom potential:   8.464845

atom: _________________________________________________________________________

<basis_specs>
===============================================================================
O                    Z=   8    Mass=  16.000        Charge= 0.17977+309
Lmxo=1 Lmxkb= 3    BasisType=split      Semic=F
L=0  Nsemic=0  Cnfigmx=2
          i=1  nzeta=2  polorb=0  (2s)
            splnorm:   0.28000    
               vcte:    0.0000    
               rinn:    0.0000    
               qcoe:    0.0000    
               qyuk:    0.0000    
               qwid:   0.10000E-01
                rcs:    0.0000      0.0000    
            lambdas:    1.0000      1.0000    
L=1  Nsemic=0  Cnfigmx=2
          i=1  nzeta=2  polorb=1  (2p)
            splnorm:   0.28000    
               vcte:    0.0000    
               rinn:    0.0000    
               qcoe:    0.0000    
               qyuk:    0.0000    
               qwid:   0.10000E-01
                rcs:    0.0000      0.0000    
            lambdas:    1.0000      1.0000    
-------------------------------------------------------------------------------
L=0  Nkbl=1  erefs: 0.17977+309
L=1  Nkbl=1  erefs: 0.17977+309
L=2  Nkbl=1  erefs: 0.17977+309
L=3  Nkbl=1  erefs: 0.17977+309
===============================================================================
</basis_specs>

atom: Called for O                     (Z =   8)

read_vps: Pseudopotential generation method:
read_vps: ATM4.2.7  Troullier-Martins                       
Valence charge for ps generation:    6.00000

xc_check: Exchange-correlation functional:
xc_check: GGA Perdew, Burke & Ernzerhof 1996
V l=0 = -2*Zval/r beyond r=  1.1000
V l=1 = -2*Zval/r beyond r=  1.1000
V l=2 = -2*Zval/r beyond r=  2.2154
V l=3 = -2*Zval/r beyond r=  1.1000
All V_l potentials equal beyond r=  2.2154
This should be close to max(r_c) in ps generation
All pots = -2*Zval/r beyond r=  2.2154

VLOCAL1: 99.0% of the norm of Vloc inside      8.845 Ry
VLOCAL1: 99.9% of the norm of Vloc inside     20.157 Ry
atom: Maximum radius for 4*pi*r*r*local-pseudopot. charge    2.67231
atom: Maximum radius for r*vlocal+2*Zval:    2.32897
GHOST: No ghost state for L =  0
GHOST: No ghost state for L =  1
GHOST: No ghost state for L =  2
GHOST: No ghost state for L =  3

KBgen: Kleinman-Bylander projectors: 
   l= 0   rc=  2.243238   el= -1.759686   Ekb=**********   kbcos= -0.171774
   l= 1   rc=  2.328968   el= -0.663873   Ekb=-14.506792   kbcos= -0.519897
   l= 2   rc=  2.573941   el=  0.002031   Ekb= -1.137373   kbcos= -0.019581
   l= 3   rc=  2.606321   el=  0.003153   Ekb= -1.013546   kbcos= -0.003122

KBgen: Total number of Kleinman-Bylander projectors:   16
atom: -------------------------------------------------------------------------

atom: SANKEY-TYPE ORBITALS:
atom: Selected multiple-zeta basis: split     

SPLIT: Orbitals with angular momentum L= 0

SPLIT: Basis orbitals for state 2s

SPLIT: PAO cut-off radius determined from an
SPLIT: energy shift=  0.002000 Ry

   izeta = 1
                 lambda =    1.000000
                     rc =    4.243912
                 energy =   -1.758270
                kinetic =    3.286084
    potential(screened) =   -5.044353
       potential(ionic) =  -12.921184

   izeta = 2
                 rmatch =    2.187845
              splitnorm =    0.280000
                 energy =   -0.885018
                kinetic =    8.134434
    potential(screened) =   -9.019452
       potential(ionic) =  -17.710645

SPLIT: Orbitals with angular momentum L= 1

SPLIT: Basis orbitals for state 2p

SPLIT: PAO cut-off radius determined from an
SPLIT: energy shift=  0.002000 Ry

   izeta = 1
                 lambda =    1.000000
                     rc =    5.314825
                 energy =   -0.661986
                kinetic =    4.917472
    potential(screened) =   -5.579458
       potential(ionic) =  -13.236259

   izeta = 2
                 rmatch =    2.160663
              splitnorm =    0.280000
                 energy =   -0.068760
                kinetic =    9.183374
    potential(screened) =   -9.252135
       potential(ionic) =  -18.274251

POLgen: Perturbative polarization orbital with L=  2

POLgen: Polarization orbital for state 2p

   izeta = 1
                     rc =    5.314825
                 energy =    1.970580
                kinetic =    3.886128
    potential(screened) =   -1.915547
       potential(ionic) =   -7.749584
atom: Total number of Sankey-type orbitals: 13

atm_pop: Valence configuration (for local Pseudopot. screening):
 2s( 2.00)                                                            
 2p( 4.00)                                                            
Vna: chval, zval:    6.00000   6.00000

Vna:  Cut-off radius for the neutral-atom potential:   5.314825

atom: _________________________________________________________________________

prinput: Basis input ----------------------------------------------------------

PAO.BasisType split     

%block ChemicalSpeciesLabel
    1    1 H                       # Species index, atomic number, species label
    2    7 N                       # Species index, atomic number, species label
    3   14 Si                      # Species index, atomic number, species label
    4    8 O                       # Species index, atomic number, species label
%endblock ChemicalSpeciesLabel

%block PAO.Basis                 # Define Basis set
H                     1                    # Species label, number of l-shells
 n=1   0   2 P   1                   # n, l, Nzeta, Polarization, NzetaPol
   6.518      2.141   
   1.000      1.000   
N                     2                    # Species label, number of l-shells
 n=2   0   2                         # n, l, Nzeta 
   4.730      2.532   
   1.000      1.000   
 n=2   1   2 P   1                   # n, l, Nzeta, Polarization, NzetaPol
   5.924      2.532   
   1.000      1.000   
Si                    2                    # Species label, number of l-shells
 n=3   0   2                         # n, l, Nzeta 
   6.430      3.998   
   1.000      1.000   
 n=3   1   2 P   1                   # n, l, Nzeta, Polarization, NzetaPol
   8.465      4.588   
   1.000      1.000   
O                     2                    # Species label, number of l-shells
 n=2   0   2                         # n, l, Nzeta 
   4.244      2.188   
   1.000      1.000   
 n=2   1   2 P   1                   # n, l, Nzeta, Polarization, NzetaPol
   5.315      2.161   
   1.000      1.000   
%endblock PAO.Basis

prinput: ----------------------------------------------------------------------

Dumping basis to NetCDF file H.ion.nc
Dumping basis to NetCDF file N.ion.nc
Dumping basis to NetCDF file Si.ion.nc
Dumping basis to NetCDF file O.ion.nc
coor:   Atomic-coordinates input format  =     Cartesian coordinates
coor:                                          (in Angstroms)

siesta: Atomic coordinates (Bohr) and species
siesta:      4.87999 -10.91663   0.00000  1        1
siesta:      3.12704  -9.95765   0.00000  2        2
siesta:      0.11930 -11.53056   0.00000  3        3
siesta:      0.22530 -14.35597   0.00000  1        4
siesta:     -2.60195  -9.79371   0.00000  2        5
siesta:     -1.55784  -6.54009   0.00000  3        6
siesta:     -2.21206  -2.39996   0.00000  3        7
siesta:     -5.11537  -0.78899   0.00000  2        8
siesta:     -5.20538   1.19971   0.00000  1        9
siesta:     -6.87421  -1.71959   0.00000  1       10
siesta:      0.41213  -0.44256   0.00000  2       11
siesta:      3.53758  -1.31745   0.00000  3       12
siesta:      5.34415   0.87204   0.00000  1       13
siesta:      5.00428  -4.26138   0.00000  2       14
siesta:      2.63035  -6.52849   0.00000  3       15
siesta:      3.58224   9.38345   0.00000  2       16
siesta:      1.07387  11.67040   0.00000  3       17
siesta:      2.28330  14.24292   0.00000  1       18
siesta:     -2.86762  10.40328   0.00000  3       19
siesta:     -6.70294  12.53889   0.00000  3       20
siesta:     -6.41147  14.73141   1.77692  1       21
siesta:     -8.56609  10.60774   0.96870  1       22
siesta:     -7.48947  13.43883  -2.58265  1       23
siesta:     -2.74196   6.10609   0.00000  3       24
siesta:     -4.70548   3.85153   0.00000  4       25
siesta:      0.38930   4.90805   0.00000  2       26
siesta:      0.35525   2.90032   0.00000  1       27
siesta:      3.45747   6.03635   0.00000  3       28
siesta:      5.71572   4.11936   0.00000  4       29
siesta:      5.47204  10.03636   0.00000  1       30

siesta: Automatic unit cell vectors (Ang):
siesta:   15.815632    0.000000    0.000000
siesta:    0.000000   24.520193    0.000000
siesta:    0.000000    0.000000   10.224979

siesta: System type = molecule  

initatomlists: Number of atoms, orbitals, and projectors:     30   302   403

siesta: ******************** Simulation parameters ****************************
siesta:
siesta: The following are some of the parameters of the simulation.
siesta: A complete list of the parameters used, including default values,
siesta: can be found in file out.fdf
siesta:
redata: Spin configuration                          = spin-orbit
redata: Number of spin components                   = 8
redata: Time-Reversal Symmetry                      = F
redata: Spin spiral                                 = F
############################################################
This spin-orbit implementation uses a local approximation.
From 4.2 and onwards the full non-local approximation is implemented
You are strongly advised to use >=4.2 versions!
############################################################
redata: Long output                                 =   F
redata: Number of Atomic Species                    =        4
redata: Charge density info will appear in .RHO file
redata: Write Mulliken Pop.                         = Atomic and Orbital charges
redata: Matel table size (NRTAB)                    =     1024
redata: Mesh Cutoff                                 =   340.0000 Ry
redata: Net charge of the system                    =     0.0000 |e|
redata: Min. number of SCF Iter                     =        1
redata: Max. number of SCF Iter                     =      200
redata: SCF mix quantity                            = Hamiltonian
redata: Mix DM or H after convergence               =   F
redata: Recompute H after scf cycle                 =   F
redata: Mix DM in first SCF step                    =   T
redata: Write Pulay info on disk                    =   F
redata: New DM Occupancy tolerance                  = 0.000000000001
redata: No kicks to SCF
redata: DM Mixing Weight for Kicks                  =     0.5000
redata: Require Harris convergence for SCF          =   F
redata: Harris energy tolerance for SCF             =     0.000100 eV
redata: Require DM convergence for SCF              =   T
redata: DM tolerance for SCF                        =     0.000008
redata: Require EDM convergence for SCF             =   F
redata: EDM tolerance for SCF                       =     0.001000 eV
redata: Require H convergence for SCF               =   T
redata: Hamiltonian tolerance for SCF               =     0.000001 eV
redata: Require (free) Energy convergence for SCF   =   F
redata: (free) Energy tolerance for SCF             =     0.000100 eV
redata: Using Saved Data (generic)                  =   F
redata: Use continuation files for DM               =   F
redata: Neglect nonoverlap interactions             =   F
redata: Method of Calculation                       = Diagonalization
redata: Electronic Temperature                      =   299.9978 K
redata: Fix the spin of the system                  =   F
redata: Dynamics option                             = Single-point calculation
mix.SCF: Pulay mixing                            = Pulay
mix.SCF:    Variant                              = stable
mix.SCF:    History steps                        = 6
mix.SCF:    Linear mixing weight                 =     0.250000
mix.SCF:    Mixing weight                        =     0.250000
mix.SCF:    SVD condition                        = 0.1000E-07
mix.SCF:    Restart steps                        = 24
mix.SCF:    Restart save steps                   = 3
mix.SCF: Spin-component mixing                   all
redata: Save all siesta data in one NC              =   F
redata: ***********************************************************************

%block SCF.Mixers
  Pulay
%endblock SCF.Mixers

%block SCF.Mixer.Pulay
  # Mixing method
  method pulay
  variant stable

  # Mixing options
  weight 0.2500
  weight.linear 0.2500
  history 6
  restart 24
  restart.save 3
%endblock SCF.Mixer.Pulay

DM_history_depth set to one: no extrapolation allowed by default for geometry relaxation
Size of DM history Fstack: 1
Total number of electrons:    98.000000
Total ionic charge:    98.000000

* ProcessorY, Blocksize:    2  24


* Orbital distribution balance (max,min):    62    48


Time-reversal symmetry not used.

siesta: k-grid: Number of k-points =     1
siesta: k-grid: Cutoff (effective) =     5.112 Ang
siesta: k-grid: Supercell and displacements
siesta: k-grid:    1   0   0      0.000
siesta: k-grid:    0   1   0      0.000
siesta: k-grid:    0   0   1      0.000

diag: Algorithm                                     = ELPA-1stage
diag: Parallel over k                               =   F
diag: Use parallel 2D distribution                  =   T
diag: Parallel block-size                           = 24
diag: Parallel distribution                         =     2 x     3
diag: Used triangular part                          = Lower
diag: Absolute tolerance                            =  0.100E-15
diag: Orthogonalization factor                      =  0.100E-05
diag: Memory factor                                 =  1.0000


ts: **************************************************************
ts: Save H and S matrices                           =    F
ts: Save DM and EDM matrices                        =    F
ts: Only save the overlap matrix S                  =    F
ts: **************************************************************

************************ Begin: TS CHECKS AND WARNINGS ************************
************************ End: TS CHECKS AND WARNINGS **************************


                     ====================================
                        Single-point calculation
                     ====================================

outcoor: Atomic coordinates (Ang):                          
    2.58237765   -5.77683044    0.00000000   1       1  H
    1.65475924   -5.26936198    0.00000000   2       2  N
    0.06312884   -6.10170459    0.00000000   3       3  Si
    0.11922324   -7.59684950    0.00000000   1       4  H
   -1.37689205   -5.18260374    0.00000000   2       5  N
   -0.82437190   -3.46086644    0.00000000   3       6  Si
   -1.17057148   -1.27000210    0.00000000   3       7  Si
   -2.70693368   -0.41751578    0.00000000   2       8  N
   -2.75456966    0.63485862    0.00000000   1       9  H
   -3.63767564   -0.90996786    0.00000000   1      10  H
    0.21809179   -0.23419397    0.00000000   2      11  N
    1.87200410   -0.69716230    0.00000000   3      12  Si
    2.82800113    0.46146477    0.00000000   1      13  H
    2.64815008   -2.25502447    0.00000000   2      14  N
    1.39192138   -3.45472722    0.00000000   3      15  Si
    1.89563949    4.96550442    0.00000000   2      16  N
    0.56826797    6.17570872    0.00000000   3      17  Si
    1.20826924    7.53702696    0.00000000   1      18  H
   -1.51747797    5.50517737    0.00000000   3      19  Si
   -3.54704057    6.63529356    0.00000000   3      20  Si
   -3.39280480    7.79552377    0.94030528   1      21  H
   -4.53297529    5.61337294    0.51261370   1      22  H
   -3.96325553    7.11151941   -1.36667834   1      23  H
   -1.45098255    3.23120075    0.00000000   3      24  Si
   -2.49003128    2.03814125    0.00000000   4      25  O
    0.20600903    2.59722556    0.00000000   2      26  N
    0.18799166    1.53478073    0.00000000   1      27  H
    1.82961210    3.19429577    0.00000000   3      28  Si
    3.02462827    2.17987057    0.00000000   4      29  O
    2.89567686    5.31101152    0.00000000   1      30  H

outcell: Unit cell vectors (Ang):
       15.815632    0.000000    0.000000
        0.000000   24.520193    0.000000
        0.000000    0.000000   10.224979

outcell: Cell vector modules (Ang)   :   15.815632   24.520193   10.224979
outcell: Cell angles (23,13,12) (deg):     90.0000     90.0000     90.0000
outcell: Cell volume (Ang**3)        :   3965.2711
<dSpData1D:S at geom step 0
  <sparsity:sparsity for geom step 0
    nrows_g=302 nrows=62 sparsity=.1536 nnzs=14010, refcount: 8>
  <dData1D:(new from dSpData1D) n=14010, refcount: 1>
refcount: 1>
new_DM -- step:     1
Initializing Density Matrix...
DM filled with atomic data:
<dSpData2D:DM initialized from atoms
  <sparsity:sparsity for geom step 0
    nrows_g=302 nrows=62 sparsity=.1536 nnzs=14010, refcount: 9>
  <dData2D:DM n=14010 m=8, refcount: 1>
refcount: 1>
     spin moment: S , {S} =   56.00000   0.00000   0.00000  56.00000
No. of atoms with KB's overlaping orbs in proc 0. Max # of overlaps:      24     207

Initializing spin-orbit part of the Hamiltonian
  Adding spin-orbit effects for H 
  Adding spin-orbit effects for N 
  Adding spin-orbit effects for Si
  Adding spin-orbit effects for O 


New grid distribution:   1
           1       1:   90    1:   72    1:   20
           2       1:   90    1:   72   21:   40
           3       1:   90    1:   72   41:   60
           4       1:   90   73:  144    1:   20
           5       1:   90   73:  144   21:   40
           6       1:   90   73:  144   41:   60

InitMesh: MESH =   180 x   288 x   120 =     6220800
InitMesh: (bp) =    90 x   144 x    60 =      777600
InitMesh: Mesh cutoff (required, used) =   340.000   357.992 Ry
ExtMesh (bp) on 0 =   194 x   180 x   128 =     4469760
New grid distribution:   2
           1      14:   90   19:   39    1:   60
           2       1:   12   40:  144    1:   60
           3       1:   13    1:   39    1:   60
           4      13:   90   40:  123    1:   60
           5      13:   90  124:  144    1:   60
           6      14:   90    1:   18    1:   60
New grid distribution:   3
           1       1:   18   53:  144    1:   60
           2      24:   90   29:   52    1:   60
           3       1:   23    1:   52    1:   60
           4      19:   90   53:  118    1:   60
           5      24:   90    1:   28    1:   60
           6      19:   90  119:  144    1:   60
Setting up quadratic distribution...
ExtMesh (bp) on 0 =   181 x   129 x   168 =     3922632
PhiOnMesh: Number of (b)points on node 0 =                97020
PhiOnMesh: nlist on node 0 =              1855653

stepf: Fermi-Dirac step function

siesta: Program's energy decomposition (eV):
siesta: Ebs     =      -608.301527
siesta: Eions   =      3553.971015
siesta: Ena     =       377.672933
siesta: Ekin    =      3183.327655
siesta: Enl     =     -2997.603224
siesta: Eso     =        -0.003988
siesta: Edftu   =         0.000000
siesta: DEna    =       131.297980
siesta: DUscf   =        74.266444
siesta: DUext   =         0.000000
siesta: Exc     =     -1172.268963
siesta: eta*DQ  =         0.000000
siesta: Emadel  =         0.000000
siesta: Emeta   =         0.000000
siesta: Emolmec =         0.000000
siesta: Ekinion =         0.000000
siesta: Eharris =     -3883.549804
siesta: Etot    =     -3957.282178
siesta: FreeEng =     -3957.286815

        iscf     Eharris(eV)        E_KS(eV)     FreeEng(eV)     dDmax    Ef(eV) dHmax(eV)
   scf:    1    -3883.549804    -3957.282178    -3957.286815  0.967121 -4.949111 20.411689
     spin moment: S , {S} =    2.03590   0.00004   0.00000   2.03590
timer: Routine,Calls,Time,% = IterSCF        1       5.629  21.02
   scf:    2    -4001.438426    -3991.107421    -3991.107426  0.451222 -4.377170  9.719945
     spin moment: S , {S} =    2.00012  -0.00000   0.00003   2.00012
   scf:    3    -3994.330816    -3996.033067    -3996.034989  0.416689 -4.224999  7.299477
     spin moment: S , {S} =    0.01218   0.00001  -0.00000   0.01218
   scf:    4    -3998.580926    -3997.443572    -3997.443574  0.024630 -3.852099  5.435910
     spin moment: S , {S} =    0.00010   0.00001  -0.00000   0.00010
   scf:    5    -3999.176025    -3998.354567    -3998.356792  0.034072 -3.815468  2.750354
     spin moment: S , {S} =    0.01458   0.00001  -0.00000   0.01458
   scf:    6    -3998.285254    -3998.472043    -3998.497447  0.101731 -3.846326  1.445951
     spin moment: S , {S} =    0.38474   0.00002   0.00003   0.38474
   scf:    7    -3998.731746    -3998.742647    -3998.742731  0.096115 -3.877799  0.834588
     spin moment: S , {S} =    0.00033   0.00000  -0.00000   0.00033
   scf:    8    -3998.850022    -3998.795379    -3998.795562  0.010564 -3.907406  0.535094
     spin moment: S , {S} =    0.00027   0.00000  -0.00000   0.00027
   scf:    9    -3998.837937    -3998.817041    -3998.817779  0.005943 -3.916556  0.337336
     spin moment: S , {S} =    0.00022   0.00000  -0.00000   0.00022
   scf:   10    -3998.846055    -3998.833040    -3998.836342  0.008788 -3.929400  0.089360
     spin moment: S , {S} =    0.00069   0.00000   0.00000  -0.00069
   scf:   11    -3998.844941    -3998.838616    -3998.841843  0.005033 -3.930779  0.066129
     spin moment: S , {S} =    0.00128   0.00000   0.00000  -0.00128
   scf:   12    -3998.847031    -3998.842402    -3998.845386  0.005734 -3.930071  0.040508
     spin moment: S , {S} =    0.00125   0.00000   0.00000  -0.00125
   scf:   13    -3998.844764    -3998.843384    -3998.846544  0.004291 -3.929587  0.028445
     spin moment: S , {S} =    0.00133   0.00000   0.00000  -0.00133
   scf:   14    -3998.844566    -3998.843958    -3998.846815  0.002391 -3.927901  0.022904
     spin moment: S , {S} =    0.00073   0.00000   0.00000  -0.00073
   scf:   15    -3998.843836    -3998.843894    -3998.846913  0.001456 -3.927736  0.013632
     spin moment: S , {S} =    0.00053   0.00000   0.00000  -0.00053
   scf:   16    -3998.844090    -3998.843988    -3998.846958  0.001061 -3.927397  0.007409
     spin moment: S , {S} =    0.00028   0.00000   0.00000  -0.00028
   scf:   17    -3998.844032    -3998.844006    -3998.846980  0.000966 -3.927366  0.004749
     spin moment: S , {S} =    0.00010   0.00000   0.00000  -0.00010
   scf:   18    -3998.844023    -3998.844013    -3998.846987  0.000537 -3.927457  0.002181
     spin moment: S , {S} =    0.00003   0.00000   0.00000  -0.00003
   scf:   19    -3998.844019    -3998.844016    -3998.846988  0.000313 -3.927537  0.001092
     spin moment: S , {S} =    0.00000  -0.00000   0.00000  -0.00000
   scf:   20    -3998.844018    -3998.844017    -3998.846989  0.000102 -3.927573  0.000618
     spin moment: S , {S} =    0.00000  -0.00000   0.00000  -0.00000
   scf:   21    -3998.844016    -3998.844016    -3998.846989  0.000055 -3.927569  0.000438
     spin moment: S , {S} =    0.00000  -0.00000   0.00000  -0.00000
   scf:   22    -3998.844017    -3998.844017    -3998.846989  0.000060 -3.927568  0.000264
     spin moment: S , {S} =    0.00001  -0.00000   0.00000  -0.00001
   scf:   23    -3998.844017    -3998.844017    -3998.846989  0.000023 -3.927559  0.000163
     spin moment: S , {S} =    0.00000  -0.00000   0.00000  -0.00000
   scf:   24    -3998.844017    -3998.844017    -3998.846989  0.000014 -3.927559  0.000093
     spin moment: S , {S} =    0.00000  -0.00000   0.00000  -0.00000
mix: Pulay -- resetting history
   scf:   25    -3998.844017    -3998.844017    -3998.846989  0.000007 -3.927562  0.000071
     spin moment: S , {S} =    0.00000  -0.00000   0.00000  -0.00000
   scf:   26    -3998.844017    -3998.844017    -3998.846989  0.000004 -3.927563  0.000061
     spin moment: S , {S} =    0.00000  -0.00000   0.00000   0.00000
   scf:   27    -3998.844017    -3998.844017    -3998.846989  0.000005 -3.927563  0.000036
     spin moment: S , {S} =    0.00000  -0.00000   0.00000   0.00000
   scf:   28    -3998.844017    -3998.844017    -3998.846989  0.000003 -3.927562  0.000022
     spin moment: S , {S} =    0.00000  -0.00000   0.00000   0.00000
   scf:   29    -3998.844017    -3998.844017    -3998.846989  0.000002 -3.927562  0.000016
     spin moment: S , {S} =    0.00000  -0.00000   0.00000   0.00000
   scf:   30    -3998.844017    -3998.844017    -3998.846989  0.000001 -3.927562  0.000010
     spin moment: S , {S} =    0.00000  -0.00000   0.00000   0.00000
   scf:   31    -3998.844017    -3998.844017    -3998.846989  0.000001 -3.927562  0.000006
     spin moment: S , {S} =    0.00000  -0.00000   0.00000   0.00000
   scf:   32    -3998.844017    -3998.844017    -3998.846989  0.000001 -3.927562  0.000003
     spin moment: S , {S} =    0.00000  -0.00000   0.00000   0.00000
   scf:   33    -3998.844017    -3998.844017    -3998.846989  0.000000 -3.927562  0.000002
     spin moment: S , {S} =    0.00000  -0.00000   0.00000   0.00000
   scf:   34    -3998.844017    -3998.844017    -3998.846989  0.000000 -3.927562  0.000001
     spin moment: S , {S} =    0.00000  -0.00000   0.00000   0.00000
   scf:   35    -3998.844017    -3998.844017    -3998.846989  0.000000 -3.927562  0.000001
     spin moment: S , {S} =    0.00000  -0.00000   0.00000   0.00000

SCF Convergence by DM+H criterion
max |DM_out - DM_in|         :     0.0000001854
max |H_out - H_in|      (eV) :     0.0000008410
SCF cycle converged after 35 iterations

Using DM_out to compute the final energy and forces
No. of atoms with KB's overlaping orbs in proc 0. Max # of overlaps:      24     207

siesta: E_KS(eV) =            -3998.8440

siesta: E_KS - E_eggbox =     -3998.8440
     spin moment: S , {S} =    0.00000  -0.00000   0.00000   0.00000

siesta: Atomic forces (eV/Ang):
     1   -0.033866   -0.007351    0.000010
     2   -0.053420   -0.083824   -0.000053
     3    0.052002    0.052788   -0.000084
     4   -0.048319    0.013137    0.000054
     5   -0.025185   -0.021479   -0.000048
     6    0.179043   -0.028341    0.000281
     7   -1.264703    0.212577    0.000179
     8    0.268621   -2.375821   -0.000839
     9    0.109220    0.767677    0.000840
    10    0.128126   -0.272616    0.000100
    11    0.010963   -0.059508   -0.000305
    12    0.747440   -0.400201   -0.000326
    13   -0.176950   -0.401693   -0.000079
    14   -0.220801   -0.294699    0.000306
    15    0.083986   -0.000220   -0.000135
    16    0.158708    0.007616    0.007400
    17    0.066050   -0.059459   -0.037627
    18   -0.083707    0.064107    0.007598
    19   -0.181456   -0.066035   -0.042028
    20    0.058331   -0.025916    0.020619
    21   -0.135364    0.156554    0.074805
    22   -0.052589    0.062363    0.027877
    23    0.030060    0.043094   -0.051878
    24    0.877705    0.261595   -0.026609
    25    0.949305    2.825532    0.003678
    26   -0.077801    1.650105    0.007549
    27   -0.221165   -1.547555    0.002928
    28   -0.759059    0.202519   -0.000720
    29   -0.472452    2.796406   -0.001063
    30    0.056756    0.159559    0.007359
----------------------------------------
   Tot   -0.030520    3.630912   -0.000212
----------------------------------------
   Max    2.825532
   Res    0.604621    sqrt( Sum f_i^2 / 3N )
----------------------------------------
   Max    2.825532    constrained

Stress tensor Voigt[x,y,z,yz,xz,xy] (kbar):       -1.79       -4.98       -0.22       -0.05        0.05       -0.18
(Free)E + p*V (eV/cell)    -3993.0825
Target enthalpy (eV/cell)    -3998.8470

mulliken: Atomic and Orbital Populations:

Species: H                   

Atom      Orb        Charge      Spin       Svec
----------------------------------------------------------------
    1  1 1s         0.51131   0.00000      0.000   0.000   0.000
    1  2 1s         0.18761   0.00000      0.000   0.000   0.000
    1  3 2Ppy       0.02825   0.00000      0.000  -0.000  -0.000
    1  4 2Ppz       0.04023   0.00000      0.000   0.000   0.000
    1  5 2Ppx       0.02521   0.00000     -0.000  -0.000   0.000
    1     Total     0.79262   0.00000      0.000   0.000   0.000

    4  1 1s         1.02475   0.00000      0.000   0.000  -0.000
    4  2 1s         0.09507   0.00000     -0.000  -0.000   0.000
    4  3 2Ppy       0.03892   0.00000     -0.000  -0.000   0.000
    4  4 2Ppz       0.02006   0.00000     -0.000  -0.000  -0.000
    4  5 2Ppx       0.01359   0.00000     -0.000   0.000  -0.000
    4     Total     1.19239   0.00000      0.000   0.000  -0.000

    9  1 1s         0.40629   0.00000     -0.000  -0.000   0.000
    9  2 1s         0.19899   0.00000      0.000  -0.000   0.000
    9  3 2Ppy       0.12672   0.00000     -0.000   0.000   0.000
    9  4 2Ppz       0.05823   0.00000      0.000  -0.000   0.000
    9  5 2Ppx       0.03136   0.00000     -0.000   0.000   0.000
    9     Total     0.82160   0.00000     -0.000  -0.000   0.000

   10  1 1s         0.51143   0.00000      0.000  -0.000   0.000
   10  2 1s         0.19101   0.00000     -0.000   0.000   0.000
   10  3 2Ppy       0.01207   0.00000     -0.000   0.000   0.000
   10  4 2Ppz       0.05427   0.00000      0.000  -0.000   0.000
   10  5 2Ppx       0.03120   0.00000      0.000  -0.000   0.000
   10     Total     0.79998   0.00000     -0.000  -0.000   0.000

   13  1 1s         0.89639   0.00000      0.000  -0.000   0.000
   13  2 1s         0.10894   0.00000     -0.000   0.000  -0.000
   13  3 2Ppy       0.07257   0.00000     -0.000  -0.000   0.000
   13  4 2Ppz       0.01922   0.00000     -0.000  -0.000  -0.000
   13  5 2Ppx       0.03040   0.00000      0.000   0.000   0.000
   13     Total     1.12751   0.00000      0.000  -0.000   0.000

   18  1 1s         1.04747   0.00000     -0.000  -0.000  -0.000
   18  2 1s         0.08395   0.00000      0.000   0.000  -0.000
   18  3 2Ppy       0.02806   0.00000     -0.000   0.000   0.000
   18  4 2Ppz       0.01946   0.00000      0.000   0.000  -0.000
   18  5 2Ppx       0.01750   0.00000      0.000   0.000  -0.000
   18     Total     1.19644   0.00000     -0.000  -0.000  -0.000

   21  1 1s         1.06643   0.00000      0.000   0.000  -0.000
   21  2 1s         0.08248   0.00000     -0.000  -0.000  -0.000
   21  3 2Ppy       0.02233   0.00000      0.000   0.000   0.000
   21  4 2Ppz       0.02106   0.00000     -0.000   0.000   0.000
   21  5 2Ppx       0.01161   0.00000      0.000  -0.000  -0.000
   21     Total     1.20391   0.00000      0.000   0.000  -0.000

   22  1 1s         1.05433   0.00000     -0.000   0.000  -0.000
   22  2 1s         0.08316   0.00000      0.000  -0.000  -0.000
   22  3 2Ppy       0.01992   0.00000     -0.000  -0.000   0.000
   22  4 2Ppz       0.01775   0.00000      0.000  -0.000  -0.000
   22  5 2Ppx       0.01717   0.00000     -0.000  -0.000   0.000
   22     Total     1.19234   0.00000     -0.000   0.000  -0.000

   23  1 1s         1.06460   0.00000      0.000   0.000  -0.000
   23  2 1s         0.08219   0.00000     -0.000  -0.000  -0.000
   23  3 2Ppy       0.01685   0.00000     -0.000  -0.000  -0.000
   23  4 2Ppz       0.02462   0.00000     -0.000   0.000   0.000
   23  5 2Ppx       0.01348   0.00000      0.000  -0.000  -0.000
   23     Total     1.20174   0.00000      0.000   0.000  -0.000

   27  1 1s         0.45643   0.00000     -0.000  -0.000   0.000
   27  2 1s         0.18077   0.00000      0.000   0.000   0.000
   27  3 2Ppy       0.10034   0.00000     -0.000   0.000  -0.000
   27  4 2Ppz       0.02880   0.00000      0.000   0.000   0.000
   27  5 2Ppx       0.03729   0.00000      0.000  -0.000   0.000
   27     Total     0.80363   0.00000     -0.000  -0.000   0.000

   30  1 1s         0.49143   0.00000     -0.000  -0.000   0.000
   30  2 1s         0.18831   0.00000     -0.000   0.000   0.000
   30  3 2Ppy       0.02902   0.00000     -0.000  -0.000   0.000
   30  4 2Ppz       0.03468   0.00000     -0.000  -0.000   0.000
   30  5 2Ppx       0.02495   0.00000      0.000  -0.000   0.000
   30     Total     0.76839   0.00000     -0.000  -0.000   0.000

----------------------------------------------------------------
Total              11.10055   0.00000      0.000   0.000  -0.000


Species: N                   

Atom      Orb        Charge      Spin       Svec
----------------------------------------------------------------
    2  1 2s         1.38004   0.00000      0.000  -0.000  -0.000
    2  2 2s         0.12720   0.00000     -0.000   0.000  -0.000
    2  3 2py        1.07025   0.00000      0.000  -0.000   0.000
    2  4 2pz        1.49315   0.00000     -0.000  -0.000   0.000
    2  5 2px        1.01472   0.00000      0.000   0.000   0.000
    2  6 2py        0.19591   0.00000     -0.000  -0.000  -0.000
    2  7 2pz        0.01465   0.00000     -0.000   0.000  -0.000
    2  8 2px        0.21086   0.00000     -0.000  -0.000  -0.000
    2  9 3Pdxy      0.00690   0.00000     -0.000  -0.000  -0.000
    2 10 3Pdyz      0.00601   0.00000     -0.000  -0.000  -0.000
    2 11 3Pdz2      0.00158   0.00000      0.000   0.000   0.000
    2 12 3Pdxz      0.00303   0.00000     -0.000  -0.000   0.000
    2 13 3Pdx2-y2   0.00298   0.00000     -0.000  -0.000  -0.000
    2     Total     5.52729   0.00000     -0.000  -0.000  -0.000

    5  1 2s         1.55755   0.00000      0.000   0.000  -0.000
    5  2 2s         0.08162   0.00000     -0.000   0.000   0.000
    5  3 2py        0.90302   0.00000     -0.000  -0.000  -0.000
    5  4 2pz        1.22293   0.00000      0.000   0.000  -0.000
    5  5 2px        1.14444   0.00000     -0.000   0.000  -0.000
    5  6 2py        0.22954   0.00000      0.000   0.000   0.000
    5  7 2pz        0.05521   0.00000      0.000   0.000   0.000
    5  8 2px        0.14584   0.00000      0.000  -0.000   0.000
    5  9 3Pdxy      0.00858   0.00000      0.000  -0.000   0.000
    5 10 3Pdyz      0.00706   0.00000     -0.000   0.000   0.000
    5 11 3Pdz2      0.00191   0.00000      0.000   0.000   0.000
    5 12 3Pdxz      0.01128   0.00000      0.000  -0.000  -0.000
    5 13 3Pdx2-y2   0.00920   0.00000     -0.000   0.000  -0.000
    5     Total     5.37818   0.00000      0.000   0.000  -0.000

    8  1 2s         1.28939   0.00000      0.000  -0.000  -0.000
    8  2 2s         0.17028   0.00000     -0.000   0.000   0.000
    8  3 2py        1.10835   0.00000      0.000   0.000  -0.000
    8  4 2pz        1.50049   0.00000     -0.000   0.000  -0.000
    8  5 2px        0.96598   0.00000     -0.000   0.000  -0.000
    8  6 2py        0.19789   0.00000     -0.000  -0.000  -0.000
    8  7 2pz        0.03171   0.00000      0.000   0.000  -0.000
    8  8 2px        0.23552   0.00000      0.000   0.000  -0.000
    8  9 3Pdxy      0.00346   0.00000      0.000  -0.000  -0.000
    8 10 3Pdyz      0.00132   0.00000      0.000   0.000  -0.000
    8 11 3Pdz2      0.00244   0.00000     -0.000   0.000  -0.000
    8 12 3Pdxz      0.00236   0.00000     -0.000  -0.000  -0.000
    8 13 3Pdx2-y2   0.00454   0.00000     -0.000  -0.000  -0.000
    8     Total     5.51373   0.00000      0.000   0.000  -0.000

   11  1 2s         1.45816   0.00000     -0.000  -0.000   0.000
   11  2 2s         0.10499   0.00000      0.000   0.000  -0.000
   11  3 2py        1.23105   0.00000     -0.000   0.000   0.000
   11  4 2pz        1.34518   0.00000     -0.000  -0.000   0.000
   11  5 2px        0.84315   0.00000     -0.000   0.000   0.000
   11  6 2py        0.10735   0.00000      0.000  -0.000  -0.000
   11  7 2pz        0.03059   0.00000     -0.000   0.000  -0.000
   11  8 2px        0.30210   0.00000      0.000   0.000  -0.000
   11  9 3Pdxy      0.00639   0.00000     -0.000   0.000  -0.000
   11 10 3Pdyz      0.00463   0.00000     -0.000   0.000  -0.000
   11 11 3Pdz2      0.00108   0.00000      0.000  -0.000  -0.000
   11 12 3Pdxz      0.00514   0.00000     -0.000   0.000  -0.000
   11 13 3Pdx2-y2   0.00738   0.00000      0.000  -0.000   0.000
   11     Total     5.44719   0.00000     -0.000  -0.000   0.000

   14  1 2s         1.50020   0.00000     -0.000   0.000   0.000
   14  2 2s         0.10578   0.00000      0.000  -0.000   0.000
   14  3 2py        0.84848   0.00000     -0.000   0.000   0.000
   14  4 2pz        1.23405   0.00000      0.000   0.000   0.000
   14  5 2px        1.15252   0.00000     -0.000   0.000   0.000
   14  6 2py        0.27831   0.00000      0.000  -0.000  -0.000
   14  7 2pz        0.05567   0.00000     -0.000  -0.000  -0.000
   14  8 2px        0.13935   0.00000      0.000  -0.000  -0.000
   14  9 3Pdxy      0.00927   0.00000      0.000  -0.000   0.000
   14 10 3Pdyz      0.00451   0.00000      0.000  -0.000  -0.000
   14 11 3Pdz2      0.00154   0.00000     -0.000  -0.000   0.000
   14 12 3Pdxz      0.01067   0.00000      0.000   0.000  -0.000
   14 13 3Pdx2-y2   0.00845   0.00000      0.000   0.000   0.000
   14     Total     5.34881   0.00000     -0.000   0.000   0.000

   16  1 2s         1.35630   0.00000     -0.000  -0.000  -0.000
   16  2 2s         0.13755   0.00000      0.000   0.000   0.000
   16  3 2py        0.98588   0.00000     -0.000   0.000  -0.000
   16  4 2pz        1.54116   0.00000      0.000   0.000  -0.000
   16  5 2px        1.07659   0.00000      0.000   0.000  -0.000
   16  6 2py        0.24241   0.00000      0.000  -0.000   0.000
   16  7 2pz        0.00514   0.00000     -0.000  -0.000  -0.000
   16  8 2px        0.18233   0.00000      0.000  -0.000  -0.000
   16  9 3Pdxy      0.00189   0.00000     -0.000  -0.000   0.000
   16 10 3Pdyz      0.00481   0.00000     -0.000   0.000   0.000
   16 11 3Pdz2      0.00129   0.00000     -0.000   0.000   0.000
   16 12 3Pdxz      0.00235   0.00000      0.000   0.000   0.000
   16 13 3Pdx2-y2   0.00602   0.00000     -0.000  -0.000  -0.000
   16     Total     5.54371   0.00000     -0.000   0.000  -0.000

   26  1 2s         1.35645   0.00000      0.000   0.000  -0.000
   26  2 2s         0.13211   0.00000     -0.000  -0.000  -0.000
   26  3 2py        1.12148   0.00000     -0.000   0.000  -0.000
   26  4 2pz        1.48612   0.00000     -0.000   0.000  -0.000
   26  5 2px        0.88608   0.00000      0.000  -0.000  -0.000
   26  6 2py        0.18641   0.00000      0.000  -0.000   0.000
   26  7 2pz        0.00985   0.00000     -0.000   0.000  -0.000
   26  8 2px        0.28784   0.00000     -0.000   0.000   0.000
   26  9 3Pdxy      0.00104   0.00000     -0.000   0.000   0.000
   26 10 3Pdyz      0.00143   0.00000      0.000   0.000   0.000
   26 11 3Pdz2     -0.00133   0.00000     -0.000   0.000   0.000
   26 12 3Pdxz      0.00422   0.00000     -0.000  -0.000  -0.000
   26 13 3Pdx2-y2   0.00337   0.00000     -0.000   0.000  -0.000
   26     Total     5.47507   0.00000     -0.000   0.000  -0.000

----------------------------------------------------------------
Total              49.33453   0.00000     -0.000   0.000   0.000


Species: Si                  

Atom      Orb        Charge      Spin       Svec
----------------------------------------------------------------
    3  1 3s         0.55014   0.00000      0.000  -0.000   0.000
    3  2 3s         0.38751   0.00000     -0.000  -0.000   0.000
    3  3 3py        0.08367   0.00000     -0.000  -0.000   0.000
    3  4 3pz        0.53907   0.00000     -0.000  -0.000   0.000
    3  5 3px        0.37165   0.00000      0.000  -0.000  -0.000
    3  6 3py        0.49678   0.00000      0.000   0.000   0.000
    3  7 3pz        0.17438   0.00000     -0.000   0.000   0.000
    3  8 3px        0.23636   0.00000     -0.000   0.000   0.000
    3  9 3Pdxy      0.10914   0.00000      0.000   0.000  -0.000
    3 10 3Pdyz      0.05257   0.00000     -0.000   0.000  -0.000
    3 11 3Pdz2      0.01030   0.00000     -0.000  -0.000   0.000
    3 12 3Pdxz      0.13384   0.00000      0.000  -0.000   0.000
    3 13 3Pdx2-y2   0.32496   0.00000     -0.000  -0.000   0.000
    3     Total     3.47037   0.00000     -0.000  -0.000   0.000

    6  1 3s         0.65803   0.00000     -0.000  -0.000   0.000
    6  2 3s         0.37170   0.00000      0.000   0.000   0.000
    6  3 3py        0.12742   0.00000     -0.000  -0.000   0.000
    6  4 3pz        0.69367   0.00000     -0.000  -0.000   0.000
    6  5 3px        0.49058   0.00000     -0.000   0.000   0.000
    6  6 3py        0.46996   0.00000      0.000  -0.000   0.000
    6  7 3pz        0.24119   0.00000     -0.000   0.000   0.000
    6  8 3px        0.24680   0.00000      0.000  -0.000   0.000
    6  9 3Pdxy      0.18162   0.00000      0.000   0.000   0.000
    6 10 3Pdyz      0.14558   0.00000      0.000  -0.000   0.000
    6 11 3Pdz2      0.01132   0.00000     -0.000  -0.000  -0.000
    6 12 3Pdxz      0.03731   0.00000      0.000   0.000  -0.000
    6 13 3Pdx2-y2   0.18524   0.00000      0.000  -0.000  -0.000
    6     Total     3.86043   0.00000     -0.000  -0.000   0.000

    7  1 3s         0.63521   0.00000     -0.000   0.000  -0.000
    7  2 3s         0.36480   0.00000      0.000  -0.000  -0.000
    7  3 3py        0.35083   0.00000      0.000   0.000  -0.000
    7  4 3pz        0.50291   0.00000     -0.000  -0.000  -0.000
    7  5 3px        0.08604   0.00000      0.000   0.000  -0.000
    7  6 3py        0.30916   0.00000     -0.000  -0.000  -0.000
    7  7 3pz        0.20422   0.00000      0.000  -0.000  -0.000
    7  8 3px        0.42366   0.00000     -0.000  -0.000   0.000
    7  9 3Pdxy      0.19847   0.00000     -0.000   0.000   0.000
    7 10 3Pdyz      0.14150   0.00000     -0.000  -0.000   0.000
    7 11 3Pdz2      0.00922   0.00000      0.000   0.000   0.000
    7 12 3Pdxz      0.15732   0.00000     -0.000   0.000  -0.000
    7 13 3Pdx2-y2   0.23118   0.00000     -0.000  -0.000  -0.000
    7     Total     3.61452   0.00000     -0.000   0.000  -0.000

   12  1 3s         0.59096   0.00000      0.000  -0.000  -0.000
   12  2 3s         0.38715   0.00000     -0.000   0.000  -0.000
   12  3 3py        0.16294   0.00000     -0.000   0.000  -0.000
   12  4 3pz        0.41925   0.00000      0.000  -0.000  -0.000
   12  5 3px        0.31854   0.00000     -0.000  -0.000  -0.000
   12  6 3py        0.44654   0.00000      0.000  -0.000   0.000
   12  7 3pz        0.15806   0.00000      0.000   0.000  -0.000
   12  8 3px        0.33183   0.00000      0.000   0.000  -0.000
   12  9 3Pdxy      0.35890   0.00000     -0.000   0.000  -0.000
   12 10 3Pdyz      0.08509   0.00000     -0.000  -0.000  -0.000
   12 11 3Pdz2      0.01170   0.00000      0.000  -0.000  -0.000
   12 12 3Pdxz      0.09319   0.00000     -0.000   0.000  -0.000
   12 13 3Pdx2-y2   0.16463   0.00000      0.000  -0.000  -0.000
   12     Total     3.52878   0.00000      0.000  -0.000  -0.000

   15  1 3s         0.67049   0.00000      0.000   0.000  -0.000
   15  2 3s         0.36510   0.00000     -0.000  -0.000  -0.000
   15  3 3py       -0.00839   0.00000      0.000  -0.000  -0.000
   15  4 3pz        0.50949   0.00000     -0.000  -0.000  -0.000
   15  5 3px        0.40115   0.00000      0.000   0.000  -0.000
   15  6 3py        0.46299   0.00000      0.000   0.000   0.000
   15  7 3pz        0.19617   0.00000     -0.000   0.000  -0.000
   15  8 3px        0.33772   0.00000     -0.000   0.000  -0.000
   15  9 3Pdxy      0.14230   0.00000      0.000  -0.000  -0.000
   15 10 3Pdyz      0.12691   0.00000     -0.000   0.000  -0.000
   15 11 3Pdz2      0.01474   0.00000     -0.000   0.000  -0.000
   15 12 3Pdxz      0.12659   0.00000     -0.000   0.000   0.000
   15 13 3Pdx2-y2   0.30971   0.00000     -0.000  -0.000  -0.000
   15     Total     3.65496   0.00000     -0.000   0.000  -0.000

   17  1 3s         0.72869   0.00000      0.000   0.000   0.000
   17  2 3s         0.35673   0.00000     -0.000  -0.000  -0.000
   17  3 3py        0.09941   0.00000      0.000   0.000   0.000
   17  4 3pz        0.63348   0.00000      0.000  -0.000   0.000
   17  5 3px        0.36023   0.00000     -0.000  -0.000   0.000
   17  6 3py        0.45218   0.00000     -0.000  -0.000   0.000
   17  7 3pz        0.15232   0.00000     -0.000  -0.000   0.000
   17  8 3px        0.33105   0.00000     -0.000   0.000  -0.000
   17  9 3Pdxy      0.15106   0.00000     -0.000   0.000   0.000
   17 10 3Pdyz      0.02399   0.00000     -0.000   0.000  -0.000
   17 11 3Pdz2      0.00892   0.00000     -0.000  -0.000  -0.000
   17 12 3Pdxz      0.12703   0.00000     -0.000   0.000  -0.000
   17 13 3Pdx2-y2   0.12711   0.00000     -0.000  -0.000  -0.000
   17     Total     3.55221   0.00000      0.000   0.000   0.000

   19  1 3s         0.86091   0.00000     -0.000  -0.000  -0.000
   19  2 3s         0.31459   0.00000      0.000   0.000   0.000
   19  3 3py        0.42111   0.00000      0.000  -0.000   0.000
   19  4 3pz        0.66011   0.00000     -0.000   0.000  -0.000
   19  5 3px        0.35036   0.00000     -0.000   0.000  -0.000
   19  6 3py        0.33120   0.00000     -0.000   0.000  -0.000
   19  7 3pz        0.27014   0.00000      0.000  -0.000  -0.000
   19  8 3px        0.35843   0.00000      0.000  -0.000  -0.000
   19  9 3Pdxy      0.09377   0.00000      0.000  -0.000   0.000
   19 10 3Pdyz      0.02979   0.00000      0.000   0.000  -0.000
   19 11 3Pdz2      0.01439   0.00000     -0.000   0.000   0.000
   19 12 3Pdxz      0.05771   0.00000      0.000  -0.000   0.000
   19 13 3Pdx2-y2   0.13163   0.00000      0.000  -0.000  -0.000
   19     Total     3.89414   0.00000     -0.000  -0.000  -0.000

   20  1 3s         0.54113   0.00000     -0.000  -0.000   0.000
   20  2 3s         0.44358   0.00000      0.000  -0.000   0.000
   20  3 3py        0.31077   0.00000      0.000   0.000   0.000
   20  4 3pz        0.25535   0.00000     -0.000  -0.000   0.000
   20  5 3px        0.45573   0.00000     -0.000  -0.000   0.000
   20  6 3py        0.38690   0.00000     -0.000  -0.000   0.000
   20  7 3pz        0.42297   0.00000      0.000   0.000   0.000
   20  8 3px        0.27770   0.00000      0.000   0.000   0.000
   20  9 3Pdxy      0.07008   0.00000     -0.000  -0.000  -0.000
   20 10 3Pdyz      0.08461   0.00000     -0.000   0.000  -0.000
   20 11 3Pdz2      0.05104   0.00000     -0.000   0.000  -0.000
   20 12 3Pdxz      0.07226   0.00000     -0.000   0.000  -0.000
   20 13 3Pdx2-y2   0.04588   0.00000      0.000   0.000   0.000
   20     Total     3.41801   0.00000     -0.000  -0.000   0.000

   24  1 3s         0.60349   0.00000      0.000   0.000   0.000
   24  2 3s         0.37159   0.00000     -0.000  -0.000  -0.000
   24  3 3py        0.26312   0.00000      0.000   0.000   0.000
   24  4 3pz        0.38812   0.00000      0.000   0.000   0.000
   24  5 3px        0.19503   0.00000      0.000  -0.000   0.000
   24  6 3py        0.38067   0.00000     -0.000   0.000  -0.000
   24  7 3pz        0.19790   0.00000      0.000  -0.000   0.000
   24  8 3px        0.34597   0.00000     -0.000  -0.000  -0.000
   24  9 3Pdxy      0.14177   0.00000      0.000  -0.000   0.000
   24 10 3Pdyz      0.14245   0.00000     -0.000   0.000  -0.000
   24 11 3Pdz2      0.00909   0.00000     -0.000   0.000   0.000
   24 12 3Pdxz      0.12134   0.00000     -0.000   0.000   0.000
   24 13 3Pdx2-y2   0.32615   0.00000      0.000   0.000   0.000
   24     Total     3.48669   0.00000      0.000   0.000   0.000

   28  1 3s         0.44266   0.00000      0.000  -0.000   0.000
   28  2 3s         0.37308   0.00000     -0.000  -0.000   0.000
   28  3 3py        0.07679   0.00000     -0.000   0.000   0.000
   28  4 3pz        0.38569   0.00000     -0.000  -0.000   0.000
   28  5 3px        0.19454   0.00000      0.000   0.000   0.000
   28  6 3py        0.41793   0.00000      0.000  -0.000   0.000
   28  7 3pz        0.20595   0.00000      0.000  -0.000   0.000
   28  8 3px        0.37193   0.00000      0.000   0.000   0.000
   28  9 3Pdxy      0.14303   0.00000     -0.000  -0.000  -0.000
   28 10 3Pdyz      0.12720   0.00000      0.000  -0.000   0.000
   28 11 3Pdz2      0.01082   0.00000      0.000  -0.000   0.000
   28 12 3Pdxz      0.15711   0.00000      0.000   0.000   0.000
   28 13 3Pdx2-y2   0.33967   0.00000     -0.000   0.000   0.000
   28     Total     3.24640   0.00000      0.000  -0.000   0.000

----------------------------------------------------------------
Total              85.06105   0.00000      0.000   0.000   0.000


Species: O                   

Atom      Orb        Charge      Spin       Svec
----------------------------------------------------------------
   25  1 2s         1.71881   0.00000     -0.000  -0.000   0.000
   25  2 2s         0.06541   0.00000      0.000   0.000  -0.000
   25  3 2py        1.39028   0.00000      0.000   0.000  -0.000
   25  4 2pz        1.57907   0.00000     -0.000  -0.000  -0.000
   25  5 2px        1.58255   0.00000      0.000  -0.000   0.000
   25  6 2py        0.07548   0.00000     -0.000  -0.000   0.000
   25  7 2pz       -0.01024   0.00000      0.000   0.000   0.000
   25  8 2px        0.03628   0.00000     -0.000   0.000  -0.000
   25  9 3Pdxy      0.00587   0.00000     -0.000  -0.000  -0.000
   25 10 3Pdyz      0.00474   0.00000     -0.000  -0.000   0.000
   25 11 3Pdz2      0.00237   0.00000      0.000  -0.000   0.000
   25 12 3Pdxz      0.00382   0.00000      0.000  -0.000  -0.000
   25 13 3Pdx2-y2   0.01115   0.00000     -0.000   0.000   0.000
   25     Total     6.46559   0.00000     -0.000  -0.000  -0.000

   29  1 2s         1.75930   0.00000     -0.000   0.000  -0.000
   29  2 2s         0.05037   0.00000      0.000  -0.000   0.000
   29  3 2py        1.44769   0.00000     -0.000   0.000   0.000
   29  4 2pz        1.56324   0.00000     -0.000   0.000  -0.000
   29  5 2px        1.53140   0.00000      0.000   0.000  -0.000
   29  6 2py        0.05190   0.00000      0.000  -0.000   0.000
   29  7 2pz       -0.00352   0.00000      0.000  -0.000   0.000
   29  8 2px        0.04075   0.00000      0.000   0.000   0.000
   29  9 3Pdxy      0.00773   0.00000     -0.000   0.000  -0.000
   29 10 3Pdyz      0.00383   0.00000     -0.000  -0.000  -0.000
   29 11 3Pdz2      0.00252   0.00000      0.000   0.000   0.000
   29 12 3Pdxz      0.00626   0.00000      0.000   0.000   0.000
   29 13 3Pdx2-y2   0.01190   0.00000     -0.000   0.000   0.000
   29     Total     6.47336   0.00000     -0.000   0.000  -0.000

----------------------------------------------------------------
Total              98.00000   0.00000     -0.000   0.000   0.000


siesta: Eigenvalues (eV):
ik =     1
  -23.3336  -23.3336  -23.2330  -23.2330  -22.0674  -22.0674  -21.1094  -21.1094  -20.8863  -20.8863
  -19.9737  -19.9737  -19.3093  -19.3093  -19.1404  -19.1404  -18.5932  -18.5932  -15.3663  -15.3663
  -14.4155  -14.4155  -13.6633  -13.6633  -13.5586  -13.5586  -13.3550  -13.3550  -12.7876  -12.7876
  -12.3362  -12.3362  -12.1268  -12.1268  -11.7974  -11.7974  -11.5250  -11.5250  -11.3676  -11.3676
  -10.7794  -10.7794  -10.7048  -10.7048  -10.1208  -10.1208   -9.8515   -9.8515   -9.6052   -9.6052
   -9.4920   -9.4920   -9.2217   -9.2217   -9.1733   -9.1733   -8.9182   -8.9182   -8.6937   -8.6937
   -8.6197   -8.6197   -8.3268   -8.3268   -8.2554   -8.2554   -8.0162   -8.0162   -8.0084   -8.0084
   -7.6806   -7.6806   -7.6132   -7.6132   -7.2844   -7.2844   -7.2106   -7.2106   -6.9643   -6.9643
   -6.8621   -6.8621   -6.5104   -6.5104   -6.4215   -6.4215   -6.1655   -6.1655   -6.1321   -6.1321
   -6.0228   -6.0228   -5.5054   -5.5054   -5.4688   -5.4688   -4.0672   -4.0672   -3.7879   -3.7879
   -2.9422   -2.9422   -2.5867   -2.5867   -2.3262   -2.3262   -2.0959   -2.0959   -2.0785   -2.0785
   -1.8800   -1.8800   -1.7197   -1.7197   -1.5013   -1.5013   -1.4027   -1.4027   -1.1552   -1.1552
   -1.1138   -1.1138   -0.4404   -0.4404   -0.3786   -0.3786   -0.2569   -0.2569   -0.1620   -0.1620
   -0.0757   -0.0757    0.0853    0.0853    0.2331    0.2331    0.3339    0.3339    0.7102    0.7102
    0.7680    0.7680    0.9122    0.9122    1.0276    1.0276    1.3242    1.3242    1.4157    1.4157
    1.7560    1.7560    1.8969    1.8969    2.2363    2.2363    2.3301    2.3301    2.5157    2.5157
    2.5313    2.5313    2.7454    2.7454    2.8803    2.8803    2.9923    2.9923    3.0652    3.0652
    3.1570    3.1570    3.2061    3.2061    3.6063    3.6063    3.8234    3.8234    3.9323    3.9323
    4.2634    4.2634    4.3009    4.3009    4.4845    4.4845    4.5853    4.5853    4.7267    4.7267
    4.7984    4.7984    5.1032    5.1032    5.1412    5.1412    5.2102    5.2102    5.3954    5.3954
    5.4724    5.4724    5.5394    5.5394    5.8802    5.8802    5.9240    5.9240    6.2783    6.2783
    6.3380    6.3380    6.4519    6.4519    6.5486    6.5486    6.7826    6.7826    6.8973    6.8973
    7.0323    7.0323    7.0768    7.0768    7.2220    7.2220    7.5435    7.5435    7.6071    7.6071
    7.6475    7.6475    7.7621    7.7621    8.0570    8.0570    8.1983    8.1983    8.3272    8.3272
    8.3768    8.3768    8.4937    8.4937    8.8078    8.8078    8.8518    8.8518    9.0608    9.0608
    9.3358    9.3358    9.4692    9.4692    9.6333    9.6333    9.6627    9.6627    9.7595    9.7595
    9.8761    9.8761   10.2188   10.2188   10.2563   10.2563   10.3363   10.3363   10.5771   10.5771
   10.7748   10.7748   10.9928   10.9928   11.2083   11.2083   11.2881   11.2881   11.4313   11.4313
   11.7955   11.7955   11.8189   11.8189   11.9964   11.9964   12.0885   12.0885   12.2772   12.2772
   12.3965   12.3965   12.6948   12.6948   13.0021   13.0021   13.1144   13.1144   13.2595   13.2595
   13.4561   13.4561   13.5401   13.5401   14.0678   14.0678   14.1686   14.1686   14.3020   14.3020
   14.4816   14.4816   14.5011   14.5011   15.0907   15.0907   15.2880   15.2880   15.4285   15.4285
   15.7878   15.7878   15.9015   15.9015   16.1652   16.1652   16.4757   16.4757   16.6587   16.6587
   16.7817   16.7817   17.1503   17.1503   17.6904   17.6904   17.7695   17.7695   18.1491   18.1491
   18.3732   18.3732   18.6505   18.6505   18.7760   18.7760   19.0341   19.0341   19.4877   19.4877
   19.8145   19.8145   20.0114   20.0114   20.6612   20.6612   20.8527   20.8527   21.1078   21.1078
   21.5762   21.5762   21.9732   21.9732   22.4015   22.4015   22.7553   22.7553   22.8263   22.8263
   23.2279   23.2279   23.5771   23.5771   24.1508   24.1508   24.2514   24.2514   24.8971   24.8971
   25.1958   25.1958   25.5706   25.5706   25.8064   25.8064   26.1589   26.1589   26.9053   26.9053
   27.3568   27.3568   27.9457   27.9457   28.1573   28.1573   28.7186   28.7186   29.1282   29.1282
   29.2694   29.2694   29.7057   29.7057   30.9518   30.9518   30.9778   30.9778   31.4233   31.4233
   31.5270   31.5270   31.6350   31.6350   32.1762   32.1762   32.7438   32.7438   33.7371   33.7371
   34.1308   34.1308   34.8904   34.8904   35.2337   35.2337   35.7211   35.7211   36.1298   36.1298
   36.4263   36.4263   36.5334   36.5334   37.3846   37.3846   37.4764   37.4764   38.1199   38.1199
   38.4729   38.4729   38.9796   38.9796   39.0730   39.0730   40.0746   40.0746   40.6246   40.6246
   40.7142   40.7142   40.9534   40.9534   41.2068   41.2068   41.5861   41.5861   42.1944   42.1944
   43.2140   43.2140   43.4318   43.4318   43.5939   43.5939   43.9151   43.9151   44.0773   44.0773
   44.3713   44.3713   44.3836   44.3836   44.6860   44.6860   45.3897   45.3897   45.6899   45.6899
   45.9892   45.9892   46.5661   46.5661   47.1533   47.1533   47.4646   47.4646   47.5850   47.5850
   48.4458   48.4458   48.6951   48.6951   49.1914   49.1914   49.6501   49.6501   49.7793   49.7793
   49.9787   49.9787   50.4543   50.4543   50.5179   50.5179   50.5532   50.5532   51.5447   51.5447
   51.8198   51.8198   53.5623   53.5623   53.8302   53.8302   54.2056   54.2056   54.7095   54.7095
   54.8518   54.8518   56.0283   56.0283   56.5771   56.5771   56.7445   56.7445   57.8124   57.8124
   58.4191   58.4191   59.1339   59.1339   59.9439   59.9439   60.2314   60.2314   60.4684   60.4684
   61.7574   61.7574   61.9545   61.9545   63.1691   63.1691   64.3402   64.3402   65.5673   65.5673
   65.7683   65.7683   66.4498   66.4498   66.7182   66.7182   66.9907   66.9907   68.1157   68.1157
   70.3690   70.3690   70.7889   70.7889   71.7120   71.7120   72.9677   72.9677   76.0619   76.0619
   80.0780   80.0780   82.9550   82.9550   92.3182   92.3182   92.6389   92.6389   93.0372   93.0372
   94.0547   94.0547   97.6784   97.6784   99.5484   99.5484  101.4205  101.4205  103.1588  103.1588
  104.4319  104.4319  109.7197  109.7197  118.5622  118.5622  124.1627  124.1627  126.4040  126.4040
  144.4243  144.4243  149.7839  149.7839
siesta: Fermi energy =      -3.927562 eV

siesta: Program's energy decomposition (eV):
siesta: Ebs     =     -1115.280690
siesta: Eions   =      3553.971015
siesta: Ena     =       377.672933
siesta: Ekin    =      2761.327684
siesta: Enl     =     -2539.328987
siesta: Eso     =        -0.004802
siesta: Edftu   =         0.000000
siesta: DEna    =        37.850908
siesta: DUscf   =        13.772063
siesta: DUext   =         0.000000
siesta: Exc     =     -1096.162802
siesta: eta*DQ  =         0.000000
siesta: Emadel  =         0.000000
siesta: Emeta   =         0.000000
siesta: Emolmec =         0.000000
siesta: Ekinion =         0.000000
siesta: Eharris =     -3998.844017
siesta: Etot    =     -3998.844017
siesta: FreeEng =     -3998.846989

siesta: Final energy (eV):
siesta:  Band Struct. =   -1115.280690
siesta:       Kinetic =    2761.327684
siesta:       Hartree =    8235.061540
siesta:       Edftu   =       0.000000
siesta:       Eso     =      -0.004802
siesta:    Ext. field =       0.000000
siesta:   Exch.-corr. =   -1096.162802
siesta:  Ion-electron =  -18923.814140
siesta:       Ion-ion =    5024.748502
siesta:       Ekinion =       0.000000
siesta:         Total =   -3998.844017
siesta:         Fermi =      -3.927562

siesta: Atomic forces (eV/Ang):
siesta:      1   -0.033866   -0.007351    0.000010
siesta:      2   -0.053420   -0.083824   -0.000053
siesta:      3    0.052002    0.052788   -0.000084
siesta:      4   -0.048319    0.013137    0.000054
siesta:      5   -0.025185   -0.021479   -0.000048
siesta:      6    0.179043   -0.028341    0.000281
siesta:      7   -1.264703    0.212577    0.000179
siesta:      8    0.268621   -2.375821   -0.000839
siesta:      9    0.109220    0.767677    0.000840
siesta:     10    0.128126   -0.272616    0.000100
siesta:     11    0.010963   -0.059508   -0.000305
siesta:     12    0.747440   -0.400201   -0.000326
siesta:     13   -0.176950   -0.401693   -0.000079
siesta:     14   -0.220801   -0.294699    0.000306
siesta:     15    0.083986   -0.000220   -0.000135
siesta:     16    0.158708    0.007616    0.007400
siesta:     17    0.066050   -0.059459   -0.037627
siesta:     18   -0.083707    0.064107    0.007598
siesta:     19   -0.181456   -0.066035   -0.042028
siesta:     20    0.058331   -0.025916    0.020619
siesta:     21   -0.135364    0.156554    0.074805
siesta:     22   -0.052589    0.062363    0.027877
siesta:     23    0.030060    0.043094   -0.051878
siesta:     24    0.877705    0.261595   -0.026609
siesta:     25    0.949305    2.825532    0.003678
siesta:     26   -0.077801    1.650105    0.007549
siesta:     27   -0.221165   -1.547555    0.002928
siesta:     28   -0.759059    0.202519   -0.000720
siesta:     29   -0.472452    2.796406   -0.001063
siesta:     30    0.056756    0.159559    0.007359
siesta: ----------------------------------------
siesta:    Tot   -0.030520    3.630912   -0.000212

siesta: Stress tensor (static) (eV/Ang**3):
siesta:    -0.001120   -0.000111    0.000034
siesta:    -0.000111   -0.003106   -0.000030
siesta:     0.000034   -0.000030   -0.000135

siesta: Cell volume =       3965.271126 Ang**3

siesta: Pressure (static):
siesta:                Solid            Molecule  Units
siesta:           0.00001583          0.00000549  Ry/Bohr**3
siesta:           0.00145374          0.00050422  eV/Ang**3
siesta:           2.32917813          0.80786567  kBar
(Free)E+ p_basis*V_orbitals  =       -3977.718904
(Free)Eharris+ p_basis*V_orbitals  =       -3977.718904
     spin moment: S , {S} =    0.00000  -0.00000   0.00000   0.00000

siesta: Electric dipole (a.u.)  =   -0.030627    2.923022   -0.013081
siesta: Electric dipole (Debye) =   -0.077846    7.429585   -0.033248

cite: Please see "AT.bib" for an exhaustive BiBTeX file.
cite: Please clearly indicate Siesta version in published work: v4.1.5-1-g384057250
cite: This calculation has made use of the following articles
cite: which are encouraged to be cited in a published work.
        Primary SIESTA paper
          DOI: www.doi.org/10.1088/0953-8984/14/11/302
        Spin-orbit coupling (on-site approximation)
          DOI: www.doi.org/10.1088/0953-8984/19/19/489001


WARNING: alloc-realloc-dealloc name mismatch
         Name: atomlist isa
         Size:              -120. Bytes
         Node:     0
         Subsequent mismatches will not be reported
>> End of run:  22-MAY-2023   9:47:39
Job completed
