Siesta Version  : v4.1.5-1-g384057250
Architecture    : gcc
Compiler version: GNU Fortran (Ubuntu 11.4.0-1ubuntu1~22.04) 11.4.0
Compiler flags  : mpifort -O2 -fPIC -ftree-vectorize -fallow-argument-mismatch
PP flags        : -DFC_HAVE_ABORT -DMPI -DSIESTA__FLOOK -DSIESTA__METIS -DSIESTA__MUMPS -DCDF -DNCDF -DNCDF_4 -DNCDF_PARALLEL -DSIESTA__MRRR -DSIESTA__ELPA
Libraries       : libncdf.a libfdict.a  -lflookall -ldl -lnetcdff -lnetcdf -lhdf5_hl -lhdf5 -lhdf5_fortran -lz -lscalapack-openmpi -lopenblas -lmetis -lzmumps -lcmumps -ldmumps -lmumps_common -lpord -lsmumps -lesmumps -lscotch -lscotcherr -fopenmp -lelpa
PARALLEL version
NetCDF support
NetCDF-4 support
NetCDF-4 MPI-IO support
METIS ordering support
Lua support

* Running on 8 nodes in parallel
>> Start of run:  18-FEB-2024  21:10:12

                           ***********************       
                           *  WELCOME TO SIESTA  *       
                           ***********************       

reinit: Reading from standard input
reinit: Dumped input in INPUT_TMP.36827
************************** Dump of input data file ****************************
# mpirun -np 4 siesta-4.1.5 < GC.fdf > GC.out &
SystemLabel      GC
NumberOfAtoms    29
NumberOfSpecies  4
%block ChemicalSpeciesLabel
    1    1  H
    2    7  N
    3   14  Si
    4    8  O
%endblock ChemicalSpeciesLabel
############################################
# This overrides Defaults.fdf configuration
############################################
MD.TypeOfRun                Verlet # CG, Verlet
MD.Steps                    0
MaxSCFIterations            200
SCF.MustConverge            T
AtomicCoordinatesFormat NotScaledCartesianAng
%block AtomicCoordinatesAndAtomicSpecies
    1.03711479    3.59345352   -0.00000000   1       1  H
    0.33062806    2.80341734   -0.00000000   2       2  N
   -1.39965885    3.24478125    0.00000000   3       3  Si
   -1.55543853    4.73477351    0.00000000   1       4  H
   -2.92298047    1.68587373   -0.00000000   3       5  Si
   -4.40616810    1.92870409   -0.00000000   1       6  H
   -1.72458961   -0.22740243   -0.00000000   3       7  Si
   -2.49061507   -1.76011917   -0.00000000   2       8  N
   -1.90036852   -2.71733220    0.00000000   1       9  H
   -3.54223739   -1.84057940   -0.00000000   1      10  H
   -0.00838955   -0.17222812    0.00000000   2      11  N
    1.06663307    1.15811072   -0.00000000   3      12  Si
    2.67530639    1.13930046   -0.00000000   4      13  O
    5.61644830   -7.44953905    0.00000000   1      14  H
    4.58206954   -7.23203760    0.00000000   2      15  N
    3.29666389   -8.49263600    0.00000000   3      16  Si
    3.80117524   -9.90371886   -0.00000000   1      17  H
    1.65934232   -8.01362137    0.00000000   2      18  N
    1.68097912   -6.20463398   -0.00000000   3      19  Si
    0.54543521   -4.28636135    0.00000000   3      20  Si
   -1.03431493   -3.94450034    0.00000000   4      21  O
    1.73226934   -2.87719605    0.00000000   2      22  N
    1.20957366   -1.92961761   -0.00000000   1      23  H
    3.50853448   -2.77677601    0.00000000   3      24  Si
    4.13684451   -1.17938608    0.00000000   2      25  N
    3.54296161   -0.26248101    0.00000000   1      26  H
    5.18364407   -1.05231197   -0.00000000   1      27  H
    4.63288658   -4.07521596   -0.00000000   2      28  N
    3.79410501   -5.58634043    0.00000000   3      29  Si
%endblock AtomicCoordinatesAndAtomicSpecies
#############
# Unit Cell
#############
LatticeConstant 1.0 Ang
%block LatticeVectors
    30.00000    0.000000    0.000000
    0.000000    45.00000    0.000000
    0.000000    0.000000    10.00000
%endblock LatticeVectors
%include ../../../Defaults.fdf
Denchar.TypeOfRun 3D
Denchar.PlotCharge T
Denchar.CoorUnits Ang
Denchar.DensityUnits Ele/Ang**3
Denchar.NumberPointsX 250
Denchar.NumberPointsY 250
Denchar.NumberPointsZ 5
Denchar.MinX -13 Ang
Denchar.MaxX 13 Ang
Denchar.MinY -16 Ang
Denchar.MaxY 16 Ang
Denchar.MinZ -2 Ang
Denchar.MaxZ  2 Ang
************************** End of input data file *****************************

reinit: -----------------------------------------------------------------------
reinit: System Name: 
reinit: -----------------------------------------------------------------------
reinit: System Label: GC
reinit: -----------------------------------------------------------------------

initatom: Reading input for the pseudopotentials and atomic orbitals ----------
Species number:   1 Atomic number:    1 Label: H
Species number:   2 Atomic number:    7 Label: N
Species number:   3 Atomic number:   14 Label: Si
Species number:   4 Atomic number:    8 Label: O

Ground state valence configuration:   1s01
Reading pseudopotential information in formatted form from H.psf

Pseudopotential generated from a relativistic atomic calculation

Valence configuration for pseudopotential generation:
1s( 1.00) rc: 0.01
2p( 0.00) rc: 0.60
3d( 0.00) rc: 1.99
4f( 0.00) rc: 2.49
Ground state valence configuration:   2s02  2p03
Reading pseudopotential information in formatted form from N.psf

Pseudopotential generated from a relativistic atomic calculation

Valence configuration for pseudopotential generation:
2s( 2.00) rc: 0.94
2p( 3.00) rc: 0.59
3d( 0.00) rc: 3.46
4f( 0.00) rc: 2.47
Ground state valence configuration:   3s02  3p02
Reading pseudopotential information in formatted form from Si.psf

Pseudopotential generated from a relativistic atomic calculation

Valence configuration for pseudopotential generation:
3s( 2.00) rc: 1.67
3p( 2.00) rc: 2.04
3d( 0.00) rc: 2.89
4f( 0.00) rc: 2.49
Ground state valence configuration:   2s02  2p04
Reading pseudopotential information in formatted form from O.psf

Pseudopotential generated from a relativistic atomic calculation

Valence configuration for pseudopotential generation:
2s( 2.00) rc: 0.45
2p( 4.00) rc: 0.92
3d( 0.00) rc: 2.24
4f( 0.00) rc: 0.25
For H, standard SIESTA heuristics set lmxkb to 2
 (one more than the basis l, including polarization orbitals).
Use PS.lmax or PS.KBprojectors blocks to override.
For N, standard SIESTA heuristics set lmxkb to 3
 (one more than the basis l, including polarization orbitals).
Use PS.lmax or PS.KBprojectors blocks to override.
For Si, standard SIESTA heuristics set lmxkb to 3
 (one more than the basis l, including polarization orbitals).
Use PS.lmax or PS.KBprojectors blocks to override.
For O, standard SIESTA heuristics set lmxkb to 3
 (one more than the basis l, including polarization orbitals).
Use PS.lmax or PS.KBprojectors blocks to override.

<basis_specs>
===============================================================================
H                    Z=   1    Mass=  1.0100        Charge= 0.17977+309
Lmxo=0 Lmxkb= 2    BasisType=split      Semic=F
L=0  Nsemic=0  Cnfigmx=1
          i=1  nzeta=2  polorb=1  (1s)
            splnorm:   0.62000    
               vcte:    0.0000    
               rinn:    0.0000    
               qcoe:    0.0000    
               qyuk:    0.0000    
               qwid:   0.10000E-01
                rcs:    0.0000      0.0000    
            lambdas:    1.0000      1.0000    
-------------------------------------------------------------------------------
L=0  Nkbl=1  erefs: 0.17977+309
L=1  Nkbl=1  erefs: 0.17977+309
L=2  Nkbl=1  erefs: 0.17977+309
===============================================================================
</basis_specs>

atom: Called for H                     (Z =   1)

read_vps: Pseudopotential generation method:
read_vps: ATM4.2.7  Troullier-Martins                       
Valence charge for ps generation:    1.00000

xc_check: Exchange-correlation functional:
xc_check: GGA Perdew, Burke & Ernzerhof 1996
V l=0 = -2*Zval/r beyond r=  0.0098
V l=1 = -2*Zval/r beyond r=  0.5817
V l=2 = -2*Zval/r beyond r=  1.9372
All V_l potentials equal beyond r=  1.9372
This should be close to max(r_c) in ps generation
All pots = -2*Zval/r beyond r=  1.9372

VLOCAL1: 99.0% of the norm of Vloc inside     11.567 Ry
VLOCAL1: 99.9% of the norm of Vloc inside     26.362 Ry
atom: Maximum radius for 4*pi*r*r*local-pseudopot. charge    2.25106
atom: Maximum radius for r*vlocal+2*Zval:    1.91306
GHOST: No ghost state for L =  0
GHOST: No ghost state for L =  1
GHOST: No ghost state for L =  2

KBgen: Kleinman-Bylander projectors: 
   l= 0   rc=  2.036604   el= -0.477180   Ekb= -6.081590   kbcos= -0.277285
   l= 1   rc=  2.195416   el=  0.001076   Ekb= -0.926943   kbcos= -0.034643
   l= 2   rc=  2.251056   el=  0.002010   Ekb= -0.130941   kbcos= -0.009788

KBgen: Total number of Kleinman-Bylander projectors:    9
atom: -------------------------------------------------------------------------

atom: SANKEY-TYPE ORBITALS:
atom: Selected multiple-zeta basis: split     

SPLIT: Orbitals with angular momentum L= 0

SPLIT: Basis orbitals for state 1s

SPLIT: PAO cut-off radius determined from an
SPLIT: energy shift=  0.002000 Ry

   izeta = 1
                 lambda =    1.000000
                     rc =    6.518340
                 energy =   -0.475305
                kinetic =    0.912139
    potential(screened) =   -1.387444
       potential(ionic) =   -1.907295

   izeta = 2
                 rmatch =    2.141150
              splitnorm =    0.620000
                 energy =    0.566467
                kinetic =    3.772856
    potential(screened) =   -3.206389
       potential(ionic) =   -3.759093

POLgen: Perturbative polarization orbital with L=  1

POLgen: Polarization orbital for state 1s

   izeta = 1
                     rc =    6.518340
                 energy =    0.533861
                kinetic =    1.121086
    potential(screened) =   -0.587225
       potential(ionic) =   -1.053027
atom: Total number of Sankey-type orbitals:  5

atm_pop: Valence configuration (for local Pseudopot. screening):
 1s( 1.00)                                                            
Vna: chval, zval:    1.00000   1.00000

Vna:  Cut-off radius for the neutral-atom potential:   6.518340

atom: _________________________________________________________________________

<basis_specs>
===============================================================================
N                    Z=   7    Mass=  14.010        Charge= 0.17977+309
Lmxo=1 Lmxkb= 3    BasisType=split      Semic=F
L=0  Nsemic=0  Cnfigmx=2
          i=1  nzeta=2  polorb=0  (2s)
            splnorm:   0.28000    
               vcte:    0.0000    
               rinn:    0.0000    
               qcoe:    0.0000    
               qyuk:    0.0000    
               qwid:   0.10000E-01
                rcs:    0.0000      0.0000    
            lambdas:    1.0000      1.0000    
L=1  Nsemic=0  Cnfigmx=2
          i=1  nzeta=2  polorb=1  (2p)
            splnorm:   0.28000    
               vcte:    0.0000    
               rinn:    0.0000    
               qcoe:    0.0000    
               qyuk:    0.0000    
               qwid:   0.10000E-01
                rcs:    0.0000      0.0000    
            lambdas:    1.0000      1.0000    
-------------------------------------------------------------------------------
L=0  Nkbl=1  erefs: 0.17977+309
L=1  Nkbl=1  erefs: 0.17977+309
L=2  Nkbl=1  erefs: 0.17977+309
L=3  Nkbl=1  erefs: 0.17977+309
===============================================================================
</basis_specs>

atom: Called for N                     (Z =   7)

read_vps: Pseudopotential generation method:
read_vps: ATM4.2.7  Troullier-Martins                       
Valence charge for ps generation:    5.00000

xc_check: Exchange-correlation functional:
xc_check: GGA Perdew, Burke & Ernzerhof 1996
V l=0 = -2*Zval/r beyond r=  1.2889
V l=1 = -2*Zval/r beyond r=  1.2889
V l=2 = -2*Zval/r beyond r=  3.4178
V l=3 = -2*Zval/r beyond r=  2.4084
All V_l potentials equal beyond r=  3.3753
This should be close to max(r_c) in ps generation
All pots = -2*Zval/r beyond r=  3.4178

VLOCAL1: 99.0% of the norm of Vloc inside      3.810 Ry
VLOCAL1: 99.9% of the norm of Vloc inside      8.683 Ry
atom: Maximum radius for 4*pi*r*r*local-pseudopot. charge    4.02088
atom: Maximum radius for r*vlocal+2*Zval:    3.54838
GHOST: No ghost state for L =  0
GHOST: No ghost state for L =  1
GHOST: No ghost state for L =  2
GHOST: No ghost state for L =  3

KBgen: Kleinman-Bylander projectors: 
   l= 0   rc=  3.417763   el= -1.365098   Ekb= -4.433130   kbcos= -0.707855
   l= 1   rc=  3.375302   el= -0.521201   Ekb=-13.264039   kbcos= -0.535594
   l= 2   rc=  3.872880   el=  0.001991   Ekb= -0.641094   kbcos= -0.062456
   l= 3   rc=  3.970931   el=  0.003093   Ekb= -0.474517   kbcos= -0.018236

KBgen: Total number of Kleinman-Bylander projectors:   16
atom: -------------------------------------------------------------------------

atom: SANKEY-TYPE ORBITALS:
atom: Selected multiple-zeta basis: split     

SPLIT: Orbitals with angular momentum L= 0

SPLIT: Basis orbitals for state 2s

SPLIT: PAO cut-off radius determined from an
SPLIT: energy shift=  0.002000 Ry

   izeta = 1
                 lambda =    1.000000
                     rc =    4.730425
                 energy =   -1.363399
                kinetic =    1.245246
    potential(screened) =   -2.608645
       potential(ionic) =   -8.121105

   izeta = 2
                 rmatch =    2.531849
              splitnorm =    0.280000
                 energy =   -0.959908
                kinetic =    2.409435
    potential(screened) =   -3.369343
       potential(ionic) =   -9.427975

SPLIT: Orbitals with angular momentum L= 1

SPLIT: Basis orbitals for state 2p

SPLIT: PAO cut-off radius determined from an
SPLIT: energy shift=  0.002000 Ry

   izeta = 1
                 lambda =    1.000000
                     rc =    5.924108
                 energy =   -0.519262
                kinetic =    3.672940
    potential(screened) =   -4.192202
       potential(ionic) =   -9.518354

   izeta = 2
                 rmatch =    2.531849
              splitnorm =    0.280000
                 energy =   -0.104258
                kinetic =    6.807538
    potential(screened) =   -6.911796
       potential(ionic) =  -13.149920

POLgen: Perturbative polarization orbital with L=  2

POLgen: Polarization orbital for state 2p

   izeta = 1
                     rc =    5.924108
                 energy =    1.427508
                kinetic =    2.872379
    potential(screened) =   -1.444871
       potential(ionic) =   -5.563644
atom: Total number of Sankey-type orbitals: 13

atm_pop: Valence configuration (for local Pseudopot. screening):
 2s( 2.00)                                                            
 2p( 3.00)                                                            
Vna: chval, zval:    5.00000   5.00000

Vna:  Cut-off radius for the neutral-atom potential:   5.924108

atom: _________________________________________________________________________

<basis_specs>
===============================================================================
Si                   Z=  14    Mass=  28.090        Charge= 0.17977+309
Lmxo=1 Lmxkb= 3    BasisType=split      Semic=F
L=0  Nsemic=0  Cnfigmx=3
          i=1  nzeta=2  polorb=0  (3s)
            splnorm:   0.28000    
               vcte:    0.0000    
               rinn:    0.0000    
               qcoe:    0.0000    
               qyuk:    0.0000    
               qwid:   0.10000E-01
                rcs:    0.0000      0.0000    
            lambdas:    1.0000      1.0000    
L=1  Nsemic=0  Cnfigmx=3
          i=1  nzeta=2  polorb=1  (3p)
            splnorm:   0.28000    
               vcte:    0.0000    
               rinn:    0.0000    
               qcoe:    0.0000    
               qyuk:    0.0000    
               qwid:   0.10000E-01
                rcs:    0.0000      0.0000    
            lambdas:    1.0000      1.0000    
-------------------------------------------------------------------------------
L=0  Nkbl=1  erefs: 0.17977+309
L=1  Nkbl=1  erefs: 0.17977+309
L=2  Nkbl=1  erefs: 0.17977+309
L=3  Nkbl=1  erefs: 0.17977+309
===============================================================================
</basis_specs>

atom: Called for Si                    (Z =  14)

read_vps: Pseudopotential generation method:
read_vps: ATM4.2.7  Troullier-Martins                       
Valence charge for ps generation:    4.00000

xc_check: Exchange-correlation functional:
xc_check: GGA Perdew, Burke & Ernzerhof 1996
V l=0 = -2*Zval/r beyond r=  2.7826
V l=1 = -2*Zval/r beyond r=  2.7826
V l=2 = -2*Zval/r beyond r=  2.9253
V l=3 = -2*Zval/r beyond r=  2.7826
All V_l potentials equal beyond r=  2.8530
This should be close to max(r_c) in ps generation
All pots = -2*Zval/r beyond r=  2.9253

VLOCAL1: 99.0% of the norm of Vloc inside      5.333 Ry
VLOCAL1: 99.9% of the norm of Vloc inside     12.154 Ry
atom: Maximum radius for 4*pi*r*r*local-pseudopot. charge    3.39869
atom: Maximum radius for r*vlocal+2*Zval:    2.96205
GHOST: No ghost state for L =  0
GHOST: No ghost state for L =  1
GHOST: No ghost state for L =  2
GHOST: No ghost state for L =  3

KBgen: Kleinman-Bylander projectors: 
   l= 0   rc=  3.075247   el= -0.794092   Ekb=  5.879390   kbcos=  0.167461
   l= 1   rc=  3.153101   el= -0.300068   Ekb=  2.642817   kbcos=  0.058301
   l= 2   rc=  3.273594   el=  0.001958   Ekb= -1.185135   kbcos= -0.104411
   l= 3   rc=  3.232927   el=  0.003046   Ekb= -0.497174   kbcos= -0.015889

KBgen: Total number of Kleinman-Bylander projectors:   16
atom: -------------------------------------------------------------------------

atom: SANKEY-TYPE ORBITALS:
atom: Selected multiple-zeta basis: split     

SPLIT: Orbitals with angular momentum L= 0

SPLIT: Basis orbitals for state 3s

SPLIT: PAO cut-off radius determined from an
SPLIT: energy shift=  0.002000 Ry

   izeta = 1
                 lambda =    1.000000
                     rc =    6.429618
                 energy =   -0.792283
                kinetic =    0.525293
    potential(screened) =   -1.317576
       potential(ionic) =   -3.744923

   izeta = 2
                 rmatch =    3.998416
              splitnorm =    0.280000
                 energy =   -0.583081
                kinetic =    1.069570
    potential(screened) =   -1.652651
       potential(ionic) =   -4.235185

SPLIT: Orbitals with angular momentum L= 1

SPLIT: Basis orbitals for state 3p

SPLIT: PAO cut-off radius determined from an
SPLIT: energy shift=  0.002000 Ry

   izeta = 1
                 lambda =    1.000000
                     rc =    8.464845
                 energy =   -0.298236
                kinetic =    0.785360
    potential(screened) =   -1.083596
       potential(ionic) =   -3.273779

   izeta = 2
                 rmatch =    4.587816
              splitnorm =    0.280000
                 energy =   -0.131871
                kinetic =    1.403687
    potential(screened) =   -1.535557
       potential(ionic) =   -4.015310

POLgen: Perturbative polarization orbital with L=  2

POLgen: Polarization orbital for state 3p

   izeta = 1
                     rc =    8.464845
                 energy =    0.321949
                kinetic =    1.055677
    potential(screened) =   -0.733728
       potential(ionic) =   -2.672950
atom: Total number of Sankey-type orbitals: 13

atm_pop: Valence configuration (for local Pseudopot. screening):
 3s( 2.00)                                                            
 3p( 2.00)                                                            
Vna: chval, zval:    4.00000   4.00000

Vna:  Cut-off radius for the neutral-atom potential:   8.464845

atom: _________________________________________________________________________

<basis_specs>
===============================================================================
O                    Z=   8    Mass=  16.000        Charge= 0.17977+309
Lmxo=1 Lmxkb= 3    BasisType=split      Semic=F
L=0  Nsemic=0  Cnfigmx=2
          i=1  nzeta=2  polorb=0  (2s)
            splnorm:   0.28000    
               vcte:    0.0000    
               rinn:    0.0000    
               qcoe:    0.0000    
               qyuk:    0.0000    
               qwid:   0.10000E-01
                rcs:    0.0000      0.0000    
            lambdas:    1.0000      1.0000    
L=1  Nsemic=0  Cnfigmx=2
          i=1  nzeta=2  polorb=1  (2p)
            splnorm:   0.28000    
               vcte:    0.0000    
               rinn:    0.0000    
               qcoe:    0.0000    
               qyuk:    0.0000    
               qwid:   0.10000E-01
                rcs:    0.0000      0.0000    
            lambdas:    1.0000      1.0000    
-------------------------------------------------------------------------------
L=0  Nkbl=1  erefs: 0.17977+309
L=1  Nkbl=1  erefs: 0.17977+309
L=2  Nkbl=1  erefs: 0.17977+309
L=3  Nkbl=1  erefs: 0.17977+309
===============================================================================
</basis_specs>

atom: Called for O                     (Z =   8)

read_vps: Pseudopotential generation method:
read_vps: ATM4.2.7  Troullier-Martins                       
Valence charge for ps generation:    6.00000

xc_check: Exchange-correlation functional:
xc_check: GGA Perdew, Burke & Ernzerhof 1996
V l=0 = -2*Zval/r beyond r=  1.1000
V l=1 = -2*Zval/r beyond r=  1.1000
V l=2 = -2*Zval/r beyond r=  2.2154
V l=3 = -2*Zval/r beyond r=  1.1000
All V_l potentials equal beyond r=  2.2154
This should be close to max(r_c) in ps generation
All pots = -2*Zval/r beyond r=  2.2154

VLOCAL1: 99.0% of the norm of Vloc inside      8.845 Ry
VLOCAL1: 99.9% of the norm of Vloc inside     20.157 Ry
atom: Maximum radius for 4*pi*r*r*local-pseudopot. charge    2.67231
atom: Maximum radius for r*vlocal+2*Zval:    2.32897
GHOST: No ghost state for L =  0
GHOST: No ghost state for L =  1
GHOST: No ghost state for L =  2
GHOST: No ghost state for L =  3

KBgen: Kleinman-Bylander projectors: 
   l= 0   rc=  2.243238   el= -1.759686   Ekb=**********   kbcos= -0.171774
   l= 1   rc=  2.328968   el= -0.663873   Ekb=-14.506792   kbcos= -0.519897
   l= 2   rc=  2.573941   el=  0.002031   Ekb= -1.137373   kbcos= -0.019581
   l= 3   rc=  2.606321   el=  0.003153   Ekb= -1.013546   kbcos= -0.003122

KBgen: Total number of Kleinman-Bylander projectors:   16
atom: -------------------------------------------------------------------------

atom: SANKEY-TYPE ORBITALS:
atom: Selected multiple-zeta basis: split     

SPLIT: Orbitals with angular momentum L= 0

SPLIT: Basis orbitals for state 2s

SPLIT: PAO cut-off radius determined from an
SPLIT: energy shift=  0.002000 Ry

   izeta = 1
                 lambda =    1.000000
                     rc =    4.243912
                 energy =   -1.758270
                kinetic =    3.286084
    potential(screened) =   -5.044353
       potential(ionic) =  -12.921184

   izeta = 2
                 rmatch =    2.187845
              splitnorm =    0.280000
                 energy =   -0.885018
                kinetic =    8.134434
    potential(screened) =   -9.019452
       potential(ionic) =  -17.710645

SPLIT: Orbitals with angular momentum L= 1

SPLIT: Basis orbitals for state 2p

SPLIT: PAO cut-off radius determined from an
SPLIT: energy shift=  0.002000 Ry

   izeta = 1
                 lambda =    1.000000
                     rc =    5.314825
                 energy =   -0.661986
                kinetic =    4.917472
    potential(screened) =   -5.579458
       potential(ionic) =  -13.236259

   izeta = 2
                 rmatch =    2.160663
              splitnorm =    0.280000
                 energy =   -0.068760
                kinetic =    9.183374
    potential(screened) =   -9.252135
       potential(ionic) =  -18.274251

POLgen: Perturbative polarization orbital with L=  2

POLgen: Polarization orbital for state 2p

   izeta = 1
                     rc =    5.314825
                 energy =    1.970580
                kinetic =    3.886128
    potential(screened) =   -1.915547
       potential(ionic) =   -7.749584
atom: Total number of Sankey-type orbitals: 13

atm_pop: Valence configuration (for local Pseudopot. screening):
 2s( 2.00)                                                            
 2p( 4.00)                                                            
Vna: chval, zval:    6.00000   6.00000

Vna:  Cut-off radius for the neutral-atom potential:   5.314825

atom: _________________________________________________________________________

prinput: Basis input ----------------------------------------------------------

PAO.BasisType split     

%block ChemicalSpeciesLabel
    1    1 H                       # Species index, atomic number, species label
    2    7 N                       # Species index, atomic number, species label
    3   14 Si                      # Species index, atomic number, species label
    4    8 O                       # Species index, atomic number, species label
%endblock ChemicalSpeciesLabel

%block PAO.Basis                 # Define Basis set
H                     1                    # Species label, number of l-shells
 n=1   0   2 P   1                   # n, l, Nzeta, Polarization, NzetaPol
   6.518      2.141   
   1.000      1.000   
N                     2                    # Species label, number of l-shells
 n=2   0   2                         # n, l, Nzeta 
   4.730      2.532   
   1.000      1.000   
 n=2   1   2 P   1                   # n, l, Nzeta, Polarization, NzetaPol
   5.924      2.532   
   1.000      1.000   
Si                    2                    # Species label, number of l-shells
 n=3   0   2                         # n, l, Nzeta 
   6.430      3.998   
   1.000      1.000   
 n=3   1   2 P   1                   # n, l, Nzeta, Polarization, NzetaPol
   8.465      4.588   
   1.000      1.000   
O                     2                    # Species label, number of l-shells
 n=2   0   2                         # n, l, Nzeta 
   4.244      2.188   
   1.000      1.000   
 n=2   1   2 P   1                   # n, l, Nzeta, Polarization, NzetaPol
   5.315      2.161   
   1.000      1.000   
%endblock PAO.Basis

prinput: ----------------------------------------------------------------------

Dumping basis to NetCDF file H.ion.nc
Dumping basis to NetCDF file N.ion.nc
Dumping basis to NetCDF file Si.ion.nc
Dumping basis to NetCDF file O.ion.nc
coor:   Atomic-coordinates input format  =     Cartesian coordinates
coor:                                          (in Angstroms)

siesta: Atomic coordinates (Bohr) and species
siesta:      1.95986   6.79065  -0.00000  1        1
siesta:      0.62480   5.29769  -0.00000  2        2
siesta:     -2.64497   6.13175   0.00000  3        3
siesta:     -2.93935   8.94743   0.00000  1        4
siesta:     -5.52363   3.18584  -0.00000  3        5
siesta:     -8.32645   3.64472  -0.00000  1        6
siesta:     -3.25900  -0.42973  -0.00000  3        7
siesta:     -4.70658  -3.32614  -0.00000  2        8
siesta:     -3.59118  -5.13502   0.00000  1        9
siesta:     -6.69386  -3.47819  -0.00000  1       10
siesta:     -0.01585  -0.32546   0.00000  2       11
siesta:      2.01565   2.18851  -0.00000  3       12
siesta:      5.05560   2.15297  -0.00000  4       13
siesta:     10.61355 -14.07759   0.00000  1       14
siesta:      8.65886 -13.66658   0.00000  2       15
siesta:      6.22979 -16.04876   0.00000  3       16
siesta:      7.18318 -18.71532  -0.00000  1       17
siesta:      3.13570 -15.14356   0.00000  2       18
siesta:      3.17659 -11.72506  -0.00000  3       19
siesta:      1.03072  -8.10005   0.00000  3       20
siesta:     -1.95457  -7.45403   0.00000  4       21
siesta:      3.27352  -5.43711   0.00000  2       22
siesta:      2.28576  -3.64645  -0.00000  1       23
siesta:      6.63017  -5.24735   0.00000  3       24
siesta:      7.81751  -2.22872   0.00000  2       25
siesta:      6.69523  -0.49602   0.00000  1       26
siesta:      9.79567  -1.98858  -0.00000  1       27
siesta:      8.75489  -7.70105  -0.00000  2       28
siesta:      7.16982 -10.55666   0.00000  3       29

siesta: System type = molecule  

initatomlists: Number of atoms, orbitals, and projectors:     29   297   394

siesta: ******************** Simulation parameters ****************************
siesta:
siesta: The following are some of the parameters of the simulation.
siesta: A complete list of the parameters used, including default values,
siesta: can be found in file out.fdf
siesta:
redata: Spin configuration                          = spin-orbit
redata: Number of spin components                   = 8
redata: Time-Reversal Symmetry                      = F
redata: Spin spiral                                 = F
############################################################
This spin-orbit implementation uses a local approximation.
From 4.2 and onwards the full non-local approximation is implemented
You are strongly advised to use >=4.2 versions!
############################################################
redata: Long output                                 =   F
redata: Number of Atomic Species                    =        4
redata: Charge density info will appear in .RHO file
redata: Write Mulliken Pop.                         = NO
redata: Matel table size (NRTAB)                    =     1024
redata: Mesh Cutoff                                 =   340.0000 Ry
redata: Net charge of the system                    =     0.0000 |e|
redata: Min. number of SCF Iter                     =        1
redata: Max. number of SCF Iter                     =      200
redata: SCF convergence failure will abort job
redata: SCF mix quantity                            = Hamiltonian
redata: Mix DM or H after convergence               =   F
redata: Recompute H after scf cycle                 =   F
redata: Mix DM in first SCF step                    =   T
redata: Write Pulay info on disk                    =   F
redata: New DM Occupancy tolerance                  = 0.000000000001
redata: No kicks to SCF
redata: DM Mixing Weight for Kicks                  =     0.5000
redata: Require Harris convergence for SCF          =   F
redata: Harris energy tolerance for SCF             =     0.000100 eV
redata: Require DM convergence for SCF              =   T
redata: DM tolerance for SCF                        =     0.000008
redata: Require EDM convergence for SCF             =   F
redata: EDM tolerance for SCF                       =     0.001000 eV
redata: Require H convergence for SCF               =   T
redata: Hamiltonian tolerance for SCF               =     0.000001 eV
redata: Require (free) Energy convergence for SCF   =   F
redata: (free) Energy tolerance for SCF             =     0.000100 eV
redata: Using Saved Data (generic)                  =   F
redata: Use continuation files for DM               =   T
redata: Neglect nonoverlap interactions             =   F
redata: Method of Calculation                       = Diagonalization
redata: Electronic Temperature                      =   299.9978 K
redata: Fix the spin of the system                  =   F
redata: Dynamics option                             = Verlet MD run
redata: Initial MD time step                        =        1
redata:   Final MD time step                        =        1
redata: Length of MD time step                      =     0.5000 fs
redata: Initial Temperature of MD run               =     0.0000 K
redata: Perform a MD quench                         =   F
mix.SCF: Pulay mixing                            = Pulay
mix.SCF:    Variant                              = stable
mix.SCF:    History steps                        = 6
mix.SCF:    Linear mixing weight                 =     0.250000
mix.SCF:    Mixing weight                        =     0.250000
mix.SCF:    SVD condition                        = 0.1000E-07
mix.SCF:    Restart steps                        = 24
mix.SCF:    Restart save steps                   = 3
mix.SCF: Spin-component mixing                   all
redata: Save all siesta data in one NC              =   F
redata: ***********************************************************************

%block SCF.Mixers
  Pulay
%endblock SCF.Mixers

%block SCF.Mixer.Pulay
  # Mixing method
  method pulay
  variant stable

  # Mixing options
  weight 0.2500
  weight.linear 0.2500
  history 6
  restart 24
  restart.save 3
%endblock SCF.Mixer.Pulay

Size of DM history Fstack: 3
Total number of electrons:    98.000000
Total ionic charge:    98.000000

* ProcessorY, Blocksize:    2  24


* Orbital distribution balance (max,min):    48    24


Time-reversal symmetry not used.

siesta: k-grid: Number of k-points =     1
siesta: k-grid: Cutoff (effective) =     5.000 Ang
siesta: k-grid: Supercell and displacements
siesta: k-grid:    1   0   0      0.000
siesta: k-grid:    0   1   0      0.000
siesta: k-grid:    0   0   1      0.000

diag: Algorithm                                     = ELPA-1stage
diag: Parallel over k                               =   F
diag: Use parallel 2D distribution                  =   T
diag: Parallel block-size                           = 24
diag: Parallel distribution                         =     2 x     4
diag: Used triangular part                          = Lower
diag: Absolute tolerance                            =  0.100E-15
diag: Orthogonalization factor                      =  0.100E-05
diag: Memory factor                                 =  1.0000


ts: **************************************************************
ts: Save H and S matrices                           =    F
ts: Save DM and EDM matrices                        =    F
ts: Only save the overlap matrix S                  =    F
ts: **************************************************************

************************ Begin: TS CHECKS AND WARNINGS ************************
************************ End: TS CHECKS AND WARNINGS **************************


                     ====================================
                        Begin MD step =      1
                     ====================================

outcoor: Atomic coordinates (Ang):                          
    1.03711479    3.59345352    0.00000000   1       1  H
    0.33062806    2.80341734    0.00000000   2       2  N
   -1.39965885    3.24478125    0.00000000   3       3  Si
   -1.55543853    4.73477351    0.00000000   1       4  H
   -2.92298047    1.68587373    0.00000000   3       5  Si
   -4.40616810    1.92870409    0.00000000   1       6  H
   -1.72458961   -0.22740243    0.00000000   3       7  Si
   -2.49061507   -1.76011917    0.00000000   2       8  N
   -1.90036852   -2.71733220    0.00000000   1       9  H
   -3.54223739   -1.84057940    0.00000000   1      10  H
   -0.00838955   -0.17222812    0.00000000   2      11  N
    1.06663307    1.15811072    0.00000000   3      12  Si
    2.67530639    1.13930046    0.00000000   4      13  O
    5.61644830   -7.44953905    0.00000000   1      14  H
    4.58206954   -7.23203760    0.00000000   2      15  N
    3.29666389   -8.49263600    0.00000000   3      16  Si
    3.80117524   -9.90371886    0.00000000   1      17  H
    1.65934232   -8.01362137    0.00000000   2      18  N
    1.68097912   -6.20463398    0.00000000   3      19  Si
    0.54543521   -4.28636135    0.00000000   3      20  Si
   -1.03431493   -3.94450034    0.00000000   4      21  O
    1.73226934   -2.87719605    0.00000000   2      22  N
    1.20957366   -1.92961761    0.00000000   1      23  H
    3.50853448   -2.77677601    0.00000000   3      24  Si
    4.13684451   -1.17938608    0.00000000   2      25  N
    3.54296161   -0.26248101    0.00000000   1      26  H
    5.18364407   -1.05231197    0.00000000   1      27  H
    4.63288658   -4.07521596    0.00000000   2      28  N
    3.79410501   -5.58634043    0.00000000   3      29  Si

outcell: Unit cell vectors (Ang):
       30.000000    0.000000    0.000000
        0.000000   45.000000    0.000000
        0.000000    0.000000   10.000000

outcell: Cell vector modules (Ang)   :   30.000000   45.000000   10.000000
outcell: Cell angles (23,13,12) (deg):     90.0000     90.0000     90.0000
outcell: Cell volume (Ang**3)        :  13500.0000
<dSpData1D:S at geom step 1
  <sparsity:sparsity for geom step 1
    nrows_g=297 nrows=48 sparsity=.1344 nnzs=11853, refcount: 8>
  <dData1D:(new from dSpData1D) n=11853, refcount: 1>
refcount: 1>
new_DM -- step:     1
Initializing Density Matrix...

Attempting to read DM from file... Failed...
DM filled with atomic data:
<dSpData2D:DM initialized from atoms
  <sparsity:sparsity for geom step 1
    nrows_g=297 nrows=48 sparsity=.1344 nnzs=11853, refcount: 9>
  <dData2D:DM n=11853 m=8, refcount: 1>
refcount: 1>
     spin moment: S , {S} =   56.00000   0.00000   0.00000  56.00000
No. of atoms with KB's overlaping orbs in proc 0. Max # of overlaps:      27     214

Initializing spin-orbit part of the Hamiltonian
  Adding spin-orbit effects for H 
  Adding spin-orbit effects for N 
  Adding spin-orbit effects for Si
  Adding spin-orbit effects for O 


New grid distribution:   1
           1       1:  180    1:  125    1:   15
           2       1:  180    1:  125   16:   30
           3       1:  180    1:  125   31:   45
           4       1:  180    1:  125   46:   60
           5       1:  180  126:  250    1:   15
           6       1:  180  126:  250   16:   30
           7       1:  180  126:  250   31:   45
           8       1:  180  126:  250   46:   60

InitMesh: MESH =   360 x   500 x   120 =    21600000
InitMesh: (bp) =   180 x   250 x    60 =     2700000
InitMesh: Mesh cutoff (required, used) =   340.000   341.206 Ry
ExtMesh (bp) on 0 =   288 x   225 x   123 =     7970400
New grid distribution:   2
           1      25:  180   19:  219    1:   60
           2      25:  180    1:   18    1:   60
           3       1:   24  195:  219    1:   60
           4       1:   23  236:  250    1:   60
           5       1:   24    1:  194    1:   60
           6      24:  180  220:  237    1:   60
           7      24:  180  238:  250    1:   60
           8       1:   23  220:  235    1:   60
New grid distribution:   3
           1      40:  180   20:  203    1:   60
           2      36:  180  232:  250    1:   60
           3      40:  180    1:   19    1:   60
           4       1:   35  204:  226    1:   60
           5       1:   39   32:  203    1:   60
           6      36:  180  204:  231    1:   60
           7       1:   39    1:   31    1:   60
           8       1:   35  227:  250    1:   60
Setting up quadratic distribution...
ExtMesh (bp) on 0 =   264 x   301 x   168 =    13349952
PhiOnMesh: Number of (b)points on node 0 =              1881360
PhiOnMesh: nlist on node 0 =              1793679

stepf: Fermi-Dirac step function

siesta: Program's energy decomposition (eV):
siesta: Ebs     =      -587.973087
siesta: Eions   =      3585.165840
siesta: Ena     =       381.486884
siesta: Ekin    =      3362.499560
siesta: Enl     =     -3292.402928
siesta: Eso     =        -0.003452
siesta: Edftu   =         0.000000
siesta: DEna    =       154.733764
siesta: DUscf   =        77.695765
siesta: DUext   =         0.000000
siesta: Exc     =     -1203.514595
siesta: eta*DQ  =         0.000000
siesta: Emadel  =         0.000000
siesta: Emeta   =         0.000000
siesta: Emolmec =         0.000000
siesta: Ekinion =         0.000000
siesta: Eharris =     -4029.016617
siesta: Etot    =     -4104.670841
siesta: FreeEng =     -4104.671872

        iscf     Eharris(eV)        E_KS(eV)     FreeEng(eV)     dDmax    Ef(eV) dHmax(eV)
   scf:    1    -4029.016617    -4104.670841    -4104.671872  0.955906 -4.906428 20.020282
     spin moment: S , {S} =    2.00574  -0.00000  -0.00000   2.00574
timer: Routine,Calls,Time,% = IterSCF        1      25.001  28.63
   scf:    2    -4149.152891    -4138.312194    -4138.313567  0.471092 -4.123210 11.543397
     spin moment: S , {S} =    1.99285   0.00000   0.00000   1.99285
   scf:    3    -4109.131317    -4135.264201    -4135.285340  0.437952 -4.267596 12.326823
     spin moment: S , {S} =    2.00162   0.00000   0.00000   2.00162
   scf:    4    -4151.705515    -4146.619769    -4146.619770  0.307090 -3.806031  6.032006
     spin moment: S , {S} =    0.00009   0.00000   0.00000   0.00009
   scf:    5    -4147.828527    -4147.318500    -4147.318500  0.039544 -3.573336  4.431893
     spin moment: S , {S} =    0.00006   0.00000   0.00000   0.00006
   scf:    6    -4148.084060    -4147.703760    -4147.703760  0.024677 -3.533482  2.224235
     spin moment: S , {S} =    0.00003   0.00000   0.00000   0.00003
   scf:    7    -4148.064471    -4147.884080    -4147.884080  0.021214 -3.476000  0.895628
     spin moment: S , {S} =    0.00001   0.00000  -0.00000   0.00001
   scf:    8    -4148.005755    -4147.943518    -4147.943518  0.012580 -3.656228  0.486585
     spin moment: S , {S} =    0.00000  -0.00000   0.00000   0.00000
   scf:    9    -4147.983567    -4147.962995    -4147.962995  0.007193 -3.643270  0.324182
     spin moment: S , {S} =    0.00000   0.00000  -0.00000   0.00000
   scf:   10    -4148.010675    -4147.983379    -4147.983379  0.016577 -3.671858  0.146022
     spin moment: S , {S} =    0.00000  -0.00000  -0.00000  -0.00000
   scf:   11    -4147.986753    -4147.984980    -4147.984980  0.004821 -3.663794  0.052337
     spin moment: S , {S} =    0.00000  -0.00000   0.00000   0.00000
   scf:   12    -4147.985909    -4147.985439    -4147.985439  0.002208 -3.658570  0.031636
     spin moment: S , {S} =    0.00000   0.00000   0.00000   0.00000
   scf:   13    -4147.985996    -4147.985702    -4147.985702  0.001868 -3.657680  0.025820
     spin moment: S , {S} =    0.00000   0.00000   0.00000   0.00000
   scf:   14    -4147.986225    -4147.985937    -4147.985937  0.002409 -3.656243  0.017764
     spin moment: S , {S} =    0.00000   0.00000   0.00000   0.00000
   scf:   15    -4147.986292    -4147.986085    -4147.986085  0.002551 -3.656457  0.010061
     spin moment: S , {S} =    0.00000   0.00000   0.00000   0.00000
   scf:   16    -4147.986194    -4147.986128    -4147.986128  0.001585 -3.656443  0.004935
     spin moment: S , {S} =    0.00000   0.00000   0.00000   0.00000
   scf:   17    -4147.986147    -4147.986136    -4147.986136  0.000657 -3.656704  0.002711
     spin moment: S , {S} =    0.00000   0.00000   0.00000   0.00000
   scf:   18    -4147.986141    -4147.986138    -4147.986138  0.000316 -3.656796  0.001198
     spin moment: S , {S} =    0.00000   0.00000   0.00000  -0.00000
   scf:   19    -4147.986140    -4147.986139    -4147.986139  0.000145 -3.656812  0.000656
     spin moment: S , {S} =    0.00000   0.00000   0.00000  -0.00000
   scf:   20    -4147.986139    -4147.986139    -4147.986139  0.000054 -3.656768  0.000435
     spin moment: S , {S} =    0.00000   0.00000   0.00000  -0.00000
   scf:   21    -4147.986139    -4147.986139    -4147.986139  0.000078 -3.656725  0.000244
     spin moment: S , {S} =    0.00000  -0.00000   0.00000  -0.00000
   scf:   22    -4147.986139    -4147.986139    -4147.986139  0.000021 -3.656697  0.000093
     spin moment: S , {S} =    0.00000   0.00000   0.00000  -0.00000
   scf:   23    -4147.986139    -4147.986139    -4147.986139  0.000008 -3.656694  0.000045
     spin moment: S , {S} =    0.00000   0.00000   0.00000  -0.00000
   scf:   24    -4147.986139    -4147.986139    -4147.986139  0.000006 -3.656690  0.000017
     spin moment: S , {S} =    0.00000   0.00000   0.00000  -0.00000
mix: Pulay -- resetting history
   scf:   25    -4147.986139    -4147.986139    -4147.986139  0.000002 -3.656690  0.000010
     spin moment: S , {S} =    0.00000   0.00000   0.00000  -0.00000
   scf:   26    -4147.986139    -4147.986139    -4147.986139  0.000000 -3.656690  0.000007
     spin moment: S , {S} =    0.00000   0.00000   0.00000  -0.00000
   scf:   27    -4147.986139    -4147.986139    -4147.986139  0.000001 -3.656690  0.000004
     spin moment: S , {S} =    0.00000   0.00000   0.00000  -0.00000
   scf:   28    -4147.986139    -4147.986139    -4147.986139  0.000000 -3.656690  0.000003
     spin moment: S , {S} =    0.00000   0.00000   0.00000  -0.00000
   scf:   29    -4147.986139    -4147.986139    -4147.986139  0.000000 -3.656689  0.000001
     spin moment: S , {S} =    0.00000   0.00000   0.00000  -0.00000
   scf:   30    -4147.986139    -4147.986139    -4147.986139  0.000000 -3.656689  0.000001
     spin moment: S , {S} =    0.00000   0.00000   0.00000  -0.00000

SCF Convergence by DM+H criterion
max |DM_out - DM_in|         :     0.0000002053
max |H_out - H_in|      (eV) :     0.0000006397
SCF cycle converged after 30 iterations

Using DM_out to compute the final energy and forces
No. of atoms with KB's overlaping orbs in proc 0. Max # of overlaps:      27     214

siesta: E_KS(eV) =            -4147.9861

siesta: E_KS - E_eggbox =     -4147.9861
     spin moment: S , {S} =    0.00000   0.00000   0.00000  -0.00000

siesta: Atomic forces (eV/Ang):
     1    0.002732    0.010170    0.000000
     2    0.029757    0.050886   -0.000000
     3    0.005527   -0.009166   -0.000000
     4   -0.028434    0.146956    0.000000
     5    0.002021    0.006243    0.000000
     6    0.023303    0.012786    0.000000
     7    0.011804   -0.019539   -0.000000
     8   -0.035267    0.055219    0.000000
     9    0.008774    0.011639    0.000000
    10    0.029993    0.006982   -0.000000
    11    0.014922    0.001685   -0.000000
    12    0.009644   -0.011765   -0.000000
    13   -2.227774    2.556014    0.000000
    14   -0.020240    0.000147   -0.000000
    15   -0.001741    0.004939    0.000000
    16   -0.013010   -0.008400   -0.000000
    17   -0.009209    0.041447    0.000000
    18   -0.037673    0.006381    0.000000
    19   -0.003848   -0.007332   -0.000000
    20    0.014236   -0.014292    0.000000
    21    0.733144   -3.907617    0.000000
    22   -0.026187   -0.016151   -0.000000
    23    0.001148   -0.090171   -0.000000
    24    0.002882   -0.007543    0.000000
    25    0.003568    0.000548   -0.000000
    26    0.036298    0.006380    0.000000
    27   -0.086266   -0.093297   -0.000000
    28    0.002918   -0.000807    0.000000
    29   -0.007250   -0.006867    0.000000
----------------------------------------
   Tot   -1.564226   -1.274520    0.000000
----------------------------------------
   Max    3.907617
   Res    0.560866    sqrt( Sum f_i^2 / 3N )
----------------------------------------
   Max    3.907617    constrained

Stress tensor Voigt[x,y,z,yz,xz,xy] (kbar):        0.21       -0.06       -0.04        0.00       -0.00        0.02
(Free)E + p*V (eV/cell)    -4148.3077
Target enthalpy (eV/cell)    -4147.9861

siesta: Stress tensor (static) (eV/Ang**3):
         0.000133    0.000013    0.000000
         0.000013   -0.000039    0.000000
        -0.000000    0.000000   -0.000023

siesta: Pressure (static):         -0.03815811  kBar

siesta: Stress tensor (total) (eV/Ang**3):
         0.000133    0.000013    0.000000
         0.000013   -0.000039    0.000000
        -0.000000    0.000000   -0.000023

siesta: Pressure (total):         -0.03815811  kBar

siesta: Temp_ion =       0.000 K

siesta: Eigenvalues (eV):
ik =     1
  -22.6951  -22.6951  -22.3453  -22.3453  -21.3376  -21.3376  -21.0881  -21.0881  -20.8181  -20.8181
  -20.5776  -20.5776  -20.1265  -20.1265  -19.5258  -19.5258  -19.3609  -19.3609  -19.2111  -19.2111
  -14.6936  -14.6936  -13.6751  -13.6751  -13.1444  -13.1444  -12.9317  -12.9317  -12.8773  -12.8773
  -12.4959  -12.4959  -12.4661  -12.4661  -11.9931  -11.9931  -11.7144  -11.7144  -11.5622  -11.5622
  -10.9019  -10.9019  -10.7185  -10.7185  -10.4807  -10.4807  -10.2463  -10.2463  -10.0841  -10.0841
   -9.6061   -9.6061   -8.9837   -8.9837   -8.8627   -8.8627   -8.6842   -8.6842   -8.5698   -8.5698
   -8.3565   -8.3565   -8.2831   -8.2831   -8.2606   -8.2606   -7.8348   -7.8348   -7.7460   -7.7460
   -7.4850   -7.4850   -7.2284   -7.2284   -7.1602   -7.1602   -7.0026   -7.0026   -6.8218   -6.8218
   -6.6036   -6.6036   -6.4726   -6.4726   -6.3040   -6.3040   -6.2815   -6.2815   -6.1627   -6.1627
   -5.9680   -5.9680   -5.8103   -5.8103   -5.4694   -5.4694   -4.1772   -4.1772   -3.1360   -3.1360
   -2.2442   -2.2442   -2.2148   -2.2148   -2.0721   -2.0721   -1.7921   -1.7921   -1.7679   -1.7679
   -1.7080   -1.7080   -1.5474   -1.5474   -1.5146   -1.5146   -1.1339   -1.1339   -1.0441   -1.0441
   -0.8378   -0.8378   -0.4217   -0.4217   -0.3710   -0.3710   -0.1915   -0.1915    0.5234    0.5234
    0.5862    0.5862    0.6731    0.6731    0.7597    0.7597    1.1219    1.1219    1.2425    1.2425
    1.4930    1.4930    1.5189    1.5189    1.5698    1.5698    1.7058    1.7058    2.1315    2.1315
    2.2409    2.2409    2.7584    2.7584    2.8301    2.8301    2.8862    2.8862    2.9795    2.9795
    3.0643    3.0643    3.2195    3.2195    3.3744    3.3744    3.5533    3.5533    3.6682    3.6682
    3.9364    3.9364    4.1125    4.1125    4.2151    4.2151    4.2924    4.2924    4.5051    4.5051
    4.6579    4.6579    4.7419    4.7419    4.8786    4.8786    5.1652    5.1652    5.3051    5.3051
    5.4507    5.4507    5.4624    5.4624    5.8244    5.8244    5.9274    5.9274    6.0242    6.0242
    6.0804    6.0804    6.4897    6.4897    6.5409    6.5409    6.6569    6.6569    6.7241    6.7241
    6.8801    6.8801    7.0156    7.0156    7.1270    7.1270    7.2591    7.2591    7.3269    7.3269
    7.4380    7.4380    7.8288    7.8288    7.8541    7.8541    8.1529    8.1529    8.1605    8.1605
    8.2762    8.2762    8.5731    8.5731    8.6588    8.6588    8.7823    8.7823    8.8601    8.8601
    8.9161    8.9161    8.9626    8.9626    9.2243    9.2243    9.2644    9.2644    9.5211    9.5211
    9.6984    9.6984   10.0008   10.0008   10.1134   10.1134   10.1711   10.1711   10.2875   10.2875
   10.4408   10.4408   10.7713   10.7713   10.9593   10.9593   11.3453   11.3453   11.3958   11.3958
   11.4609   11.4609   11.7634   11.7634   12.4674   12.4674   12.5181   12.5181   12.5405   12.5405
   12.6038   12.6038   12.6938   12.6938   12.8903   12.8903   13.1948   13.1948   13.4510   13.4510
   13.6858   13.6858   13.8161   13.8161   14.0112   14.0112   14.1122   14.1122   14.2348   14.2348
   14.3540   14.3540   14.6293   14.6293   15.0738   15.0738   15.1451   15.1451   15.1488   15.1488
   15.5596   15.5596   16.3736   16.3736   16.7846   16.7846   16.8014   16.8014   16.9416   16.9416
   17.3560   17.3560   17.7307   17.7307   18.2295   18.2295   18.7392   18.7392   19.1357   19.1357
   19.3770   19.3770   20.2353   20.2353   20.3557   20.3557   20.5578   20.5578   20.8366   20.8366
   21.3933   21.3933   22.1928   22.1928   22.4048   22.4048   22.7870   22.7870   23.6763   23.6763
   23.7919   23.7919   24.1481   24.1481   24.2368   24.2368   24.8688   24.8688   25.3867   25.3867
   25.9806   25.9806   26.2685   26.2685   26.8005   26.8005   27.8103   27.8103   28.9416   28.9416
   29.6543   29.6543   29.8829   29.8829   30.2134   30.2134   30.4840   30.4840   30.7871   30.7871
   31.0269   31.0269   31.1277   31.1277   31.4676   31.4676   31.7506   31.7506   31.8504   31.8504
   32.8589   32.8589   33.4194   33.4194   33.9940   33.9940   34.0595   34.0595   34.0701   34.0701
   35.3438   35.3438   35.4713   35.4713   35.8940   35.8940   35.9313   35.9313   36.3909   36.3909
   37.1271   37.1271   37.2143   37.2143   37.2849   37.2849   37.4940   37.4940   38.7025   38.7025
   38.9573   38.9573   39.1847   39.1847   39.7865   39.7865   39.9791   39.9791   40.4037   40.4037
   40.7407   40.7407   40.8162   40.8162   41.6066   41.6066   41.6737   41.6737   41.8318   41.8318
   42.2872   42.2872   42.7838   42.7838   43.0323   43.0323   43.5450   43.5450   44.1513   44.1513
   44.1747   44.1747   44.3601   44.3601   44.5966   44.5966   44.7257   44.7257   45.1672   45.1672
   45.3960   45.3960   45.5919   45.5919   46.0858   46.0858   46.4129   46.4129   46.7776   46.7776
   47.0552   47.0552   47.9845   47.9845   48.3450   48.3450   49.0004   49.0004   50.0350   50.0350
   50.1158   50.1158   50.4208   50.4208   50.5401   50.5401   50.8209   50.8209   51.3645   51.3645
   51.4944   51.4944   51.8084   51.8084   52.5704   52.5704   52.9875   52.9875   54.2613   54.2613
   54.4218   54.4218   54.5136   54.5136   55.4255   55.4255   55.8822   55.8822   56.2660   56.2660
   56.3634   56.3634   56.8648   56.8648   58.3984   58.3984   58.5180   58.5180   59.1027   59.1027
   60.1700   60.1700   60.4288   60.4288   61.0800   61.0800   61.4638   61.4638   61.9518   61.9518
   62.7419   62.7419   62.8515   62.8515   63.1501   63.1501   63.7913   63.7913   66.2060   66.2060
   67.0553   67.0553   67.8943   67.8943   69.1245   69.1245   69.6986   69.6986   70.2290   70.2290
   70.7746   70.7746   71.8469   71.8469   72.1450   72.1450   75.4759   75.4759   87.4902   87.4902
   90.1665   90.1665   90.5306   90.5306   94.5009   94.5009   95.0490   95.0490   97.2580   97.2580
  100.7162  100.7162  101.1710  101.1710  102.2953  102.2953  104.3928  104.3928  105.7708  105.7708
  115.4794  115.4794  118.0349  118.0349  125.2466  125.2466  128.4131  128.4131  138.5999  138.5999
  145.3107  145.3107  147.0573  147.0573
siesta: Fermi energy =      -3.656689 eV

siesta: Program's energy decomposition (eV):
siesta: Ebs     =     -1122.412310
siesta: Eions   =      3585.165840
siesta: Ena     =       381.486884
siesta: Ekin    =      2910.134302
siesta: Enl     =     -2793.856151
siesta: Eso     =        -0.004318
siesta: Edftu   =         0.000000
siesta: DEna    =        48.008119
siesta: DUscf   =        13.667747
siesta: DUext   =         0.000000
siesta: Exc     =     -1122.256883
siesta: eta*DQ  =         0.000000
siesta: Emadel  =         0.000000
siesta: Emeta   =         0.000000
siesta: Emolmec =         0.000000
siesta: Ekinion =         0.000000
siesta: Eharris =     -4147.986139
siesta: Etot    =     -4147.986139
siesta: FreeEng =     -4147.986139

siesta: Final energy (eV):
siesta:  Band Struct. =   -1122.412310
siesta:       Kinetic =    2910.134302
siesta:       Hartree =   16033.872306
siesta:       Edftu   =       0.000000
siesta:       Eso     =      -0.004318
siesta:    Ext. field =       0.000000
siesta:   Exch.-corr. =   -1122.256883
siesta:  Ion-electron =  -34643.276686
siesta:       Ion-ion =   12673.545140
siesta:       Ekinion =       0.000000
siesta:         Total =   -4147.986139
siesta:         Fermi =      -3.656689

siesta: Atomic forces (eV/Ang):
siesta:      1    0.002732    0.010170    0.000000
siesta:      2    0.029757    0.050886   -0.000000
siesta:      3    0.005527   -0.009166   -0.000000
siesta:      4   -0.028434    0.146956    0.000000
siesta:      5    0.002021    0.006243    0.000000
siesta:      6    0.023303    0.012786    0.000000
siesta:      7    0.011804   -0.019539   -0.000000
siesta:      8   -0.035267    0.055219    0.000000
siesta:      9    0.008774    0.011639    0.000000
siesta:     10    0.029993    0.006982   -0.000000
siesta:     11    0.014922    0.001685   -0.000000
siesta:     12    0.009644   -0.011765   -0.000000
siesta:     13   -2.227774    2.556014    0.000000
siesta:     14   -0.020240    0.000147   -0.000000
siesta:     15   -0.001741    0.004939    0.000000
siesta:     16   -0.013010   -0.008400   -0.000000
siesta:     17   -0.009209    0.041447    0.000000
siesta:     18   -0.037673    0.006381    0.000000
siesta:     19   -0.003848   -0.007332   -0.000000
siesta:     20    0.014236   -0.014292    0.000000
siesta:     21    0.733144   -3.907617    0.000000
siesta:     22   -0.026187   -0.016151   -0.000000
siesta:     23    0.001148   -0.090171   -0.000000
siesta:     24    0.002882   -0.007543    0.000000
siesta:     25    0.003568    0.000548   -0.000000
siesta:     26    0.036298    0.006380    0.000000
siesta:     27   -0.086266   -0.093297   -0.000000
siesta:     28    0.002918   -0.000807    0.000000
siesta:     29   -0.007250   -0.006867    0.000000
siesta: ----------------------------------------
siesta:    Tot   -1.564226   -1.274520    0.000000

siesta: Stress tensor (static) (eV/Ang**3):
siesta:     0.000133    0.000013    0.000000
siesta:     0.000013   -0.000039    0.000000
siesta:    -0.000000    0.000000   -0.000023

siesta: Cell volume =      13500.000000 Ang**3

siesta: Pressure (static):
siesta:                Solid            Molecule  Units
siesta:          -0.00000026         -0.00000315  Ry/Bohr**3
siesta:          -0.00002382         -0.00028923  eV/Ang**3
siesta:          -0.03815811         -0.46340195  kBar
(Free)E+ p_basis*V_orbitals  =       -4128.135722
(Free)Eharris+ p_basis*V_orbitals  =       -4128.135722
     spin moment: S , {S} =    0.00000   0.00000   0.00000  -0.00000

siesta: Electric dipole (a.u.)  =   -0.034017    1.442163   -0.000000
siesta: Electric dipole (Debye) =   -0.086462    3.665614   -0.000000

cite: Please see "GC.bib" for an exhaustive BiBTeX file.
cite: Please clearly indicate Siesta version in published work: v4.1.5-1-g384057250
cite: This calculation has made use of the following articles
cite: which are encouraged to be cited in a published work.
        Primary SIESTA paper
          DOI: www.doi.org/10.1088/0953-8984/14/11/302
        Spin-orbit coupling (on-site approximation)
          DOI: www.doi.org/10.1088/0953-8984/19/19/489001


WARNING: alloc-realloc-dealloc name mismatch
         Name: atomlist isa
         Size:              -116. Bytes
         Node:     0
         Subsequent mismatches will not be reported
>> End of run:  18-FEB-2024  21:18:05
Job completed
