Siesta Version  : v4.1.5-1-g384057250
Architecture    : gcc
Compiler version: GNU Fortran (Ubuntu 11.4.0-1ubuntu1~22.04) 11.4.0
Compiler flags  : mpifort -O2 -fPIC -ftree-vectorize -fallow-argument-mismatch
PP flags        : -DFC_HAVE_ABORT -DMPI -DSIESTA__FLOOK -DSIESTA__METIS -DSIESTA__MUMPS -DCDF -DNCDF -DNCDF_4 -DNCDF_PARALLEL -DSIESTA__MRRR -DSIESTA__ELPA
Libraries       : libncdf.a libfdict.a  -lflookall -ldl -lnetcdff -lnetcdf -lhdf5_hl -lhdf5 -lhdf5_fortran -lz -lscalapack-openmpi -lopenblas -lmetis -lzmumps -lcmumps -ldmumps -lmumps_common -lpord -lsmumps -lesmumps -lscotch -lscotcherr -fopenmp -lelpa
PARALLEL version
NetCDF support
NetCDF-4 support
NetCDF-4 MPI-IO support
METIS ordering support
Lua support

* Running on 8 nodes in parallel
>> Start of run:   1-FEB-2024  18:50:40

                           ***********************       
                           *  WELCOME TO SIESTA  *       
                           ***********************       

reinit: Reading from standard input
reinit: Dumped input in INPUT_TMP.31068
************************** Dump of input data file ****************************
# mpirun -np 4 siesta-4.1.5 < AT.fdf > AT.out &
SystemLabel      AT
NumberOfAtoms    30
NumberOfSpecies  4
%block ChemicalSpeciesLabel
    1    1  H
    2    7  N
    3   14  Si
    4    8  O
%endblock ChemicalSpeciesLabel
############################################
# This overrides Defaults.fdf configuration
############################################
MD.TypeOfRun                Verlet # CG, Verlet
MD.Steps                    0
MaxSCFIterations            200
SCF.MustConverge            F
AtomicCoordinatesFormat NotScaledCartesianAng
%block AtomicCoordinatesAndAtomicSpecies
    2.28494382 -5.19529124 0.0  1  1  H
    1.37433094 -4.6647107 0.0  2  2  N
    -0.21830245 -5.49458215 0.0  3  3  Si
    -0.17484108 -6.98516892 0.0  1  4  H
    -1.66171682 -4.58600741 0.0  2  5  N
    -1.09026419 -2.87456374 0.0  3  6  Si
    -1.53038332 -0.70765692 0.0  3  7  Si
    -3.14415959 -0.09186471 0.0  2  8  N
    -3.40268075 0.95848335 0.0  1  9  H
    -3.95073599 -0.76720972 0.0  1  10  H
    -0.17836637 0.41349951 0.0  2  11  N
    1.49520211 -0.0473996 0.0  3  12  Si
    2.45603905 1.10727302 0.0  1  13  H
    2.30451743 -1.58574382 0.0  2  14  N
    1.10725559 -2.84610319 0.0  3  15  Si
    0.40270167797727097 8.74848510745581 0.0  1  16  H
    -0.40600900202272905 8.05627922745581 0.0  2  17  N
    -2.0625988420227293 8.76939932745581 0.0  3  18  Si
    -1.965733672022729 10.28012453745581 0.0  1  19  H
    -3.788755192022729 7.426351197455809 0.0  3  20  Si
    -6.143209442022729 7.41836426745581 0.0  3  21  Si
    -6.7056275620227295 8.15285391745581 -1.20183078  1  22  H
    -6.443023192022729 5.939273137455809 -0.08618332  1  23  H
    -6.705740022022729 7.98319672745581 1.28814761  1  24  H
    -2.859364552022729 5.35577996745581 0.0  3  25  Si
    -3.808832912022729 4.06724383745581 0.0  4  26  O
    -1.0684196820227292 5.18204449745581 0.0  2  27  N
    -0.737428322022729 4.14968751745581 0.0  1  28  H
    0.2400385379772709 6.376590917455809 0.0  3  29  Si
    1.8059754679772708 6.10934406745581 0.0  4  30  O
%endblock AtomicCoordinatesAndAtomicSpecies
#############
# Unit Cell
#############
LatticeConstant 1.0 Ang
%block LatticeVectors
    30.00000    0.000000    0.000000
    0.000000    45.00000    0.000000
    0.000000    0.000000    10.00000
%endblock LatticeVectors
%include ../../../../Defaults.fdf
************************** End of input data file *****************************

reinit: -----------------------------------------------------------------------
reinit: System Name: 
reinit: -----------------------------------------------------------------------
reinit: System Label: AT
reinit: -----------------------------------------------------------------------

initatom: Reading input for the pseudopotentials and atomic orbitals ----------
Species number:   1 Atomic number:    1 Label: H
Species number:   2 Atomic number:    7 Label: N
Species number:   3 Atomic number:   14 Label: Si
Species number:   4 Atomic number:    8 Label: O

Ground state valence configuration:   1s01
Reading pseudopotential information in formatted form from H.psf

Pseudopotential generated from a relativistic atomic calculation

Valence configuration for pseudopotential generation:
1s( 1.00) rc: 0.01
2p( 0.00) rc: 0.60
3d( 0.00) rc: 1.99
4f( 0.00) rc: 2.49
Ground state valence configuration:   2s02  2p03
Reading pseudopotential information in formatted form from N.psf

Pseudopotential generated from a relativistic atomic calculation

Valence configuration for pseudopotential generation:
2s( 2.00) rc: 0.94
2p( 3.00) rc: 0.59
3d( 0.00) rc: 3.46
4f( 0.00) rc: 2.47
Ground state valence configuration:   3s02  3p02
Reading pseudopotential information in formatted form from Si.psf

Pseudopotential generated from a relativistic atomic calculation

Valence configuration for pseudopotential generation:
3s( 2.00) rc: 1.67
3p( 2.00) rc: 2.04
3d( 0.00) rc: 2.89
4f( 0.00) rc: 2.49
Ground state valence configuration:   2s02  2p04
Reading pseudopotential information in formatted form from O.psf

Pseudopotential generated from a relativistic atomic calculation

Valence configuration for pseudopotential generation:
2s( 2.00) rc: 0.45
2p( 4.00) rc: 0.92
3d( 0.00) rc: 2.24
4f( 0.00) rc: 0.25
For H, standard SIESTA heuristics set lmxkb to 2
 (one more than the basis l, including polarization orbitals).
Use PS.lmax or PS.KBprojectors blocks to override.
For N, standard SIESTA heuristics set lmxkb to 3
 (one more than the basis l, including polarization orbitals).
Use PS.lmax or PS.KBprojectors blocks to override.
For Si, standard SIESTA heuristics set lmxkb to 3
 (one more than the basis l, including polarization orbitals).
Use PS.lmax or PS.KBprojectors blocks to override.
For O, standard SIESTA heuristics set lmxkb to 3
 (one more than the basis l, including polarization orbitals).
Use PS.lmax or PS.KBprojectors blocks to override.

<basis_specs>
===============================================================================
H                    Z=   1    Mass=  1.0100        Charge= 0.17977+309
Lmxo=0 Lmxkb= 2    BasisType=split      Semic=F
L=0  Nsemic=0  Cnfigmx=1
          i=1  nzeta=2  polorb=1  (1s)
            splnorm:   0.62000    
               vcte:    0.0000    
               rinn:    0.0000    
               qcoe:    0.0000    
               qyuk:    0.0000    
               qwid:   0.10000E-01
                rcs:    0.0000      0.0000    
            lambdas:    1.0000      1.0000    
-------------------------------------------------------------------------------
L=0  Nkbl=1  erefs: 0.17977+309
L=1  Nkbl=1  erefs: 0.17977+309
L=2  Nkbl=1  erefs: 0.17977+309
===============================================================================
</basis_specs>

atom: Called for H                     (Z =   1)

read_vps: Pseudopotential generation method:
read_vps: ATM4.2.7  Troullier-Martins                       
Valence charge for ps generation:    1.00000

xc_check: Exchange-correlation functional:
xc_check: GGA Perdew, Burke & Ernzerhof 1996
V l=0 = -2*Zval/r beyond r=  0.0098
V l=1 = -2*Zval/r beyond r=  0.5817
V l=2 = -2*Zval/r beyond r=  1.9372
All V_l potentials equal beyond r=  1.9372
This should be close to max(r_c) in ps generation
All pots = -2*Zval/r beyond r=  1.9372

VLOCAL1: 99.0% of the norm of Vloc inside     11.567 Ry
VLOCAL1: 99.9% of the norm of Vloc inside     26.362 Ry
atom: Maximum radius for 4*pi*r*r*local-pseudopot. charge    2.25106
atom: Maximum radius for r*vlocal+2*Zval:    1.91306
GHOST: No ghost state for L =  0
GHOST: No ghost state for L =  1
GHOST: No ghost state for L =  2

KBgen: Kleinman-Bylander projectors: 
   l= 0   rc=  2.036604   el= -0.477180   Ekb= -6.081590   kbcos= -0.277285
   l= 1   rc=  2.195416   el=  0.001076   Ekb= -0.926943   kbcos= -0.034643
   l= 2   rc=  2.251056   el=  0.002010   Ekb= -0.130941   kbcos= -0.009788

KBgen: Total number of Kleinman-Bylander projectors:    9
atom: -------------------------------------------------------------------------

atom: SANKEY-TYPE ORBITALS:
atom: Selected multiple-zeta basis: split     

SPLIT: Orbitals with angular momentum L= 0

SPLIT: Basis orbitals for state 1s

SPLIT: PAO cut-off radius determined from an
SPLIT: energy shift=  0.002000 Ry

   izeta = 1
                 lambda =    1.000000
                     rc =    6.518340
                 energy =   -0.475305
                kinetic =    0.912139
    potential(screened) =   -1.387444
       potential(ionic) =   -1.907295

   izeta = 2
                 rmatch =    2.141150
              splitnorm =    0.620000
                 energy =    0.566467
                kinetic =    3.772856
    potential(screened) =   -3.206389
       potential(ionic) =   -3.759093

POLgen: Perturbative polarization orbital with L=  1

POLgen: Polarization orbital for state 1s

   izeta = 1
                     rc =    6.518340
                 energy =    0.533861
                kinetic =    1.121086
    potential(screened) =   -0.587225
       potential(ionic) =   -1.053027
atom: Total number of Sankey-type orbitals:  5

atm_pop: Valence configuration (for local Pseudopot. screening):
 1s( 1.00)                                                            
Vna: chval, zval:    1.00000   1.00000

Vna:  Cut-off radius for the neutral-atom potential:   6.518340

atom: _________________________________________________________________________

<basis_specs>
===============================================================================
N                    Z=   7    Mass=  14.010        Charge= 0.17977+309
Lmxo=1 Lmxkb= 3    BasisType=split      Semic=F
L=0  Nsemic=0  Cnfigmx=2
          i=1  nzeta=2  polorb=0  (2s)
            splnorm:   0.28000    
               vcte:    0.0000    
               rinn:    0.0000    
               qcoe:    0.0000    
               qyuk:    0.0000    
               qwid:   0.10000E-01
                rcs:    0.0000      0.0000    
            lambdas:    1.0000      1.0000    
L=1  Nsemic=0  Cnfigmx=2
          i=1  nzeta=2  polorb=1  (2p)
            splnorm:   0.28000    
               vcte:    0.0000    
               rinn:    0.0000    
               qcoe:    0.0000    
               qyuk:    0.0000    
               qwid:   0.10000E-01
                rcs:    0.0000      0.0000    
            lambdas:    1.0000      1.0000    
-------------------------------------------------------------------------------
L=0  Nkbl=1  erefs: 0.17977+309
L=1  Nkbl=1  erefs: 0.17977+309
L=2  Nkbl=1  erefs: 0.17977+309
L=3  Nkbl=1  erefs: 0.17977+309
===============================================================================
</basis_specs>

atom: Called for N                     (Z =   7)

read_vps: Pseudopotential generation method:
read_vps: ATM4.2.7  Troullier-Martins                       
Valence charge for ps generation:    5.00000

xc_check: Exchange-correlation functional:
xc_check: GGA Perdew, Burke & Ernzerhof 1996
V l=0 = -2*Zval/r beyond r=  1.2889
V l=1 = -2*Zval/r beyond r=  1.2889
V l=2 = -2*Zval/r beyond r=  3.4178
V l=3 = -2*Zval/r beyond r=  2.4084
All V_l potentials equal beyond r=  3.3753
This should be close to max(r_c) in ps generation
All pots = -2*Zval/r beyond r=  3.4178

VLOCAL1: 99.0% of the norm of Vloc inside      3.810 Ry
VLOCAL1: 99.9% of the norm of Vloc inside      8.683 Ry
atom: Maximum radius for 4*pi*r*r*local-pseudopot. charge    4.02088
atom: Maximum radius for r*vlocal+2*Zval:    3.54838
GHOST: No ghost state for L =  0
GHOST: No ghost state for L =  1
GHOST: No ghost state for L =  2
GHOST: No ghost state for L =  3

KBgen: Kleinman-Bylander projectors: 
   l= 0   rc=  3.417763   el= -1.365098   Ekb= -4.433130   kbcos= -0.707855
   l= 1   rc=  3.375302   el= -0.521201   Ekb=-13.264039   kbcos= -0.535594
   l= 2   rc=  3.872880   el=  0.001991   Ekb= -0.641094   kbcos= -0.062456
   l= 3   rc=  3.970931   el=  0.003093   Ekb= -0.474517   kbcos= -0.018236

KBgen: Total number of Kleinman-Bylander projectors:   16
atom: -------------------------------------------------------------------------

atom: SANKEY-TYPE ORBITALS:
atom: Selected multiple-zeta basis: split     

SPLIT: Orbitals with angular momentum L= 0

SPLIT: Basis orbitals for state 2s

SPLIT: PAO cut-off radius determined from an
SPLIT: energy shift=  0.002000 Ry

   izeta = 1
                 lambda =    1.000000
                     rc =    4.730425
                 energy =   -1.363399
                kinetic =    1.245246
    potential(screened) =   -2.608645
       potential(ionic) =   -8.121105

   izeta = 2
                 rmatch =    2.531849
              splitnorm =    0.280000
                 energy =   -0.959908
                kinetic =    2.409435
    potential(screened) =   -3.369343
       potential(ionic) =   -9.427975

SPLIT: Orbitals with angular momentum L= 1

SPLIT: Basis orbitals for state 2p

SPLIT: PAO cut-off radius determined from an
SPLIT: energy shift=  0.002000 Ry

   izeta = 1
                 lambda =    1.000000
                     rc =    5.924108
                 energy =   -0.519262
                kinetic =    3.672940
    potential(screened) =   -4.192202
       potential(ionic) =   -9.518354

   izeta = 2
                 rmatch =    2.531849
              splitnorm =    0.280000
                 energy =   -0.104258
                kinetic =    6.807538
    potential(screened) =   -6.911796
       potential(ionic) =  -13.149920

POLgen: Perturbative polarization orbital with L=  2

POLgen: Polarization orbital for state 2p

   izeta = 1
                     rc =    5.924108
                 energy =    1.427508
                kinetic =    2.872379
    potential(screened) =   -1.444871
       potential(ionic) =   -5.563644
atom: Total number of Sankey-type orbitals: 13

atm_pop: Valence configuration (for local Pseudopot. screening):
 2s( 2.00)                                                            
 2p( 3.00)                                                            
Vna: chval, zval:    5.00000   5.00000

Vna:  Cut-off radius for the neutral-atom potential:   5.924108

atom: _________________________________________________________________________

<basis_specs>
===============================================================================
Si                   Z=  14    Mass=  28.090        Charge= 0.17977+309
Lmxo=1 Lmxkb= 3    BasisType=split      Semic=F
L=0  Nsemic=0  Cnfigmx=3
          i=1  nzeta=2  polorb=0  (3s)
            splnorm:   0.28000    
               vcte:    0.0000    
               rinn:    0.0000    
               qcoe:    0.0000    
               qyuk:    0.0000    
               qwid:   0.10000E-01
                rcs:    0.0000      0.0000    
            lambdas:    1.0000      1.0000    
L=1  Nsemic=0  Cnfigmx=3
          i=1  nzeta=2  polorb=1  (3p)
            splnorm:   0.28000    
               vcte:    0.0000    
               rinn:    0.0000    
               qcoe:    0.0000    
               qyuk:    0.0000    
               qwid:   0.10000E-01
                rcs:    0.0000      0.0000    
            lambdas:    1.0000      1.0000    
-------------------------------------------------------------------------------
L=0  Nkbl=1  erefs: 0.17977+309
L=1  Nkbl=1  erefs: 0.17977+309
L=2  Nkbl=1  erefs: 0.17977+309
L=3  Nkbl=1  erefs: 0.17977+309
===============================================================================
</basis_specs>

atom: Called for Si                    (Z =  14)

read_vps: Pseudopotential generation method:
read_vps: ATM4.2.7  Troullier-Martins                       
Valence charge for ps generation:    4.00000

xc_check: Exchange-correlation functional:
xc_check: GGA Perdew, Burke & Ernzerhof 1996
V l=0 = -2*Zval/r beyond r=  2.7826
V l=1 = -2*Zval/r beyond r=  2.7826
V l=2 = -2*Zval/r beyond r=  2.9253
V l=3 = -2*Zval/r beyond r=  2.7826
All V_l potentials equal beyond r=  2.8530
This should be close to max(r_c) in ps generation
All pots = -2*Zval/r beyond r=  2.9253

VLOCAL1: 99.0% of the norm of Vloc inside      5.333 Ry
VLOCAL1: 99.9% of the norm of Vloc inside     12.154 Ry
atom: Maximum radius for 4*pi*r*r*local-pseudopot. charge    3.39869
atom: Maximum radius for r*vlocal+2*Zval:    2.96205
GHOST: No ghost state for L =  0
GHOST: No ghost state for L =  1
GHOST: No ghost state for L =  2
GHOST: No ghost state for L =  3

KBgen: Kleinman-Bylander projectors: 
   l= 0   rc=  3.075247   el= -0.794092   Ekb=  5.879390   kbcos=  0.167461
   l= 1   rc=  3.153101   el= -0.300068   Ekb=  2.642817   kbcos=  0.058301
   l= 2   rc=  3.273594   el=  0.001958   Ekb= -1.185135   kbcos= -0.104411
   l= 3   rc=  3.232927   el=  0.003046   Ekb= -0.497174   kbcos= -0.015889

KBgen: Total number of Kleinman-Bylander projectors:   16
atom: -------------------------------------------------------------------------

atom: SANKEY-TYPE ORBITALS:
atom: Selected multiple-zeta basis: split     

SPLIT: Orbitals with angular momentum L= 0

SPLIT: Basis orbitals for state 3s

SPLIT: PAO cut-off radius determined from an
SPLIT: energy shift=  0.002000 Ry

   izeta = 1
                 lambda =    1.000000
                     rc =    6.429618
                 energy =   -0.792283
                kinetic =    0.525293
    potential(screened) =   -1.317576
       potential(ionic) =   -3.744923

   izeta = 2
                 rmatch =    3.998416
              splitnorm =    0.280000
                 energy =   -0.583081
                kinetic =    1.069570
    potential(screened) =   -1.652651
       potential(ionic) =   -4.235185

SPLIT: Orbitals with angular momentum L= 1

SPLIT: Basis orbitals for state 3p

SPLIT: PAO cut-off radius determined from an
SPLIT: energy shift=  0.002000 Ry

   izeta = 1
                 lambda =    1.000000
                     rc =    8.464845
                 energy =   -0.298236
                kinetic =    0.785360
    potential(screened) =   -1.083596
       potential(ionic) =   -3.273779

   izeta = 2
                 rmatch =    4.587816
              splitnorm =    0.280000
                 energy =   -0.131871
                kinetic =    1.403687
    potential(screened) =   -1.535557
       potential(ionic) =   -4.015310

POLgen: Perturbative polarization orbital with L=  2

POLgen: Polarization orbital for state 3p

   izeta = 1
                     rc =    8.464845
                 energy =    0.321949
                kinetic =    1.055677
    potential(screened) =   -0.733728
       potential(ionic) =   -2.672950
atom: Total number of Sankey-type orbitals: 13

atm_pop: Valence configuration (for local Pseudopot. screening):
 3s( 2.00)                                                            
 3p( 2.00)                                                            
Vna: chval, zval:    4.00000   4.00000

Vna:  Cut-off radius for the neutral-atom potential:   8.464845

atom: _________________________________________________________________________

<basis_specs>
===============================================================================
O                    Z=   8    Mass=  16.000        Charge= 0.17977+309
Lmxo=1 Lmxkb= 3    BasisType=split      Semic=F
L=0  Nsemic=0  Cnfigmx=2
          i=1  nzeta=2  polorb=0  (2s)
            splnorm:   0.28000    
               vcte:    0.0000    
               rinn:    0.0000    
               qcoe:    0.0000    
               qyuk:    0.0000    
               qwid:   0.10000E-01
                rcs:    0.0000      0.0000    
            lambdas:    1.0000      1.0000    
L=1  Nsemic=0  Cnfigmx=2
          i=1  nzeta=2  polorb=1  (2p)
            splnorm:   0.28000    
               vcte:    0.0000    
               rinn:    0.0000    
               qcoe:    0.0000    
               qyuk:    0.0000    
               qwid:   0.10000E-01
                rcs:    0.0000      0.0000    
            lambdas:    1.0000      1.0000    
-------------------------------------------------------------------------------
L=0  Nkbl=1  erefs: 0.17977+309
L=1  Nkbl=1  erefs: 0.17977+309
L=2  Nkbl=1  erefs: 0.17977+309
L=3  Nkbl=1  erefs: 0.17977+309
===============================================================================
</basis_specs>

atom: Called for O                     (Z =   8)

read_vps: Pseudopotential generation method:
read_vps: ATM4.2.7  Troullier-Martins                       
Valence charge for ps generation:    6.00000

xc_check: Exchange-correlation functional:
xc_check: GGA Perdew, Burke & Ernzerhof 1996
V l=0 = -2*Zval/r beyond r=  1.1000
V l=1 = -2*Zval/r beyond r=  1.1000
V l=2 = -2*Zval/r beyond r=  2.2154
V l=3 = -2*Zval/r beyond r=  1.1000
All V_l potentials equal beyond r=  2.2154
This should be close to max(r_c) in ps generation
All pots = -2*Zval/r beyond r=  2.2154

VLOCAL1: 99.0% of the norm of Vloc inside      8.845 Ry
VLOCAL1: 99.9% of the norm of Vloc inside     20.157 Ry
atom: Maximum radius for 4*pi*r*r*local-pseudopot. charge    2.67231
atom: Maximum radius for r*vlocal+2*Zval:    2.32897
GHOST: No ghost state for L =  0
GHOST: No ghost state for L =  1
GHOST: No ghost state for L =  2
GHOST: No ghost state for L =  3

KBgen: Kleinman-Bylander projectors: 
   l= 0   rc=  2.243238   el= -1.759686   Ekb=**********   kbcos= -0.171774
   l= 1   rc=  2.328968   el= -0.663873   Ekb=-14.506792   kbcos= -0.519897
   l= 2   rc=  2.573941   el=  0.002031   Ekb= -1.137373   kbcos= -0.019581
   l= 3   rc=  2.606321   el=  0.003153   Ekb= -1.013546   kbcos= -0.003122

KBgen: Total number of Kleinman-Bylander projectors:   16
atom: -------------------------------------------------------------------------

atom: SANKEY-TYPE ORBITALS:
atom: Selected multiple-zeta basis: split     

SPLIT: Orbitals with angular momentum L= 0

SPLIT: Basis orbitals for state 2s

SPLIT: PAO cut-off radius determined from an
SPLIT: energy shift=  0.002000 Ry

   izeta = 1
                 lambda =    1.000000
                     rc =    4.243912
                 energy =   -1.758270
                kinetic =    3.286084
    potential(screened) =   -5.044353
       potential(ionic) =  -12.921184

   izeta = 2
                 rmatch =    2.187845
              splitnorm =    0.280000
                 energy =   -0.885018
                kinetic =    8.134434
    potential(screened) =   -9.019452
       potential(ionic) =  -17.710645

SPLIT: Orbitals with angular momentum L= 1

SPLIT: Basis orbitals for state 2p

SPLIT: PAO cut-off radius determined from an
SPLIT: energy shift=  0.002000 Ry

   izeta = 1
                 lambda =    1.000000
                     rc =    5.314825
                 energy =   -0.661986
                kinetic =    4.917472
    potential(screened) =   -5.579458
       potential(ionic) =  -13.236259

   izeta = 2
                 rmatch =    2.160663
              splitnorm =    0.280000
                 energy =   -0.068760
                kinetic =    9.183374
    potential(screened) =   -9.252135
       potential(ionic) =  -18.274251

POLgen: Perturbative polarization orbital with L=  2

POLgen: Polarization orbital for state 2p

   izeta = 1
                     rc =    5.314825
                 energy =    1.970580
                kinetic =    3.886128
    potential(screened) =   -1.915547
       potential(ionic) =   -7.749584
atom: Total number of Sankey-type orbitals: 13

atm_pop: Valence configuration (for local Pseudopot. screening):
 2s( 2.00)                                                            
 2p( 4.00)                                                            
Vna: chval, zval:    6.00000   6.00000

Vna:  Cut-off radius for the neutral-atom potential:   5.314825

atom: _________________________________________________________________________

prinput: Basis input ----------------------------------------------------------

PAO.BasisType split     

%block ChemicalSpeciesLabel
    1    1 H                       # Species index, atomic number, species label
    2    7 N                       # Species index, atomic number, species label
    3   14 Si                      # Species index, atomic number, species label
    4    8 O                       # Species index, atomic number, species label
%endblock ChemicalSpeciesLabel

%block PAO.Basis                 # Define Basis set
H                     1                    # Species label, number of l-shells
 n=1   0   2 P   1                   # n, l, Nzeta, Polarization, NzetaPol
   6.518      2.141   
   1.000      1.000   
N                     2                    # Species label, number of l-shells
 n=2   0   2                         # n, l, Nzeta 
   4.730      2.532   
   1.000      1.000   
 n=2   1   2 P   1                   # n, l, Nzeta, Polarization, NzetaPol
   5.924      2.532   
   1.000      1.000   
Si                    2                    # Species label, number of l-shells
 n=3   0   2                         # n, l, Nzeta 
   6.430      3.998   
   1.000      1.000   
 n=3   1   2 P   1                   # n, l, Nzeta, Polarization, NzetaPol
   8.465      4.588   
   1.000      1.000   
O                     2                    # Species label, number of l-shells
 n=2   0   2                         # n, l, Nzeta 
   4.244      2.188   
   1.000      1.000   
 n=2   1   2 P   1                   # n, l, Nzeta, Polarization, NzetaPol
   5.315      2.161   
   1.000      1.000   
%endblock PAO.Basis

prinput: ----------------------------------------------------------------------

Dumping basis to NetCDF file H.ion.nc
Dumping basis to NetCDF file N.ion.nc
Dumping basis to NetCDF file Si.ion.nc
Dumping basis to NetCDF file O.ion.nc
coor:   Atomic-coordinates input format  =     Cartesian coordinates
coor:                                          (in Angstroms)

siesta: Atomic coordinates (Bohr) and species
siesta:      4.31792  -9.81768   0.00000  1        1
siesta:      2.59711  -8.81503   0.00000  2        2
siesta:     -0.41253 -10.38326   0.00000  3        3
siesta:     -0.33040 -13.20006   0.00000  1        4
siesta:     -3.14019  -8.66630   0.00000  2        5
siesta:     -2.06030  -5.43214   0.00000  3        6
siesta:     -2.89201  -1.33728   0.00000  3        7
siesta:     -5.94160  -0.17360   0.00000  2        8
siesta:     -6.43014   1.81127   0.00000  1        9
siesta:     -7.46581  -1.44982   0.00000  1       10
siesta:     -0.33706   0.78140   0.00000  2       11
siesta:      2.82552  -0.08957   0.00000  3       12
siesta:      4.64124   2.09244   0.00000  1       13
siesta:      4.35491  -2.99662   0.00000  2       14
siesta:      2.09241  -5.37836   0.00000  3       15
siesta:      0.76100  16.53225   0.00000  1       16
siesta:     -0.76725  15.22417   0.00000  2       17
siesta:     -3.89775  16.57177   0.00000  3       18
siesta:     -3.71470  19.42663   0.00000  1       19
siesta:     -7.15971  14.03378   0.00000  3       20
siesta:    -11.60899  14.01868   0.00000  3       21
siesta:    -12.67180  15.40667  -2.27113  1       22
siesta:    -12.17555  11.22360  -0.16286  1       23
siesta:    -12.67202  15.08606   2.43425  1       24
siesta:     -5.40342  10.12096   0.00000  3       25
siesta:     -7.19765   7.68598   0.00000  4       26
siesta:     -2.01902   9.79265   0.00000  2       27
siesta:     -1.39354   7.84178   0.00000  1       28
siesta:      0.45361  12.05002   0.00000  3       29
siesta:      3.41280  11.54499   0.00000  4       30

siesta: System type = molecule  

initatomlists: Number of atoms, orbitals, and projectors:     30   302   403

siesta: ******************** Simulation parameters ****************************
siesta:
siesta: The following are some of the parameters of the simulation.
siesta: A complete list of the parameters used, including default values,
siesta: can be found in file out.fdf
siesta:
redata: Spin configuration                          = spin-orbit
redata: Number of spin components                   = 8
redata: Time-Reversal Symmetry                      = F
redata: Spin spiral                                 = F
############################################################
This spin-orbit implementation uses a local approximation.
From 4.2 and onwards the full non-local approximation is implemented
You are strongly advised to use >=4.2 versions!
############################################################
redata: Long output                                 =   F
redata: Number of Atomic Species                    =        4
redata: Charge density info will appear in .RHO file
redata: Write Mulliken Pop.                         = NO
redata: Matel table size (NRTAB)                    =     1024
redata: Mesh Cutoff                                 =   340.0000 Ry
redata: Net charge of the system                    =     0.0000 |e|
redata: Min. number of SCF Iter                     =        1
redata: Max. number of SCF Iter                     =      200
redata: SCF mix quantity                            = Hamiltonian
redata: Mix DM or H after convergence               =   F
redata: Recompute H after scf cycle                 =   F
redata: Mix DM in first SCF step                    =   T
redata: Write Pulay info on disk                    =   F
redata: New DM Occupancy tolerance                  = 0.000000000001
redata: No kicks to SCF
redata: DM Mixing Weight for Kicks                  =     0.5000
redata: Require Harris convergence for SCF          =   F
redata: Harris energy tolerance for SCF             =     0.000100 eV
redata: Require DM convergence for SCF              =   T
redata: DM tolerance for SCF                        =     0.000008
redata: Require EDM convergence for SCF             =   F
redata: EDM tolerance for SCF                       =     0.001000 eV
redata: Require H convergence for SCF               =   T
redata: Hamiltonian tolerance for SCF               =     0.000001 eV
redata: Require (free) Energy convergence for SCF   =   F
redata: (free) Energy tolerance for SCF             =     0.000100 eV
redata: Using Saved Data (generic)                  =   F
redata: Use continuation files for DM               =   T
redata: Neglect nonoverlap interactions             =   F
redata: Method of Calculation                       = Diagonalization
redata: Electronic Temperature                      =   299.9978 K
redata: Fix the spin of the system                  =   F
redata: Dynamics option                             = Verlet MD run
redata: Initial MD time step                        =        1
redata:   Final MD time step                        =        1
redata: Length of MD time step                      =     0.5000 fs
redata: Initial Temperature of MD run               =     0.0000 K
redata: Perform a MD quench                         =   F
mix.SCF: Pulay mixing                            = Pulay
mix.SCF:    Variant                              = stable
mix.SCF:    History steps                        = 6
mix.SCF:    Linear mixing weight                 =     0.250000
mix.SCF:    Mixing weight                        =     0.250000
mix.SCF:    SVD condition                        = 0.1000E-07
mix.SCF:    Restart steps                        = 24
mix.SCF:    Restart save steps                   = 3
mix.SCF: Spin-component mixing                   all
redata: Save all siesta data in one NC              =   F
redata: ***********************************************************************

%block SCF.Mixers
  Pulay
%endblock SCF.Mixers

%block SCF.Mixer.Pulay
  # Mixing method
  method pulay
  variant stable

  # Mixing options
  weight 0.2500
  weight.linear 0.2500
  history 6
  restart 24
  restart.save 3
%endblock SCF.Mixer.Pulay

Size of DM history Fstack: 3
Total number of electrons:    98.000000
Total ionic charge:    98.000000

* ProcessorY, Blocksize:    2  24


* Orbital distribution balance (max,min):    48    24


Time-reversal symmetry not used.

siesta: k-grid: Number of k-points =     1
siesta: k-grid: Cutoff (effective) =     5.000 Ang
siesta: k-grid: Supercell and displacements
siesta: k-grid:    1   0   0      0.000
siesta: k-grid:    0   1   0      0.000
siesta: k-grid:    0   0   1      0.000

diag: Algorithm                                     = ELPA-1stage
diag: Parallel over k                               =   F
diag: Use parallel 2D distribution                  =   T
diag: Parallel block-size                           = 24
diag: Parallel distribution                         =     2 x     4
diag: Used triangular part                          = Lower
diag: Absolute tolerance                            =  0.100E-15
diag: Orthogonalization factor                      =  0.100E-05
diag: Memory factor                                 =  1.0000


ts: **************************************************************
ts: Save H and S matrices                           =    F
ts: Save DM and EDM matrices                        =    F
ts: Only save the overlap matrix S                  =    F
ts: **************************************************************

************************ Begin: TS CHECKS AND WARNINGS ************************
************************ End: TS CHECKS AND WARNINGS **************************


                     ====================================
                        Begin MD step =      1
                     ====================================

outcoor: Atomic coordinates (Ang):                          
    2.28494382   -5.19529124    0.00000000   1       1  H
    1.37433094   -4.66471070    0.00000000   2       2  N
   -0.21830245   -5.49458215    0.00000000   3       3  Si
   -0.17484108   -6.98516892    0.00000000   1       4  H
   -1.66171682   -4.58600741    0.00000000   2       5  N
   -1.09026419   -2.87456374    0.00000000   3       6  Si
   -1.53038332   -0.70765692    0.00000000   3       7  Si
   -3.14415959   -0.09186471    0.00000000   2       8  N
   -3.40268075    0.95848335    0.00000000   1       9  H
   -3.95073599   -0.76720972    0.00000000   1      10  H
   -0.17836637    0.41349951    0.00000000   2      11  N
    1.49520211   -0.04739960    0.00000000   3      12  Si
    2.45603905    1.10727302    0.00000000   1      13  H
    2.30451743   -1.58574382    0.00000000   2      14  N
    1.10725559   -2.84610319    0.00000000   3      15  Si
    0.40270168    8.74848511    0.00000000   1      16  H
   -0.40600900    8.05627923    0.00000000   2      17  N
   -2.06259884    8.76939933    0.00000000   3      18  Si
   -1.96573367   10.28012454    0.00000000   1      19  H
   -3.78875519    7.42635120    0.00000000   3      20  Si
   -6.14320944    7.41836427    0.00000000   3      21  Si
   -6.70562756    8.15285392   -1.20183078   1      22  H
   -6.44302319    5.93927314   -0.08618332   1      23  H
   -6.70574002    7.98319673    1.28814761   1      24  H
   -2.85936455    5.35577997    0.00000000   3      25  Si
   -3.80883291    4.06724384    0.00000000   4      26  O
   -1.06841968    5.18204450    0.00000000   2      27  N
   -0.73742832    4.14968752    0.00000000   1      28  H
    0.24003854    6.37659092    0.00000000   3      29  Si
    1.80597547    6.10934407    0.00000000   4      30  O

outcell: Unit cell vectors (Ang):
       30.000000    0.000000    0.000000
        0.000000   45.000000    0.000000
        0.000000    0.000000   10.000000

outcell: Cell vector modules (Ang)   :   30.000000   45.000000   10.000000
outcell: Cell angles (23,13,12) (deg):     90.0000     90.0000     90.0000
outcell: Cell volume (Ang**3)        :  13500.0000
<dSpData1D:S at geom step 1
  <sparsity:sparsity for geom step 1
    nrows_g=302 nrows=48 sparsity=.0874 nnzs=7968, refcount: 8>
  <dData1D:(new from dSpData1D) n=7968, refcount: 1>
refcount: 1>
new_DM -- step:     1
Initializing Density Matrix...

Attempting to read DM from file... Failed...
DM filled with atomic data:
<dSpData2D:DM initialized from atoms
  <sparsity:sparsity for geom step 1
    nrows_g=302 nrows=48 sparsity=.0874 nnzs=7968, refcount: 9>
  <dData2D:DM n=7968 m=8, refcount: 1>
refcount: 1>
     spin moment: S , {S} =   56.00000   0.00000   0.00000  56.00000
No. of atoms with KB's overlaping orbs in proc 0. Max # of overlaps:      27     161

Initializing spin-orbit part of the Hamiltonian
  Adding spin-orbit effects for H 
  Adding spin-orbit effects for N 
  Adding spin-orbit effects for Si
  Adding spin-orbit effects for O 


New grid distribution:   1
           1       1:  180    1:  125    1:   15
           2       1:  180    1:  125   16:   30
           3       1:  180    1:  125   31:   45
           4       1:  180    1:  125   46:   60
           5       1:  180  126:  250    1:   15
           6       1:  180  126:  250   16:   30
           7       1:  180  126:  250   31:   45
           8       1:  180  126:  250   46:   60

InitMesh: MESH =   360 x   500 x   120 =    21600000
InitMesh: (bp) =   180 x   250 x    60 =     2700000
InitMesh: Mesh cutoff (required, used) =   340.000   341.206 Ry
ExtMesh (bp) on 0 =   288 x   225 x   123 =     7970400
New grid distribution:   2
           1       1:  159    1:   32    1:   60
           2       1:  152  233:  250    1:   60
           3       1:  159   33:   49    1:   60
           4     160:  180   32:   49    1:   60
           5       1:  152   50:  232    1:   60
           6     153:  180   50:  230    1:   60
           7     160:  180    1:   31    1:   60
           8     153:  180  231:  250    1:   60
New grid distribution:   3
           1     147:  180   53:  218    1:   60
           2       1:  141    1:   30    1:   60
           3       1:  141   31:   52    1:   60
           4     142:  180   30:   52    1:   60
           5       1:  146   53:  221    1:   60
           6       1:  146  222:  250    1:   60
           7     142:  180    1:   29    1:   60
           8     147:  180  219:  250    1:   60
Setting up quadratic distribution...
ExtMesh (bp) on 0 =   267 x   132 x   168 =     5920992
PhiOnMesh: Number of (b)points on node 0 =               305280
PhiOnMesh: nlist on node 0 =              1700334

stepf: Fermi-Dirac step function

siesta: Program's energy decomposition (eV):
siesta: Ebs     =      -615.908043
siesta: Eions   =      3553.971015
siesta: Ena     =       374.979893
siesta: Ekin    =      3170.226738
siesta: Enl     =     -2983.754403
siesta: Eso     =        -0.003886
siesta: Edftu   =         0.000000
siesta: DEna    =       129.588812
siesta: DUscf   =        75.106217
siesta: DUext   =         0.000000
siesta: Exc     =     -1168.437536
siesta: eta*DQ  =         0.000000
siesta: Emadel  =         0.000000
siesta: Emeta   =         0.000000
siesta: Emolmec =         0.000000
siesta: Ekinion =         0.000000
siesta: Eharris =     -3886.224906
siesta: Etot    =     -3956.265180
siesta: FreeEng =     -3956.268502

        iscf     Eharris(eV)        E_KS(eV)     FreeEng(eV)     dDmax    Ef(eV) dHmax(eV)
   scf:    1    -3886.224906    -3956.265180    -3956.268502  0.970447 -4.935346 21.478275
     spin moment: S , {S} =    2.02362  -0.00000  -0.00000   2.02362
timer: Routine,Calls,Time,% = IterSCF        1      12.774  35.99
   scf:    2    -3996.955066    -3989.308443    -3989.308449  0.465400 -4.229439 11.039417
     spin moment: S , {S} =    2.00009   0.00000  -0.00000   2.00009
   scf:    3    -3958.740578    -3985.887197    -3985.923953  0.425168 -4.138016 12.262111
     spin moment: S , {S} =    1.94981  -0.00000  -0.00000   1.94981
   scf:    4    -4002.673720    -3997.504716    -3997.504718  0.254804 -3.855161  4.745344
     spin moment: S , {S} =    0.00011  -0.00000   0.00000   0.00011
   scf:    5    -3998.854750    -3998.244009    -3998.244009  0.035523 -3.732832  2.943148
     spin moment: S , {S} =    0.00006  -0.00000   0.00000   0.00006
   scf:    6    -3999.073949    -3998.656089    -3998.656089  0.028794 -3.700896  1.439909
     spin moment: S , {S} =    0.00003  -0.00000   0.00000   0.00003
   scf:    7    -3999.036196    -3998.840768    -3998.840768  0.022661 -3.757517  0.761899
     spin moment: S , {S} =    0.00001  -0.00000   0.00000   0.00001
   scf:    8    -3998.965931    -3998.901416    -3998.901416  0.012105 -3.797426  0.505037
     spin moment: S , {S} =    0.00000  -0.00000   0.00000   0.00000
   scf:    9    -3998.950324    -3998.924875    -3998.924875  0.006942 -3.812046  0.395053
     spin moment: S , {S} =    0.00000  -0.00000   0.00000   0.00000
   scf:   10    -3998.986984    -3998.947100    -3998.947102  0.023107 -3.843328  0.182348
     spin moment: S , {S} =    0.00001  -0.00000  -0.00000  -0.00001
   scf:   11    -3998.951121    -3998.949229    -3998.949232  0.003929 -3.830499  0.068937
     spin moment: S , {S} =    0.00000  -0.00000  -0.00000  -0.00000
   scf:   12    -3998.950159    -3998.949716    -3998.949720  0.001254 -3.827150  0.038584
     spin moment: S , {S} =    0.00000  -0.00000  -0.00000   0.00000
   scf:   13    -3998.950302    -3998.950007    -3998.950011  0.000849 -3.824713  0.021054
     spin moment: S , {S} =    0.00000  -0.00000  -0.00000   0.00000
   scf:   14    -3998.950251    -3998.950125    -3998.950129  0.000757 -3.823739  0.012565
     spin moment: S , {S} =    0.00000  -0.00000  -0.00000   0.00000
   scf:   15    -3998.950275    -3998.950195    -3998.950200  0.000903 -3.823296  0.007289
     spin moment: S , {S} =    0.00000  -0.00000  -0.00000   0.00000
   scf:   16    -3998.950259    -3998.950224    -3998.950229  0.000708 -3.823221  0.004606
     spin moment: S , {S} =    0.00000   0.00000  -0.00000   0.00000
   scf:   17    -3998.950239    -3998.950231    -3998.950236  0.000329 -3.823359  0.003991
     spin moment: S , {S} =    0.00000   0.00000  -0.00000   0.00000
   scf:   18    -3998.950241    -3998.950235    -3998.950240  0.000346 -3.823457  0.002182
     spin moment: S , {S} =    0.00000   0.00000  -0.00000   0.00000
   scf:   19    -3998.950238    -3998.950237    -3998.950241  0.000208 -3.823481  0.001435
     spin moment: S , {S} =    0.00000   0.00000   0.00000  -0.00000
   scf:   20    -3998.950238    -3998.950237    -3998.950242  0.000086 -3.823494  0.001020
     spin moment: S , {S} =    0.00000   0.00000   0.00000  -0.00000
   scf:   21    -3998.950238    -3998.950237    -3998.950242  0.000095 -3.823492  0.000643
     spin moment: S , {S} =    0.00000   0.00000   0.00000  -0.00000
   scf:   22    -3998.950238    -3998.950238    -3998.950242  0.000100 -3.823497  0.000205
     spin moment: S , {S} =    0.00000   0.00000   0.00000  -0.00000
   scf:   23    -3998.950238    -3998.950238    -3998.950242  0.000038 -3.823498  0.000105
     spin moment: S , {S} =    0.00000  -0.00000   0.00000  -0.00000
   scf:   24    -3998.950238    -3998.950238    -3998.950242  0.000017 -3.823497  0.000074
     spin moment: S , {S} =    0.00000  -0.00000   0.00000  -0.00000
mix: Pulay -- resetting history
   scf:   25    -3998.950238    -3998.950238    -3998.950242  0.000006 -3.823495  0.000041
     spin moment: S , {S} =    0.00000  -0.00000   0.00000  -0.00000
   scf:   26    -3998.950238    -3998.950238    -3998.950242  0.000002 -3.823494  0.000030
     spin moment: S , {S} =    0.00000  -0.00000   0.00000  -0.00000
   scf:   27    -3998.950238    -3998.950238    -3998.950242  0.000002 -3.823494  0.000013
     spin moment: S , {S} =    0.00000  -0.00000   0.00000  -0.00000
   scf:   28    -3998.950238    -3998.950238    -3998.950242  0.000001 -3.823494  0.000005
     spin moment: S , {S} =    0.00000  -0.00000   0.00000  -0.00000
   scf:   29    -3998.950238    -3998.950238    -3998.950242  0.000000 -3.823494  0.000004
     spin moment: S , {S} =    0.00000  -0.00000   0.00000  -0.00000
   scf:   30    -3998.950238    -3998.950238    -3998.950242  0.000001 -3.823494  0.000001
     spin moment: S , {S} =    0.00000  -0.00000   0.00000   0.00000
   scf:   31    -3998.950238    -3998.950238    -3998.950242  0.000000 -3.823494  0.000001
     spin moment: S , {S} =    0.00000  -0.00000   0.00000   0.00000

SCF Convergence by DM+H criterion
max |DM_out - DM_in|         :     0.0000002594
max |H_out - H_in|      (eV) :     0.0000007650
SCF cycle converged after 31 iterations

Using DM_out to compute the final energy and forces
No. of atoms with KB's overlaping orbs in proc 0. Max # of overlaps:      27     161

siesta: E_KS(eV) =            -3998.9502

siesta: E_KS - E_eggbox =     -3998.9502
     spin moment: S , {S} =    0.00000  -0.00000   0.00000   0.00000

siesta: Atomic forces (eV/Ang):
     1    0.142715   -0.029315   -0.000000
     2   -0.029672    0.040423   -0.000000
     3   -0.027518   -0.016988    0.000000
     4    0.068109   -0.134321    0.000000
     5    0.051031    0.008606   -0.000000
     6   -0.161662    0.015644   -0.000000
     7    0.892872   -0.016940   -0.000003
     8   -0.571411    1.365229    0.000005
     9    0.133871   -0.858465   -0.000011
    10   -0.100141    0.126683    0.000002
    11   -0.149152   -0.294133    0.000002
    12   -0.241191    0.030349    0.000000
    13   -0.123606   -0.045829    0.000000
    14    0.026555   -0.094810   -0.000000
    15    0.091546    0.079482    0.000000
    16   -0.034553   -0.136309   -0.000951
    17    0.021751   -0.061636   -0.000789
    18   -0.112729    0.030589    0.005244
    19    0.040007   -0.152864   -0.001447
    20    0.100554    0.064989   -0.001135
    21    0.061429   -0.018197   -0.006687
    22    0.067437    0.009510    0.115599
    23    0.089941    0.060407   -0.007283
    24    0.062321    0.064785   -0.092038
    25   -0.525140   -0.360029    0.001028
    26   -1.677945   -3.658467    0.000492
    27    0.291806   -0.423191   -0.000552
    28   -0.232588    0.574951   -0.000078
    29    0.150447    0.122788   -0.000210
    30    1.364488    2.759053    0.000243
----------------------------------------
   Tot   -0.330429   -0.948008    0.011432
----------------------------------------
   Max    3.658467
   Res    0.586407    sqrt( Sum f_i^2 / 3N )
----------------------------------------
   Max    3.658467    constrained

Stress tensor Voigt[x,y,z,yz,xz,xy] (kbar):        0.14        0.30       -0.02       -0.01        0.00        0.10
(Free)E + p*V (eV/cell)    -4000.1435
Target enthalpy (eV/cell)    -3998.9502

siesta: Stress tensor (static) (eV/Ang**3):
         0.000088    0.000065    0.000000
         0.000065    0.000187   -0.000004
         0.000000   -0.000004   -0.000009

siesta: Pressure (static):         -0.14161687  kBar

siesta: Stress tensor (total) (eV/Ang**3):
         0.000088    0.000065    0.000000
         0.000065    0.000187   -0.000004
         0.000000   -0.000004   -0.000009

siesta: Pressure (total):         -0.14161687  kBar

siesta: Temp_ion =       0.000 K

siesta: Eigenvalues (eV):
ik =     1
  -22.8301  -22.8301  -22.4012  -22.4012  -21.7172  -21.7172  -21.2481  -21.2481  -20.9633  -20.9633
  -20.7670  -20.7670  -19.3533  -19.3533  -19.1777  -19.1777  -18.5727  -18.5727  -15.0343  -15.0343
  -14.1198  -14.1198  -13.5821  -13.5821  -13.5426  -13.5426  -13.0738  -13.0738  -12.8282  -12.8282
  -12.4482  -12.4482  -12.0044  -12.0044  -11.9015  -11.9015  -11.5212  -11.5212  -11.4601  -11.4601
  -10.8862  -10.8862  -10.6100  -10.6100  -10.1439  -10.1439   -9.5752   -9.5752   -9.3400   -9.3400
   -9.1273   -9.1273   -9.0948   -9.0948   -9.0032   -9.0032   -8.7416   -8.7416   -8.5947   -8.5947
   -8.3943   -8.3943   -8.1876   -8.1876   -8.0750   -8.0750   -7.9954   -7.9954   -7.8563   -7.8563
   -7.7846   -7.7846   -7.3163   -7.3163   -7.2643   -7.2643   -7.2556   -7.2556   -6.8102   -6.8102
   -6.7566   -6.7566   -6.7329   -6.7329   -6.3472   -6.3472   -6.3379   -6.3379   -6.1382   -6.1382
   -5.7500   -5.7500   -5.7166   -5.7166   -5.5044   -5.5044   -4.1500   -4.1500   -3.4970   -3.4970
   -2.7060   -2.7060   -2.2099   -2.2099   -2.1212   -2.1212   -2.1109   -2.1109   -1.9959   -1.9959
   -1.8919   -1.8919   -1.6635   -1.6635   -1.6255   -1.6255   -1.5255   -1.5255   -1.3435   -1.3435
   -1.1416   -1.1416   -0.4793   -0.4793   -0.2590   -0.2590   -0.1930   -0.1930   -0.1483   -0.1483
   -0.0294   -0.0294    0.0386    0.0386    0.2476    0.2476    0.5420    0.5420    0.6368    0.6368
    0.6706    0.6706    0.7929    0.7929    1.1697    1.1697    1.3446    1.3446    1.4370    1.4370
    1.4659    1.4659    1.5649    1.5649    1.8867    1.8867    2.0667    2.0667    2.2592    2.2592
    2.4988    2.4988    2.6492    2.6492    2.8003    2.8003    2.9116    2.9116    3.0323    3.0323
    3.1063    3.1063    3.1304    3.1304    3.2458    3.2458    3.3292    3.3292    3.4410    3.4410
    3.7534    3.7534    3.9120    3.9120    4.1658    4.1658    4.3020    4.3020    4.3308    4.3308
    4.3807    4.3807    4.7532    4.7532    4.8175    4.8175    4.8891    4.8891    5.0754    5.0754
    5.1478    5.1478    5.3513    5.3513    5.5529    5.5529    5.7129    5.7129    5.8080    5.8080
    5.9537    5.9537    6.0818    6.0818    6.2292    6.2292    6.3075    6.3075    6.3729    6.3729
    6.6100    6.6100    6.7986    6.7986    6.8162    6.8162    7.0909    7.0909    7.3061    7.3061
    7.3373    7.3373    7.5583    7.5583    7.7297    7.7297    7.8491    7.8491    8.0325    8.0325
    8.1270    8.1270    8.2078    8.2078    8.4592    8.4592    8.5165    8.5165    8.6960    8.6960
    8.9684    8.9684    9.0681    9.0681    9.1297    9.1297    9.3638    9.3638    9.6383    9.6383
    9.7585    9.7585    9.8084    9.8084    9.9162    9.9162   10.0171   10.0171   10.1549   10.1549
   10.1675   10.1675   10.4934   10.4934   10.7724   10.7724   10.9377   10.9377   11.1186   11.1186
   11.2983   11.2983   11.5737   11.5737   11.6198   11.6198   11.7922   11.7922   11.8361   11.8361
   11.9497   11.9497   12.3620   12.3620   12.4631   12.4631   12.5065   12.5065   12.5786   12.5786
   12.9433   12.9433   13.0418   13.0418   13.1279   13.1279   13.3588   13.3588   13.4214   13.4214
   13.6149   13.6149   13.8484   13.8484   14.5572   14.5572   14.7026   14.7026   14.8994   14.8994
   14.9382   14.9382   15.0424   15.0424   15.1415   15.1415   16.0963   16.0963   16.5406   16.5406
   16.8811   16.8811   16.9577   16.9577   17.0452   17.0452   17.2084   17.2084   17.5942   17.5942
   18.2421   18.2421   18.3495   18.3495   18.6470   18.6470   18.7734   18.7734   18.9069   18.9069
   18.9581   18.9581   19.5529   19.5529   19.8825   19.8825   20.0332   20.0332   20.4079   20.4079
   20.7730   20.7730   21.1020   21.1020   21.3880   21.3880   21.6798   21.6798   22.2633   22.2633
   22.3509   22.3509   22.9834   22.9834   23.1124   23.1124   23.2588   23.2588   23.8695   23.8695
   24.6054   24.6054   24.8289   24.8289   25.0005   25.0005   25.8693   25.8693   25.9130   25.9130
   26.1841   26.1841   26.5913   26.5913   26.6992   26.6992   27.7380   27.7380   27.9924   27.9924
   28.4085   28.4085   28.8853   28.8853   29.4533   29.4533   30.3005   30.3005   30.7458   30.7458
   30.8624   30.8624   30.9129   30.9129   31.1572   31.1572   31.4523   31.4524   31.6950   31.6950
   31.9794   31.9794   32.0566   32.0566   32.1327   32.1327   33.4280   33.4280   33.5424   33.5424
   34.0841   34.0841   34.1109   34.1109   34.3009   34.3009   34.7330   34.7330   35.2790   35.2790
   35.9754   35.9754   36.1912   36.1912   36.8890   36.8890   37.2611   37.2611   37.4582   37.4582
   37.8461   37.8461   38.3175   38.3175   38.4795   38.4795   38.5865   38.5865   39.1407   39.1407
   39.1457   39.1457   40.3545   40.3545   40.6684   40.6684   41.0004   41.0004   41.4609   41.4609
   41.7378   41.7378   42.2618   42.2618   42.9643   42.9643   43.5430   43.5430   43.9179   43.9179
   44.5297   44.5297   44.7468   44.7468   44.8802   44.8802   45.2653   45.2653   45.5122   45.5122
   45.8509   45.8509   46.4686   46.4686   46.6231   46.6231   46.7116   46.7116   47.2739   47.2739
   47.2863   47.2863   48.0588   48.0588   48.7044   48.7044   49.1134   49.1134   49.3688   49.3688
   50.1335   50.1335   50.1993   50.1993   50.4728   50.4728   50.4983   50.4983   50.6159   50.6159
   51.7559   51.7559   52.7865   52.7865   53.2436   53.2436   54.0766   54.0766   54.5095   54.5095
   54.9491   54.9491   55.0548   55.0548   55.8191   55.8191   56.5295   56.5295   56.6539   56.6539
   57.9306   57.9306   58.0569   58.0569   58.3791   58.3791   59.6381   59.6381   60.0103   60.0103
   61.0350   61.0350   61.7040   61.7040   61.9764   61.9764   62.9885   62.9885   63.5690   63.5690
   65.4801   65.4801   65.5089   65.5089   67.1824   67.1824   67.4661   67.4661   68.4744   68.4744
   68.7216   68.7216   70.7172   70.7172   72.1012   72.1012   78.1643   78.1643   88.7220   88.7220
   92.5005   92.5005   93.2338   93.2338   95.2421   95.2421   96.8271   96.8271  100.2786  100.2786
  101.5920  101.5920  102.7147  102.7147  115.0980  115.0980  118.9470  118.9470  123.4839  123.4839
  133.0022  133.0022  139.3111  139.3111
siesta: Fermi energy =      -3.823494 eV

siesta: Program's energy decomposition (eV):
siesta: Ebs     =     -1108.074876
siesta: Eions   =      3553.971015
siesta: Ena     =       374.979893
siesta: Ekin    =      2743.118691
siesta: Enl     =     -2522.955758
siesta: Eso     =        -0.004665
siesta: Edftu   =         0.000000
siesta: DEna    =        36.945971
siesta: DUscf   =        13.837219
siesta: DUext   =         0.000000
siesta: Exc     =     -1090.900573
siesta: eta*DQ  =         0.000000
siesta: Emadel  =         0.000000
siesta: Emeta   =         0.000000
siesta: Emolmec =         0.000000
siesta: Ekinion =         0.000000
siesta: Eharris =     -3998.950238
siesta: Etot    =     -3998.950238
siesta: FreeEng =     -3998.950242

siesta: Final energy (eV):
siesta:  Band Struct. =   -1108.074876
siesta:       Kinetic =    2743.118691
siesta:       Hartree =   13583.943180
siesta:       Edftu   =       0.000000
siesta:       Eso     =      -0.004665
siesta:    Ext. field =       0.000000
siesta:   Exch.-corr. =   -1090.900573
siesta:  Ion-electron =  -29603.311351
siesta:       Ion-ion =   10368.204480
siesta:       Ekinion =       0.000000
siesta:         Total =   -3998.950238
siesta:         Fermi =      -3.823494

siesta: Atomic forces (eV/Ang):
siesta:      1    0.142715   -0.029315   -0.000000
siesta:      2   -0.029672    0.040423   -0.000000
siesta:      3   -0.027518   -0.016988    0.000000
siesta:      4    0.068109   -0.134321    0.000000
siesta:      5    0.051031    0.008606   -0.000000
siesta:      6   -0.161662    0.015644   -0.000000
siesta:      7    0.892872   -0.016940   -0.000003
siesta:      8   -0.571411    1.365229    0.000005
siesta:      9    0.133871   -0.858465   -0.000011
siesta:     10   -0.100141    0.126683    0.000002
siesta:     11   -0.149152   -0.294133    0.000002
siesta:     12   -0.241191    0.030349    0.000000
siesta:     13   -0.123606   -0.045829    0.000000
siesta:     14    0.026555   -0.094810   -0.000000
siesta:     15    0.091546    0.079482    0.000000
siesta:     16   -0.034553   -0.136309   -0.000951
siesta:     17    0.021751   -0.061636   -0.000789
siesta:     18   -0.112729    0.030589    0.005244
siesta:     19    0.040007   -0.152864   -0.001447
siesta:     20    0.100554    0.064989   -0.001135
siesta:     21    0.061429   -0.018197   -0.006687
siesta:     22    0.067437    0.009510    0.115599
siesta:     23    0.089941    0.060407   -0.007283
siesta:     24    0.062321    0.064785   -0.092038
siesta:     25   -0.525140   -0.360029    0.001028
siesta:     26   -1.677945   -3.658467    0.000492
siesta:     27    0.291806   -0.423191   -0.000552
siesta:     28   -0.232588    0.574951   -0.000078
siesta:     29    0.150447    0.122788   -0.000210
siesta:     30    1.364488    2.759053    0.000243
siesta: ----------------------------------------
siesta:    Tot   -0.330429   -0.948008    0.011432

siesta: Stress tensor (static) (eV/Ang**3):
siesta:     0.000088    0.000065    0.000000
siesta:     0.000065    0.000187   -0.000004
siesta:     0.000000   -0.000004   -0.000009

siesta: Cell volume =      13500.000000 Ang**3

siesta: Pressure (static):
siesta:                Solid            Molecule  Units
siesta:          -0.00000096         -0.00000335  Ry/Bohr**3
siesta:          -0.00008839         -0.00030782  eV/Ang**3
siesta:          -0.14161687         -0.49318915  kBar
(Free)E+ p_basis*V_orbitals  =       -3977.822157
(Free)Eharris+ p_basis*V_orbitals  =       -3977.822157
     spin moment: S , {S} =    0.00000  -0.00000   0.00000   0.00000

siesta: Electric dipole (a.u.)  =   -1.164938    1.654899   -0.001805
siesta: Electric dipole (Debye) =   -2.960980    4.206337   -0.004588

cite: Please see "AT.bib" for an exhaustive BiBTeX file.
cite: Please clearly indicate Siesta version in published work: v4.1.5-1-g384057250
cite: This calculation has made use of the following articles
cite: which are encouraged to be cited in a published work.
        Primary SIESTA paper
          DOI: www.doi.org/10.1088/0953-8984/14/11/302
        Spin-orbit coupling (on-site approximation)
          DOI: www.doi.org/10.1088/0953-8984/19/19/489001


WARNING: alloc-realloc-dealloc name mismatch
         Name: atomlist isa
         Size:              -120. Bytes
         Node:     0
         Subsequent mismatches will not be reported
>> End of run:   1-FEB-2024  18:58:16
Job completed
