Siesta Version  : v4.1.5-1-g384057250
Architecture    : gcc
Compiler version: GNU Fortran (Ubuntu 11.4.0-1ubuntu1~22.04) 11.4.0
Compiler flags  : mpifort -O2 -fPIC -ftree-vectorize -fallow-argument-mismatch
PP flags        : -DFC_HAVE_ABORT -DMPI -DSIESTA__FLOOK -DSIESTA__METIS -DSIESTA__MUMPS -DCDF -DNCDF -DNCDF_4 -DNCDF_PARALLEL -DSIESTA__MRRR -DSIESTA__ELPA
Libraries       : libncdf.a libfdict.a  -lflookall -ldl -lnetcdff -lnetcdf -lhdf5_hl -lhdf5 -lhdf5_fortran -lz -lscalapack-openmpi -lopenblas -lmetis -lzmumps -lcmumps -ldmumps -lmumps_common -lpord -lsmumps -lesmumps -lscotch -lscotcherr -fopenmp -lelpa
PARALLEL version
NetCDF support
NetCDF-4 support
NetCDF-4 MPI-IO support
METIS ordering support
Lua support

* Running on 8 nodes in parallel
>> Start of run:   1-FEB-2024  22:32:36

                           ***********************       
                           *  WELCOME TO SIESTA  *       
                           ***********************       

reinit: Reading from standard input
reinit: Dumped input in INPUT_TMP.26706
************************** Dump of input data file ****************************
# mpirun -np 4 siesta-4.1.5 < GC.fdf > GC.out &
SystemLabel      GC
NumberOfAtoms    29
NumberOfSpecies  4
%block ChemicalSpeciesLabel
    1    1  H
    2    7  N
    3   14  Si
    4    8  O
%endblock ChemicalSpeciesLabel
############################################
# This overrides Defaults.fdf configuration
############################################
MD.TypeOfRun                Verlet # CG, Verlet
MD.Steps                    0
MaxSCFIterations            200
SCF.MustConverge            F
AtomicCoordinatesFormat NotScaledCartesianAng
%block AtomicCoordinatesAndAtomicSpecies
    -0.33315592360743884 5.632827576146466 0.0  1  1  H
    -1.0396426536074388 4.842791396146466 0.0  2  2  N
    -2.769929563607439 5.284155306146466 0.0  3  3  Si
    -2.9257092436074386 6.774147566146466 0.0  1  4  H
    -4.293251183607439 3.7252477861464657 0.0  3  5  Si
    -5.776438813607439 3.968078146146466 0.0  1  6  H
    -3.094860323607439 1.8119716261464658 0.0  3  7  Si
    -3.860885783607439 0.27925488614646565 0.0  2  8  N
    -3.270639233607439 -0.6779581438535343 0.0  1  9  H
    -4.912508103607439 0.19879465614646574 0.0  1  10  H
    -1.3786602636074388 1.8671459361464657 0.0  2  11  N
    -0.30363764360743883 3.1974847761464655 0.0  3  12  Si
    1.305035676392561 3.178674516146466 0.0  4  13  O
    5.6164483 -7.44953905 0.0  1  14  H
    4.58206954 -7.2320376 0.0  2  15  N
    3.29666389 -8.492636 0.0  3  16  Si
    3.80117524 -9.90371886 -0.0  1  17  H
    1.65934232 -8.01362137 0.0  2  18  N
    1.68097912 -6.20463398 -0.0  3  19  Si
    0.54543521 -4.28636135 0.0  3  20  Si
    -1.03431493 -3.94450034 0.0  4  21  O
    1.73226934 -2.87719605 0.0  2  22  N
    1.20957366 -1.92961761 -0.0  1  23  H
    3.50853448 -2.77677601 0.0  3  24  Si
    4.13684451 -1.17938608 0.0  2  25  N
    3.54296161 -0.26248101 0.0  1  26  H
    5.18364407 -1.05231197 -0.0  1  27  H
    4.63288658 -4.07521596 -0.0  2  28  N
    3.79410501 -5.58634043 0.0  3  29  Si
%endblock AtomicCoordinatesAndAtomicSpecies
#############
# Unit Cell
#############
LatticeConstant 1.0 Ang
%block LatticeVectors
    30.00000    0.000000    0.000000
    0.000000    45.00000    0.000000
    0.000000    0.000000    10.00000
%endblock LatticeVectors
%include ../../../../Defaults.fdf
************************** End of input data file *****************************

reinit: -----------------------------------------------------------------------
reinit: System Name: 
reinit: -----------------------------------------------------------------------
reinit: System Label: GC
reinit: -----------------------------------------------------------------------

initatom: Reading input for the pseudopotentials and atomic orbitals ----------
Species number:   1 Atomic number:    1 Label: H
Species number:   2 Atomic number:    7 Label: N
Species number:   3 Atomic number:   14 Label: Si
Species number:   4 Atomic number:    8 Label: O

Ground state valence configuration:   1s01
Reading pseudopotential information in formatted form from H.psf

Pseudopotential generated from a relativistic atomic calculation

Valence configuration for pseudopotential generation:
1s( 1.00) rc: 0.01
2p( 0.00) rc: 0.60
3d( 0.00) rc: 1.99
4f( 0.00) rc: 2.49
Ground state valence configuration:   2s02  2p03
Reading pseudopotential information in formatted form from N.psf

Pseudopotential generated from a relativistic atomic calculation

Valence configuration for pseudopotential generation:
2s( 2.00) rc: 0.94
2p( 3.00) rc: 0.59
3d( 0.00) rc: 3.46
4f( 0.00) rc: 2.47
Ground state valence configuration:   3s02  3p02
Reading pseudopotential information in formatted form from Si.psf

Pseudopotential generated from a relativistic atomic calculation

Valence configuration for pseudopotential generation:
3s( 2.00) rc: 1.67
3p( 2.00) rc: 2.04
3d( 0.00) rc: 2.89
4f( 0.00) rc: 2.49
Ground state valence configuration:   2s02  2p04
Reading pseudopotential information in formatted form from O.psf

Pseudopotential generated from a relativistic atomic calculation

Valence configuration for pseudopotential generation:
2s( 2.00) rc: 0.45
2p( 4.00) rc: 0.92
3d( 0.00) rc: 2.24
4f( 0.00) rc: 0.25
For H, standard SIESTA heuristics set lmxkb to 2
 (one more than the basis l, including polarization orbitals).
Use PS.lmax or PS.KBprojectors blocks to override.
For N, standard SIESTA heuristics set lmxkb to 3
 (one more than the basis l, including polarization orbitals).
Use PS.lmax or PS.KBprojectors blocks to override.
For Si, standard SIESTA heuristics set lmxkb to 3
 (one more than the basis l, including polarization orbitals).
Use PS.lmax or PS.KBprojectors blocks to override.
For O, standard SIESTA heuristics set lmxkb to 3
 (one more than the basis l, including polarization orbitals).
Use PS.lmax or PS.KBprojectors blocks to override.

<basis_specs>
===============================================================================
H                    Z=   1    Mass=  1.0100        Charge= 0.17977+309
Lmxo=0 Lmxkb= 2    BasisType=split      Semic=F
L=0  Nsemic=0  Cnfigmx=1
          i=1  nzeta=2  polorb=1  (1s)
            splnorm:   0.62000    
               vcte:    0.0000    
               rinn:    0.0000    
               qcoe:    0.0000    
               qyuk:    0.0000    
               qwid:   0.10000E-01
                rcs:    0.0000      0.0000    
            lambdas:    1.0000      1.0000    
-------------------------------------------------------------------------------
L=0  Nkbl=1  erefs: 0.17977+309
L=1  Nkbl=1  erefs: 0.17977+309
L=2  Nkbl=1  erefs: 0.17977+309
===============================================================================
</basis_specs>

atom: Called for H                     (Z =   1)

read_vps: Pseudopotential generation method:
read_vps: ATM4.2.7  Troullier-Martins                       
Valence charge for ps generation:    1.00000

xc_check: Exchange-correlation functional:
xc_check: GGA Perdew, Burke & Ernzerhof 1996
V l=0 = -2*Zval/r beyond r=  0.0098
V l=1 = -2*Zval/r beyond r=  0.5817
V l=2 = -2*Zval/r beyond r=  1.9372
All V_l potentials equal beyond r=  1.9372
This should be close to max(r_c) in ps generation
All pots = -2*Zval/r beyond r=  1.9372

VLOCAL1: 99.0% of the norm of Vloc inside     11.567 Ry
VLOCAL1: 99.9% of the norm of Vloc inside     26.362 Ry
atom: Maximum radius for 4*pi*r*r*local-pseudopot. charge    2.25106
atom: Maximum radius for r*vlocal+2*Zval:    1.91306
GHOST: No ghost state for L =  0
GHOST: No ghost state for L =  1
GHOST: No ghost state for L =  2

KBgen: Kleinman-Bylander projectors: 
   l= 0   rc=  2.036604   el= -0.477180   Ekb= -6.081590   kbcos= -0.277285
   l= 1   rc=  2.195416   el=  0.001076   Ekb= -0.926943   kbcos= -0.034643
   l= 2   rc=  2.251056   el=  0.002010   Ekb= -0.130941   kbcos= -0.009788

KBgen: Total number of Kleinman-Bylander projectors:    9
atom: -------------------------------------------------------------------------

atom: SANKEY-TYPE ORBITALS:
atom: Selected multiple-zeta basis: split     

SPLIT: Orbitals with angular momentum L= 0

SPLIT: Basis orbitals for state 1s

SPLIT: PAO cut-off radius determined from an
SPLIT: energy shift=  0.002000 Ry

   izeta = 1
                 lambda =    1.000000
                     rc =    6.518340
                 energy =   -0.475305
                kinetic =    0.912139
    potential(screened) =   -1.387444
       potential(ionic) =   -1.907295

   izeta = 2
                 rmatch =    2.141150
              splitnorm =    0.620000
                 energy =    0.566467
                kinetic =    3.772856
    potential(screened) =   -3.206389
       potential(ionic) =   -3.759093

POLgen: Perturbative polarization orbital with L=  1

POLgen: Polarization orbital for state 1s

   izeta = 1
                     rc =    6.518340
                 energy =    0.533861
                kinetic =    1.121086
    potential(screened) =   -0.587225
       potential(ionic) =   -1.053027
atom: Total number of Sankey-type orbitals:  5

atm_pop: Valence configuration (for local Pseudopot. screening):
 1s( 1.00)                                                            
Vna: chval, zval:    1.00000   1.00000

Vna:  Cut-off radius for the neutral-atom potential:   6.518340

atom: _________________________________________________________________________

<basis_specs>
===============================================================================
N                    Z=   7    Mass=  14.010        Charge= 0.17977+309
Lmxo=1 Lmxkb= 3    BasisType=split      Semic=F
L=0  Nsemic=0  Cnfigmx=2
          i=1  nzeta=2  polorb=0  (2s)
            splnorm:   0.28000    
               vcte:    0.0000    
               rinn:    0.0000    
               qcoe:    0.0000    
               qyuk:    0.0000    
               qwid:   0.10000E-01
                rcs:    0.0000      0.0000    
            lambdas:    1.0000      1.0000    
L=1  Nsemic=0  Cnfigmx=2
          i=1  nzeta=2  polorb=1  (2p)
            splnorm:   0.28000    
               vcte:    0.0000    
               rinn:    0.0000    
               qcoe:    0.0000    
               qyuk:    0.0000    
               qwid:   0.10000E-01
                rcs:    0.0000      0.0000    
            lambdas:    1.0000      1.0000    
-------------------------------------------------------------------------------
L=0  Nkbl=1  erefs: 0.17977+309
L=1  Nkbl=1  erefs: 0.17977+309
L=2  Nkbl=1  erefs: 0.17977+309
L=3  Nkbl=1  erefs: 0.17977+309
===============================================================================
</basis_specs>

atom: Called for N                     (Z =   7)

read_vps: Pseudopotential generation method:
read_vps: ATM4.2.7  Troullier-Martins                       
Valence charge for ps generation:    5.00000

xc_check: Exchange-correlation functional:
xc_check: GGA Perdew, Burke & Ernzerhof 1996
V l=0 = -2*Zval/r beyond r=  1.2889
V l=1 = -2*Zval/r beyond r=  1.2889
V l=2 = -2*Zval/r beyond r=  3.4178
V l=3 = -2*Zval/r beyond r=  2.4084
All V_l potentials equal beyond r=  3.3753
This should be close to max(r_c) in ps generation
All pots = -2*Zval/r beyond r=  3.4178

VLOCAL1: 99.0% of the norm of Vloc inside      3.810 Ry
VLOCAL1: 99.9% of the norm of Vloc inside      8.683 Ry
atom: Maximum radius for 4*pi*r*r*local-pseudopot. charge    4.02088
atom: Maximum radius for r*vlocal+2*Zval:    3.54838
GHOST: No ghost state for L =  0
GHOST: No ghost state for L =  1
GHOST: No ghost state for L =  2
GHOST: No ghost state for L =  3

KBgen: Kleinman-Bylander projectors: 
   l= 0   rc=  3.417763   el= -1.365098   Ekb= -4.433130   kbcos= -0.707855
   l= 1   rc=  3.375302   el= -0.521201   Ekb=-13.264039   kbcos= -0.535594
   l= 2   rc=  3.872880   el=  0.001991   Ekb= -0.641094   kbcos= -0.062456
   l= 3   rc=  3.970931   el=  0.003093   Ekb= -0.474517   kbcos= -0.018236

KBgen: Total number of Kleinman-Bylander projectors:   16
atom: -------------------------------------------------------------------------

atom: SANKEY-TYPE ORBITALS:
atom: Selected multiple-zeta basis: split     

SPLIT: Orbitals with angular momentum L= 0

SPLIT: Basis orbitals for state 2s

SPLIT: PAO cut-off radius determined from an
SPLIT: energy shift=  0.002000 Ry

   izeta = 1
                 lambda =    1.000000
                     rc =    4.730425
                 energy =   -1.363399
                kinetic =    1.245246
    potential(screened) =   -2.608645
       potential(ionic) =   -8.121105

   izeta = 2
                 rmatch =    2.531849
              splitnorm =    0.280000
                 energy =   -0.959908
                kinetic =    2.409435
    potential(screened) =   -3.369343
       potential(ionic) =   -9.427975

SPLIT: Orbitals with angular momentum L= 1

SPLIT: Basis orbitals for state 2p

SPLIT: PAO cut-off radius determined from an
SPLIT: energy shift=  0.002000 Ry

   izeta = 1
                 lambda =    1.000000
                     rc =    5.924108
                 energy =   -0.519262
                kinetic =    3.672940
    potential(screened) =   -4.192202
       potential(ionic) =   -9.518354

   izeta = 2
                 rmatch =    2.531849
              splitnorm =    0.280000
                 energy =   -0.104258
                kinetic =    6.807538
    potential(screened) =   -6.911796
       potential(ionic) =  -13.149920

POLgen: Perturbative polarization orbital with L=  2

POLgen: Polarization orbital for state 2p

   izeta = 1
                     rc =    5.924108
                 energy =    1.427508
                kinetic =    2.872379
    potential(screened) =   -1.444871
       potential(ionic) =   -5.563644
atom: Total number of Sankey-type orbitals: 13

atm_pop: Valence configuration (for local Pseudopot. screening):
 2s( 2.00)                                                            
 2p( 3.00)                                                            
Vna: chval, zval:    5.00000   5.00000

Vna:  Cut-off radius for the neutral-atom potential:   5.924108

atom: _________________________________________________________________________

<basis_specs>
===============================================================================
Si                   Z=  14    Mass=  28.090        Charge= 0.17977+309
Lmxo=1 Lmxkb= 3    BasisType=split      Semic=F
L=0  Nsemic=0  Cnfigmx=3
          i=1  nzeta=2  polorb=0  (3s)
            splnorm:   0.28000    
               vcte:    0.0000    
               rinn:    0.0000    
               qcoe:    0.0000    
               qyuk:    0.0000    
               qwid:   0.10000E-01
                rcs:    0.0000      0.0000    
            lambdas:    1.0000      1.0000    
L=1  Nsemic=0  Cnfigmx=3
          i=1  nzeta=2  polorb=1  (3p)
            splnorm:   0.28000    
               vcte:    0.0000    
               rinn:    0.0000    
               qcoe:    0.0000    
               qyuk:    0.0000    
               qwid:   0.10000E-01
                rcs:    0.0000      0.0000    
            lambdas:    1.0000      1.0000    
-------------------------------------------------------------------------------
L=0  Nkbl=1  erefs: 0.17977+309
L=1  Nkbl=1  erefs: 0.17977+309
L=2  Nkbl=1  erefs: 0.17977+309
L=3  Nkbl=1  erefs: 0.17977+309
===============================================================================
</basis_specs>

atom: Called for Si                    (Z =  14)

read_vps: Pseudopotential generation method:
read_vps: ATM4.2.7  Troullier-Martins                       
Valence charge for ps generation:    4.00000

xc_check: Exchange-correlation functional:
xc_check: GGA Perdew, Burke & Ernzerhof 1996
V l=0 = -2*Zval/r beyond r=  2.7826
V l=1 = -2*Zval/r beyond r=  2.7826
V l=2 = -2*Zval/r beyond r=  2.9253
V l=3 = -2*Zval/r beyond r=  2.7826
All V_l potentials equal beyond r=  2.8530
This should be close to max(r_c) in ps generation
All pots = -2*Zval/r beyond r=  2.9253

VLOCAL1: 99.0% of the norm of Vloc inside      5.333 Ry
VLOCAL1: 99.9% of the norm of Vloc inside     12.154 Ry
atom: Maximum radius for 4*pi*r*r*local-pseudopot. charge    3.39869
atom: Maximum radius for r*vlocal+2*Zval:    2.96205
GHOST: No ghost state for L =  0
GHOST: No ghost state for L =  1
GHOST: No ghost state for L =  2
GHOST: No ghost state for L =  3

KBgen: Kleinman-Bylander projectors: 
   l= 0   rc=  3.075247   el= -0.794092   Ekb=  5.879390   kbcos=  0.167461
   l= 1   rc=  3.153101   el= -0.300068   Ekb=  2.642817   kbcos=  0.058301
   l= 2   rc=  3.273594   el=  0.001958   Ekb= -1.185135   kbcos= -0.104411
   l= 3   rc=  3.232927   el=  0.003046   Ekb= -0.497174   kbcos= -0.015889

KBgen: Total number of Kleinman-Bylander projectors:   16
atom: -------------------------------------------------------------------------

atom: SANKEY-TYPE ORBITALS:
atom: Selected multiple-zeta basis: split     

SPLIT: Orbitals with angular momentum L= 0

SPLIT: Basis orbitals for state 3s

SPLIT: PAO cut-off radius determined from an
SPLIT: energy shift=  0.002000 Ry

   izeta = 1
                 lambda =    1.000000
                     rc =    6.429618
                 energy =   -0.792283
                kinetic =    0.525293
    potential(screened) =   -1.317576
       potential(ionic) =   -3.744923

   izeta = 2
                 rmatch =    3.998416
              splitnorm =    0.280000
                 energy =   -0.583081
                kinetic =    1.069570
    potential(screened) =   -1.652651
       potential(ionic) =   -4.235185

SPLIT: Orbitals with angular momentum L= 1

SPLIT: Basis orbitals for state 3p

SPLIT: PAO cut-off radius determined from an
SPLIT: energy shift=  0.002000 Ry

   izeta = 1
                 lambda =    1.000000
                     rc =    8.464845
                 energy =   -0.298236
                kinetic =    0.785360
    potential(screened) =   -1.083596
       potential(ionic) =   -3.273779

   izeta = 2
                 rmatch =    4.587816
              splitnorm =    0.280000
                 energy =   -0.131871
                kinetic =    1.403687
    potential(screened) =   -1.535557
       potential(ionic) =   -4.015310

POLgen: Perturbative polarization orbital with L=  2

POLgen: Polarization orbital for state 3p

   izeta = 1
                     rc =    8.464845
                 energy =    0.321949
                kinetic =    1.055677
    potential(screened) =   -0.733728
       potential(ionic) =   -2.672950
atom: Total number of Sankey-type orbitals: 13

atm_pop: Valence configuration (for local Pseudopot. screening):
 3s( 2.00)                                                            
 3p( 2.00)                                                            
Vna: chval, zval:    4.00000   4.00000

Vna:  Cut-off radius for the neutral-atom potential:   8.464845

atom: _________________________________________________________________________

<basis_specs>
===============================================================================
O                    Z=   8    Mass=  16.000        Charge= 0.17977+309
Lmxo=1 Lmxkb= 3    BasisType=split      Semic=F
L=0  Nsemic=0  Cnfigmx=2
          i=1  nzeta=2  polorb=0  (2s)
            splnorm:   0.28000    
               vcte:    0.0000    
               rinn:    0.0000    
               qcoe:    0.0000    
               qyuk:    0.0000    
               qwid:   0.10000E-01
                rcs:    0.0000      0.0000    
            lambdas:    1.0000      1.0000    
L=1  Nsemic=0  Cnfigmx=2
          i=1  nzeta=2  polorb=1  (2p)
            splnorm:   0.28000    
               vcte:    0.0000    
               rinn:    0.0000    
               qcoe:    0.0000    
               qyuk:    0.0000    
               qwid:   0.10000E-01
                rcs:    0.0000      0.0000    
            lambdas:    1.0000      1.0000    
-------------------------------------------------------------------------------
L=0  Nkbl=1  erefs: 0.17977+309
L=1  Nkbl=1  erefs: 0.17977+309
L=2  Nkbl=1  erefs: 0.17977+309
L=3  Nkbl=1  erefs: 0.17977+309
===============================================================================
</basis_specs>

atom: Called for O                     (Z =   8)

read_vps: Pseudopotential generation method:
read_vps: ATM4.2.7  Troullier-Martins                       
Valence charge for ps generation:    6.00000

xc_check: Exchange-correlation functional:
xc_check: GGA Perdew, Burke & Ernzerhof 1996
V l=0 = -2*Zval/r beyond r=  1.1000
V l=1 = -2*Zval/r beyond r=  1.1000
V l=2 = -2*Zval/r beyond r=  2.2154
V l=3 = -2*Zval/r beyond r=  1.1000
All V_l potentials equal beyond r=  2.2154
This should be close to max(r_c) in ps generation
All pots = -2*Zval/r beyond r=  2.2154

VLOCAL1: 99.0% of the norm of Vloc inside      8.845 Ry
VLOCAL1: 99.9% of the norm of Vloc inside     20.157 Ry
atom: Maximum radius for 4*pi*r*r*local-pseudopot. charge    2.67231
atom: Maximum radius for r*vlocal+2*Zval:    2.32897
GHOST: No ghost state for L =  0
GHOST: No ghost state for L =  1
GHOST: No ghost state for L =  2
GHOST: No ghost state for L =  3

KBgen: Kleinman-Bylander projectors: 
   l= 0   rc=  2.243238   el= -1.759686   Ekb=**********   kbcos= -0.171774
   l= 1   rc=  2.328968   el= -0.663873   Ekb=-14.506792   kbcos= -0.519897
   l= 2   rc=  2.573941   el=  0.002031   Ekb= -1.137373   kbcos= -0.019581
   l= 3   rc=  2.606321   el=  0.003153   Ekb= -1.013546   kbcos= -0.003122

KBgen: Total number of Kleinman-Bylander projectors:   16
atom: -------------------------------------------------------------------------

atom: SANKEY-TYPE ORBITALS:
atom: Selected multiple-zeta basis: split     

SPLIT: Orbitals with angular momentum L= 0

SPLIT: Basis orbitals for state 2s

SPLIT: PAO cut-off radius determined from an
SPLIT: energy shift=  0.002000 Ry

   izeta = 1
                 lambda =    1.000000
                     rc =    4.243912
                 energy =   -1.758270
                kinetic =    3.286084
    potential(screened) =   -5.044353
       potential(ionic) =  -12.921184

   izeta = 2
                 rmatch =    2.187845
              splitnorm =    0.280000
                 energy =   -0.885018
                kinetic =    8.134434
    potential(screened) =   -9.019452
       potential(ionic) =  -17.710645

SPLIT: Orbitals with angular momentum L= 1

SPLIT: Basis orbitals for state 2p

SPLIT: PAO cut-off radius determined from an
SPLIT: energy shift=  0.002000 Ry

   izeta = 1
                 lambda =    1.000000
                     rc =    5.314825
                 energy =   -0.661986
                kinetic =    4.917472
    potential(screened) =   -5.579458
       potential(ionic) =  -13.236259

   izeta = 2
                 rmatch =    2.160663
              splitnorm =    0.280000
                 energy =   -0.068760
                kinetic =    9.183374
    potential(screened) =   -9.252135
       potential(ionic) =  -18.274251

POLgen: Perturbative polarization orbital with L=  2

POLgen: Polarization orbital for state 2p

   izeta = 1
                     rc =    5.314825
                 energy =    1.970580
                kinetic =    3.886128
    potential(screened) =   -1.915547
       potential(ionic) =   -7.749584
atom: Total number of Sankey-type orbitals: 13

atm_pop: Valence configuration (for local Pseudopot. screening):
 2s( 2.00)                                                            
 2p( 4.00)                                                            
Vna: chval, zval:    6.00000   6.00000

Vna:  Cut-off radius for the neutral-atom potential:   5.314825

atom: _________________________________________________________________________

prinput: Basis input ----------------------------------------------------------

PAO.BasisType split     

%block ChemicalSpeciesLabel
    1    1 H                       # Species index, atomic number, species label
    2    7 N                       # Species index, atomic number, species label
    3   14 Si                      # Species index, atomic number, species label
    4    8 O                       # Species index, atomic number, species label
%endblock ChemicalSpeciesLabel

%block PAO.Basis                 # Define Basis set
H                     1                    # Species label, number of l-shells
 n=1   0   2 P   1                   # n, l, Nzeta, Polarization, NzetaPol
   6.518      2.141   
   1.000      1.000   
N                     2                    # Species label, number of l-shells
 n=2   0   2                         # n, l, Nzeta 
   4.730      2.532   
   1.000      1.000   
 n=2   1   2 P   1                   # n, l, Nzeta, Polarization, NzetaPol
   5.924      2.532   
   1.000      1.000   
Si                    2                    # Species label, number of l-shells
 n=3   0   2                         # n, l, Nzeta 
   6.430      3.998   
   1.000      1.000   
 n=3   1   2 P   1                   # n, l, Nzeta, Polarization, NzetaPol
   8.465      4.588   
   1.000      1.000   
O                     2                    # Species label, number of l-shells
 n=2   0   2                         # n, l, Nzeta 
   4.244      2.188   
   1.000      1.000   
 n=2   1   2 P   1                   # n, l, Nzeta, Polarization, NzetaPol
   5.315      2.161   
   1.000      1.000   
%endblock PAO.Basis

prinput: ----------------------------------------------------------------------

Dumping basis to NetCDF file H.ion.nc
Dumping basis to NetCDF file N.ion.nc
Dumping basis to NetCDF file Si.ion.nc
Dumping basis to NetCDF file O.ion.nc
coor:   Atomic-coordinates input format  =     Cartesian coordinates
coor:                                          (in Angstroms)

siesta: Atomic coordinates (Bohr) and species
siesta:     -0.62957  10.64451   0.00000  1        1
siesta:     -1.96464   9.15155   0.00000  2        2
siesta:     -5.23441   9.98561   0.00000  3        3
siesta:     -5.52879  12.80129   0.00000  1        4
siesta:     -8.11307   7.03970   0.00000  3        5
siesta:    -10.91589   7.49858   0.00000  1        6
siesta:     -5.84844   3.42413   0.00000  3        7
siesta:     -7.29602   0.52772   0.00000  2        8
siesta:     -6.18061  -1.28116   0.00000  1        9
siesta:     -9.28330   0.37567   0.00000  1       10
siesta:     -2.60529   3.52840   0.00000  2       11
siesta:     -0.57379   6.04237   0.00000  3       12
siesta:      2.46616   6.00683   0.00000  4       13
siesta:     10.61355 -14.07759   0.00000  1       14
siesta:      8.65886 -13.66658   0.00000  2       15
siesta:      6.22979 -16.04876   0.00000  3       16
siesta:      7.18318 -18.71532  -0.00000  1       17
siesta:      3.13570 -15.14356   0.00000  2       18
siesta:      3.17659 -11.72506  -0.00000  3       19
siesta:      1.03072  -8.10005   0.00000  3       20
siesta:     -1.95457  -7.45403   0.00000  4       21
siesta:      3.27352  -5.43711   0.00000  2       22
siesta:      2.28576  -3.64645  -0.00000  1       23
siesta:      6.63017  -5.24735   0.00000  3       24
siesta:      7.81751  -2.22872   0.00000  2       25
siesta:      6.69523  -0.49602   0.00000  1       26
siesta:      9.79567  -1.98858  -0.00000  1       27
siesta:      8.75489  -7.70105  -0.00000  2       28
siesta:      7.16982 -10.55666   0.00000  3       29

siesta: System type = molecule  

initatomlists: Number of atoms, orbitals, and projectors:     29   297   394

siesta: ******************** Simulation parameters ****************************
siesta:
siesta: The following are some of the parameters of the simulation.
siesta: A complete list of the parameters used, including default values,
siesta: can be found in file out.fdf
siesta:
redata: Spin configuration                          = spin-orbit
redata: Number of spin components                   = 8
redata: Time-Reversal Symmetry                      = F
redata: Spin spiral                                 = F
############################################################
This spin-orbit implementation uses a local approximation.
From 4.2 and onwards the full non-local approximation is implemented
You are strongly advised to use >=4.2 versions!
############################################################
redata: Long output                                 =   F
redata: Number of Atomic Species                    =        4
redata: Charge density info will appear in .RHO file
redata: Write Mulliken Pop.                         = NO
redata: Matel table size (NRTAB)                    =     1024
redata: Mesh Cutoff                                 =   340.0000 Ry
redata: Net charge of the system                    =     0.0000 |e|
redata: Min. number of SCF Iter                     =        1
redata: Max. number of SCF Iter                     =      200
redata: SCF mix quantity                            = Hamiltonian
redata: Mix DM or H after convergence               =   F
redata: Recompute H after scf cycle                 =   F
redata: Mix DM in first SCF step                    =   T
redata: Write Pulay info on disk                    =   F
redata: New DM Occupancy tolerance                  = 0.000000000001
redata: No kicks to SCF
redata: DM Mixing Weight for Kicks                  =     0.5000
redata: Require Harris convergence for SCF          =   F
redata: Harris energy tolerance for SCF             =     0.000100 eV
redata: Require DM convergence for SCF              =   T
redata: DM tolerance for SCF                        =     0.000008
redata: Require EDM convergence for SCF             =   F
redata: EDM tolerance for SCF                       =     0.001000 eV
redata: Require H convergence for SCF               =   T
redata: Hamiltonian tolerance for SCF               =     0.000001 eV
redata: Require (free) Energy convergence for SCF   =   F
redata: (free) Energy tolerance for SCF             =     0.000100 eV
redata: Using Saved Data (generic)                  =   F
redata: Use continuation files for DM               =   T
redata: Neglect nonoverlap interactions             =   F
redata: Method of Calculation                       = Diagonalization
redata: Electronic Temperature                      =   299.9978 K
redata: Fix the spin of the system                  =   F
redata: Dynamics option                             = Verlet MD run
redata: Initial MD time step                        =        1
redata:   Final MD time step                        =        1
redata: Length of MD time step                      =     0.5000 fs
redata: Initial Temperature of MD run               =     0.0000 K
redata: Perform a MD quench                         =   F
mix.SCF: Pulay mixing                            = Pulay
mix.SCF:    Variant                              = stable
mix.SCF:    History steps                        = 6
mix.SCF:    Linear mixing weight                 =     0.250000
mix.SCF:    Mixing weight                        =     0.250000
mix.SCF:    SVD condition                        = 0.1000E-07
mix.SCF:    Restart steps                        = 24
mix.SCF:    Restart save steps                   = 3
mix.SCF: Spin-component mixing                   all
redata: Save all siesta data in one NC              =   F
redata: ***********************************************************************

%block SCF.Mixers
  Pulay
%endblock SCF.Mixers

%block SCF.Mixer.Pulay
  # Mixing method
  method pulay
  variant stable

  # Mixing options
  weight 0.2500
  weight.linear 0.2500
  history 6
  restart 24
  restart.save 3
%endblock SCF.Mixer.Pulay

Size of DM history Fstack: 3
Total number of electrons:    98.000000
Total ionic charge:    98.000000

* ProcessorY, Blocksize:    2  24


* Orbital distribution balance (max,min):    48    24


Time-reversal symmetry not used.

siesta: k-grid: Number of k-points =     1
siesta: k-grid: Cutoff (effective) =     5.000 Ang
siesta: k-grid: Supercell and displacements
siesta: k-grid:    1   0   0      0.000
siesta: k-grid:    0   1   0      0.000
siesta: k-grid:    0   0   1      0.000

diag: Algorithm                                     = ELPA-1stage
diag: Parallel over k                               =   F
diag: Use parallel 2D distribution                  =   T
diag: Parallel block-size                           = 24
diag: Parallel distribution                         =     2 x     4
diag: Used triangular part                          = Lower
diag: Absolute tolerance                            =  0.100E-15
diag: Orthogonalization factor                      =  0.100E-05
diag: Memory factor                                 =  1.0000


ts: **************************************************************
ts: Save H and S matrices                           =    F
ts: Save DM and EDM matrices                        =    F
ts: Only save the overlap matrix S                  =    F
ts: **************************************************************

************************ Begin: TS CHECKS AND WARNINGS ************************
************************ End: TS CHECKS AND WARNINGS **************************


                     ====================================
                        Begin MD step =      1
                     ====================================

outcoor: Atomic coordinates (Ang):                          
   -0.33315592    5.63282758    0.00000000   1       1  H
   -1.03964265    4.84279140    0.00000000   2       2  N
   -2.76992956    5.28415531    0.00000000   3       3  Si
   -2.92570924    6.77414757    0.00000000   1       4  H
   -4.29325118    3.72524779    0.00000000   3       5  Si
   -5.77643881    3.96807815    0.00000000   1       6  H
   -3.09486032    1.81197163    0.00000000   3       7  Si
   -3.86088578    0.27925489    0.00000000   2       8  N
   -3.27063923   -0.67795814    0.00000000   1       9  H
   -4.91250810    0.19879466    0.00000000   1      10  H
   -1.37866026    1.86714594    0.00000000   2      11  N
   -0.30363764    3.19748478    0.00000000   3      12  Si
    1.30503568    3.17867452    0.00000000   4      13  O
    5.61644830   -7.44953905    0.00000000   1      14  H
    4.58206954   -7.23203760    0.00000000   2      15  N
    3.29666389   -8.49263600    0.00000000   3      16  Si
    3.80117524   -9.90371886    0.00000000   1      17  H
    1.65934232   -8.01362137    0.00000000   2      18  N
    1.68097912   -6.20463398    0.00000000   3      19  Si
    0.54543521   -4.28636135    0.00000000   3      20  Si
   -1.03431493   -3.94450034    0.00000000   4      21  O
    1.73226934   -2.87719605    0.00000000   2      22  N
    1.20957366   -1.92961761    0.00000000   1      23  H
    3.50853448   -2.77677601    0.00000000   3      24  Si
    4.13684451   -1.17938608    0.00000000   2      25  N
    3.54296161   -0.26248101    0.00000000   1      26  H
    5.18364407   -1.05231197    0.00000000   1      27  H
    4.63288658   -4.07521596    0.00000000   2      28  N
    3.79410501   -5.58634043    0.00000000   3      29  Si

outcell: Unit cell vectors (Ang):
       30.000000    0.000000    0.000000
        0.000000   45.000000    0.000000
        0.000000    0.000000   10.000000

outcell: Cell vector modules (Ang)   :   30.000000   45.000000   10.000000
outcell: Cell angles (23,13,12) (deg):     90.0000     90.0000     90.0000
outcell: Cell volume (Ang**3)        :  13500.0000
<dSpData1D:S at geom step 1
  <sparsity:sparsity for geom step 1
    nrows_g=297 nrows=48 sparsity=.1013 nnzs=8933, refcount: 8>
  <dData1D:(new from dSpData1D) n=8933, refcount: 1>
refcount: 1>
new_DM -- step:     1
Initializing Density Matrix...

Attempting to read DM from file... Failed...
DM filled with atomic data:
<dSpData2D:DM initialized from atoms
  <sparsity:sparsity for geom step 1
    nrows_g=297 nrows=48 sparsity=.1013 nnzs=8933, refcount: 9>
  <dData2D:DM n=8933 m=8, refcount: 1>
refcount: 1>
     spin moment: S , {S} =   56.00000   0.00000   0.00000  56.00000
No. of atoms with KB's overlaping orbs in proc 0. Max # of overlaps:      27     154

Initializing spin-orbit part of the Hamiltonian
  Adding spin-orbit effects for H 
  Adding spin-orbit effects for N 
  Adding spin-orbit effects for Si
  Adding spin-orbit effects for O 


New grid distribution:   1
           1       1:  180    1:  125    1:   15
           2       1:  180    1:  125   16:   30
           3       1:  180    1:  125   31:   45
           4       1:  180    1:  125   46:   60
           5       1:  180  126:  250    1:   15
           6       1:  180  126:  250   16:   30
           7       1:  180  126:  250   31:   45
           8       1:  180  126:  250   46:   60

InitMesh: MESH =   360 x   500 x   120 =    21600000
InitMesh: (bp) =   180 x   250 x    60 =     2700000
InitMesh: Mesh cutoff (required, used) =   340.000   341.206 Ry
ExtMesh (bp) on 0 =   288 x   225 x   123 =     7970400
New grid distribution:   2
           1       1:  156   30:  208    1:   60
           2     157:  180   21:  208    1:   60
           3       1:   21  227:  250    1:   60
           4     157:  180    1:   20    1:   60
           5       1:  156    1:   29    1:   60
           6      22:  180  229:  250    1:   60
           7      22:  180  209:  228    1:   60
           8       1:   21  209:  226    1:   60
New grid distribution:   3
           1       1:  143   25:  194    1:   60
           2       1:  143    1:   24    1:   60
           3     144:  180    1:   25    1:   60
           4       1:   33  223:  250    1:   60
           5     144:  180   26:  194    1:   60
           6      34:  180  195:  229    1:   60
           7      34:  180  230:  250    1:   60
           8       1:   33  195:  222    1:   60
Setting up quadratic distribution...
ExtMesh (bp) on 0 =   264 x   279 x   168 =    12374208
PhiOnMesh: Number of (b)points on node 0 =              1675440
PhiOnMesh: nlist on node 0 =              1613494

stepf: Fermi-Dirac step function

siesta: Program's energy decomposition (eV):
siesta: Ebs     =      -592.704333
siesta: Eions   =      3585.165840
siesta: Ena     =       381.828104
siesta: Ekin    =      3368.879828
siesta: Enl     =     -3297.266023
siesta: Eso     =        -0.003409
siesta: Edftu   =         0.000000
siesta: DEna    =       153.524254
siesta: DUscf   =        81.569946
siesta: DUext   =         0.000000
siesta: Exc     =     -1203.999508
siesta: eta*DQ  =         0.000000
siesta: Emadel  =         0.000000
siesta: Emeta   =         0.000000
siesta: Emolmec =         0.000000
siesta: Ekinion =         0.000000
siesta: Eharris =     -4021.452148
siesta: Etot    =     -4100.632647
siesta: FreeEng =     -4100.633683

        iscf     Eharris(eV)        E_KS(eV)     FreeEng(eV)     dDmax    Ef(eV) dHmax(eV)
   scf:    1    -4021.452148    -4100.632647    -4100.633683  0.965620 -4.903586 22.197904
     spin moment: S , {S} =    2.00583   0.00000   0.00000   2.00583
timer: Routine,Calls,Time,% = IterSCF        1      11.396  30.23
   scf:    2    -4146.037968    -4135.698320    -4135.699364  0.456179 -4.148785 12.404170
     spin moment: S , {S} =    1.99488  -0.00000   0.00000   1.99488
   scf:    3    -4100.782448    -4131.662065    -4131.684899  0.429951 -4.311787 13.358201
     spin moment: S , {S} =    2.24691   0.00000   0.00000   2.24691
   scf:    4    -4150.349005    -4144.993751    -4144.993751  0.325941 -3.828712  6.964415
     spin moment: S , {S} =    0.00010   0.00000   0.00000   0.00010
   scf:    5    -4146.383248    -4145.796485    -4145.796485  0.039714 -3.591527  4.238860
     spin moment: S , {S} =    0.00006   0.00000   0.00000   0.00006
   scf:    6    -4146.527549    -4146.169876    -4146.169876  0.023563 -3.403345  2.202585
     spin moment: S , {S} =    0.00003  -0.00000  -0.00000   0.00003
   scf:    7    -4146.528351    -4146.345652    -4146.345652  0.021782 -3.592414  0.933624
     spin moment: S , {S} =    0.00001   0.00000   0.00000   0.00001
   scf:    8    -4146.462822    -4146.402474    -4146.402474  0.012149 -3.670279  0.556409
     spin moment: S , {S} =    0.00000  -0.00000   0.00000   0.00000
   scf:    9    -4146.442819    -4146.421957    -4146.421957  0.007069 -3.627255  0.431305
     spin moment: S , {S} =    0.00000   0.00000   0.00000   0.00000
   scf:   10    -4146.476430    -4146.441604    -4146.441604  0.023471 -3.683241  0.262733
     spin moment: S , {S} =    0.00000  -0.00000  -0.00000  -0.00000
   scf:   11    -4146.445946    -4146.443824    -4146.443824  0.005627 -3.671586  0.074979
     spin moment: S , {S} =    0.00000  -0.00000  -0.00000  -0.00000
   scf:   12    -4146.445547    -4146.444695    -4146.444695  0.001454 -3.665186  0.033240
     spin moment: S , {S} =    0.00000  -0.00000  -0.00000  -0.00000
   scf:   13    -4146.445260    -4146.444974    -4146.444974  0.001120 -3.662470  0.021217
     spin moment: S , {S} =    0.00000  -0.00000  -0.00000  -0.00000
   scf:   14    -4146.445272    -4146.445117    -4146.445117  0.000744 -3.661183  0.012294
     spin moment: S , {S} =    0.00000  -0.00000  -0.00000  -0.00000
   scf:   15    -4146.445248    -4146.445178    -4146.445178  0.000847 -3.660634  0.007571
     spin moment: S , {S} =    0.00000  -0.00000  -0.00000  -0.00000
   scf:   16    -4146.445241    -4146.445207    -4146.445207  0.000689 -3.660679  0.005437
     spin moment: S , {S} =    0.00000  -0.00000  -0.00000   0.00000
   scf:   17    -4146.445229    -4146.445217    -4146.445217  0.000437 -3.660947  0.004161
     spin moment: S , {S} =    0.00000  -0.00000  -0.00000   0.00000
   scf:   18    -4146.445226    -4146.445221    -4146.445221  0.000276 -3.660939  0.002800
     spin moment: S , {S} =    0.00000  -0.00000  -0.00000   0.00000
   scf:   19    -4146.445226    -4146.445223    -4146.445223  0.000241 -3.660906  0.001762
     spin moment: S , {S} =    0.00000  -0.00000  -0.00000   0.00000
   scf:   20    -4146.445224    -4146.445224    -4146.445224  0.000116 -3.660923  0.001281
     spin moment: S , {S} =    0.00000  -0.00000  -0.00000   0.00000
   scf:   21    -4146.445225    -4146.445224    -4146.445224  0.000151 -3.660961  0.000778
     spin moment: S , {S} =    0.00000  -0.00000  -0.00000   0.00000
   scf:   22    -4146.445225    -4146.445225    -4146.445225  0.000122 -3.661015  0.000262
     spin moment: S , {S} =    0.00000  -0.00000  -0.00000   0.00000
   scf:   23    -4146.445225    -4146.445225    -4146.445225  0.000044 -3.661025  0.000146
     spin moment: S , {S} =    0.00000  -0.00000  -0.00000   0.00000
   scf:   24    -4146.445225    -4146.445225    -4146.445225  0.000013 -3.661017  0.000090
     spin moment: S , {S} =    0.00000  -0.00000  -0.00000   0.00000
mix: Pulay -- resetting history
   scf:   25    -4146.445225    -4146.445225    -4146.445225  0.000011 -3.661006  0.000053
     spin moment: S , {S} =    0.00000  -0.00000  -0.00000   0.00000
   scf:   26    -4146.445225    -4146.445225    -4146.445225  0.000003 -3.660997  0.000031
     spin moment: S , {S} =    0.00000  -0.00000  -0.00000   0.00000
   scf:   27    -4146.445225    -4146.445225    -4146.445225  0.000005 -3.660996  0.000020
     spin moment: S , {S} =    0.00000  -0.00000  -0.00000   0.00000
   scf:   28    -4146.445225    -4146.445225    -4146.445225  0.000002 -3.660995  0.000012
     spin moment: S , {S} =    0.00000  -0.00000  -0.00000   0.00000
   scf:   29    -4146.445225    -4146.445225    -4146.445225  0.000001 -3.660994  0.000007
     spin moment: S , {S} =    0.00000  -0.00000  -0.00000   0.00000
   scf:   30    -4146.445225    -4146.445225    -4146.445225  0.000001 -3.660993  0.000003
     spin moment: S , {S} =    0.00000  -0.00000  -0.00000   0.00000
   scf:   31    -4146.445225    -4146.445225    -4146.445225  0.000000 -3.660993  0.000002
     spin moment: S , {S} =    0.00000  -0.00000  -0.00000   0.00000
   scf:   32    -4146.445225    -4146.445225    -4146.445225  0.000000 -3.660993  0.000001
     spin moment: S , {S} =    0.00000  -0.00000  -0.00000   0.00000
   scf:   33    -4146.445225    -4146.445225    -4146.445225  0.000000 -3.660993  0.000001
     spin moment: S , {S} =    0.00000  -0.00000  -0.00000  -0.00000

SCF Convergence by DM+H criterion
max |DM_out - DM_in|         :     0.0000001281
max |H_out - H_in|      (eV) :     0.0000007365
SCF cycle converged after 33 iterations

Using DM_out to compute the final energy and forces
No. of atoms with KB's overlaping orbs in proc 0. Max # of overlaps:      27     154

siesta: E_KS(eV) =            -4146.4452

siesta: E_KS - E_eggbox =     -4146.4452
     spin moment: S , {S} =    0.00000  -0.00000  -0.00000  -0.00000

siesta: Atomic forces (eV/Ang):
     1    0.041912    0.004984   -0.000000
     2   -0.492140    0.276787   -0.000000
     3    0.395870   -0.036247    0.000000
     4   -0.061737    0.033939    0.000000
     5   -0.197695   -0.200568   -0.000000
     6    0.076484    0.027773    0.000000
     7    1.136142    0.941315    0.000000
     8    0.811631   -2.241527   -0.000000
     9   -1.242381    1.749741   -0.000000
    10    0.111519   -0.392199    0.000000
    11   -0.947404   -0.298103   -0.000000
    12    1.143082   -0.229511    0.000000
    13    1.928190   -3.656273    0.000000
    14   -0.015007   -0.031900   -0.000000
    15    0.107783    0.030736    0.000000
    16    0.011944   -0.018618    0.000000
    17   -0.002228    0.046708    0.000000
    18   -0.039945    0.041803   -0.000000
    19    0.247289    0.026649    0.000000
    20   -1.303037   -0.157686   -0.000000
    21    1.194112   -3.823503   -0.000000
    22    0.308769    0.734978    0.000000
    23    0.216509   -0.569458   -0.000000
    24   -0.316141   -0.887846   -0.000000
    25   -0.488540    1.515745    0.000000
    26    0.811911   -1.161448    0.000000
    27   -0.143086    0.094977   -0.000000
    28    0.042521    0.669733    0.000000
    29   -0.293592   -0.384981    0.000000
----------------------------------------
   Tot    3.042733   -7.894002    0.000000
----------------------------------------
   Max    3.823503
   Res    0.813930    sqrt( Sum f_i^2 / 3N )
----------------------------------------
   Max    3.823503    constrained

Stress tensor Voigt[x,y,z,yz,xz,xy] (kbar):        0.54        0.23       -0.04        0.00       -0.00       -0.50
(Free)E + p*V (eV/cell)    -4148.5122
Target enthalpy (eV/cell)    -4146.4452

siesta: Stress tensor (static) (eV/Ang**3):
         0.000339   -0.000313   -0.000000
        -0.000313    0.000144    0.000000
        -0.000000    0.000000   -0.000024

siesta: Pressure (static):         -0.24531527  kBar

siesta: Stress tensor (total) (eV/Ang**3):
         0.000339   -0.000313   -0.000000
        -0.000313    0.000144    0.000000
        -0.000000    0.000000   -0.000024

siesta: Pressure (total):         -0.24531527  kBar

siesta: Temp_ion =       0.000 K

siesta: Eigenvalues (eV):
ik =     1
  -21.7741  -21.7741  -21.6915  -21.6915  -21.4569  -21.4569  -21.4286  -21.4286  -21.0892  -21.0892
  -20.9923  -20.9923  -20.6772  -20.6772  -19.6612  -19.6612  -19.3200  -19.3200  -19.2141  -19.2141
  -14.6876  -14.6876  -13.7422  -13.7422  -13.2525  -13.2525  -13.0099  -13.0099  -12.9247  -12.9247
  -12.7817  -12.7817  -12.6784  -12.6784  -12.3192  -12.3192  -12.3093  -12.3093  -11.9628  -11.9628
  -11.2601  -11.2601  -10.7405  -10.7405  -10.6129  -10.6129  -10.5789  -10.5789  -10.0204  -10.0204
   -9.4948   -9.4948   -9.1132   -9.1132   -8.7050   -8.7050   -8.6076   -8.6076   -8.5585   -8.5585
   -8.4764   -8.4764   -8.3433   -8.3433   -8.0317   -8.0317   -7.7440   -7.7440   -7.5782   -7.5782
   -7.4791   -7.4791   -7.1585   -7.1585   -7.1536   -7.1536   -6.7214   -6.7214   -6.6879   -6.6879
   -6.4305   -6.4305   -6.3660   -6.3660   -6.0490   -6.0490   -5.9756   -5.9756   -5.9672   -5.9672
   -5.7285   -5.7285   -5.4905   -5.4905   -5.4030   -5.4030   -4.1598   -4.1598   -3.1621   -3.1621
   -2.2325   -2.2325   -2.1714   -2.1714   -2.1417   -2.1417   -1.7809   -1.7809   -1.7530   -1.7530
   -1.7223   -1.7223   -1.7044   -1.7044   -1.5227   -1.5227   -1.3985   -1.3985   -0.9174   -0.9174
   -0.7866   -0.7866   -0.6519   -0.6519   -0.2619   -0.2619   -0.1089   -0.1089    0.1410    0.1410
    0.5333    0.5333    0.5573    0.5573    0.6949    0.6949    0.7793    0.7793    0.9356    0.9356
    1.0679    1.0679    1.3629    1.3629    1.4307    1.4307    1.4971    1.4971    1.5360    1.5360
    1.8677    1.8677    1.9255    1.9255    2.0091    2.0091    2.4632    2.4632    2.8692    2.8692
    2.8792    2.8792    2.8890    2.8890    3.0908    3.0908    3.2660    3.2660    3.4355    3.4355
    3.5335    3.5335    3.8946    3.8946    3.9710    3.9710    4.1644    4.1644    4.4172    4.4172
    4.4986    4.4986    4.5103    4.5103    4.6491    4.6491    4.7449    4.7449    4.9610    4.9610
    4.9833    4.9833    5.1422    5.1422    5.3841    5.3841    5.5717    5.5717    5.7978    5.7978
    5.8621    5.8621    5.9072    5.9072    6.0315    6.0315    6.1186    6.1186    6.1568    6.1568
    6.2553    6.2553    6.5039    6.5039    6.6870    6.6870    6.8350    6.8350    6.9043    6.9043
    7.1128    7.1128    7.3150    7.3150    7.5674    7.5674    7.6733    7.6733    7.8251    7.8251
    7.9409    7.9409    8.0472    8.0472    8.1653    8.1653    8.3733    8.3733    8.4112    8.4112
    8.6708    8.6708    8.8595    8.8595    8.9910    8.9910    9.0106    9.0106    9.2446    9.2446
    9.3347    9.3347    9.3693    9.3693    9.7934    9.7934    9.9156    9.9156    9.9850    9.9850
   10.1860   10.1860   10.2427   10.2427   10.5856   10.5856   10.8882   10.8882   11.0100   11.0100
   11.1116   11.1116   11.1436   11.1436   11.2202   11.2202   11.7703   11.7703   11.8655   11.8655
   11.8954   11.8954   12.0385   12.0385   12.2682   12.2682   12.5315   12.5315   12.7787   12.7787
   12.7950   12.7950   12.9317   12.9317   13.4498   13.4498   13.5486   13.5486   13.7967   13.7967
   13.8657   13.8657   14.1755   14.1755   14.4157   14.4157   14.8162   14.8162   14.8853   14.8853
   14.9425   14.9425   15.4175   15.4175   16.1394   16.1394   16.5897   16.5897   16.7716   16.7716
   17.0586   17.0586   17.4184   17.4184   17.6817   17.6817   18.3256   18.3256   18.5560   18.5560
   18.7385   18.7385   19.2560   19.2560   19.4571   19.4571   20.0342   20.0342   20.3434   20.3434
   21.0628   21.0628   21.3122   21.3122   22.0707   22.0707   22.2780   22.2780   22.5101   22.5101
   22.9772   22.9772   23.3920   23.3920   23.8499   23.8499   23.9154   23.9154   24.0407   24.0407
   24.9774   24.9774   25.4697   25.4697   26.0361   26.0361   26.8347   26.8347   27.7205   27.7205
   28.6902   28.6902   29.1150   29.1150   29.2659   29.2659   29.5640   29.5640   29.8144   29.8144
   30.0943   30.0943   30.2304   30.2304   30.3632   30.3632   30.8459   30.8459   31.0667   31.0667
   31.1435   31.1435   31.2552   31.2552   31.6746   31.6746   31.7278   31.7278   32.1838   32.1838
   32.8412   32.8412   33.9669   33.9669   34.6783   34.6783   34.7197   34.7197   35.0424   35.0424
   35.0610   35.0610   35.1043   35.1043   35.6480   35.6480   35.7476   35.7476   35.8431   35.8431
   36.8593   36.8594   36.9891   36.9891   37.1780   37.1780   37.4313   37.4313   37.8451   37.8451
   38.2388   38.2388   38.6318   38.6318   39.3748   39.3748   39.5102   39.5102   40.0007   40.0007
   40.4973   40.4973   40.6486   40.6486   40.6507   40.6507   41.0169   41.0169   41.0313   41.0313
   41.3702   41.3702   41.3926   41.3926   42.6087   42.6087   42.9425   42.9425   43.0607   43.0607
   43.4655   43.4655   43.8102   43.8102   44.0838   44.0838   44.1427   44.1427   44.4121   44.4121
   44.7882   44.7882   44.7979   44.7979   45.2811   45.2811   45.6186   45.6186   46.0587   46.0587
   46.5766   46.5766   47.1849   47.1849   47.4647   47.4647   48.8490   48.8490   49.3751   49.3751
   49.5848   49.5848   50.4469   50.4469   50.5329   50.5329   51.0367   51.0367   51.2087   51.2087
   51.6612   51.6612   51.7931   51.7931   52.7804   52.7804   53.1437   53.1437   54.2703   54.2703
   54.3710   54.3710   54.7133   54.7133   55.0994   55.0994   55.7744   55.7744   55.9332   55.9332
   55.9721   55.9721   56.3179   56.3179   56.4627   56.4627   58.4328   58.4328   58.5041   58.5041
   58.9008   58.9008   60.2979   60.2979   60.3534   60.3534   60.9880   60.9880   61.2693   61.2693
   61.8844   61.8844   62.1384   62.1384   62.3397   62.3397   64.8609   64.8609   66.6160   66.6160
   66.9353   66.9353   67.3802   67.3802   68.1445   68.1445   68.7263   68.7263   70.9942   70.9942
   73.9369   73.9369   80.5488   80.5488   91.2709   91.2709   92.1202   92.1202   93.3739   93.3739
   98.4207   98.4207   98.9487   98.9487   99.6457   99.6457  103.2270  103.2270  103.8060  103.8060
  110.2485  110.2485  111.8430  111.8430  124.1780  124.1780  126.3315  126.3315  129.4083  129.4083
  135.3316  135.3316  138.4624  138.4624
siesta: Fermi energy =      -3.660993 eV

siesta: Program's energy decomposition (eV):
siesta: Ebs     =     -1123.219277
siesta: Eions   =      3585.165840
siesta: Ena     =       381.828104
siesta: Ekin    =      2902.635827
siesta: Enl     =     -2787.356722
siesta: Eso     =        -0.004274
siesta: Edftu   =         0.000000
siesta: DEna    =        46.928292
siesta: DUscf   =        14.297519
siesta: DUext   =         0.000000
siesta: Exc     =     -1119.608131
siesta: eta*DQ  =         0.000000
siesta: Emadel  =         0.000000
siesta: Emeta   =         0.000000
siesta: Emolmec =         0.000000
siesta: Ekinion =         0.000000
siesta: Eharris =     -4146.445225
siesta: Etot    =     -4146.445225
siesta: FreeEng =     -4146.445225

siesta: Final energy (eV):
siesta:  Band Struct. =   -1123.219277
siesta:       Kinetic =    2902.635827
siesta:       Hartree =   13939.247285
siesta:       Edftu   =       0.000000
siesta:       Eso     =      -0.004274
siesta:    Ext. field =       0.000000
siesta:   Exch.-corr. =   -1119.608131
siesta:  Ion-electron =  -30450.976434
siesta:       Ion-ion =   10582.260502
siesta:       Ekinion =       0.000000
siesta:         Total =   -4146.445225
siesta:         Fermi =      -3.660993

siesta: Atomic forces (eV/Ang):
siesta:      1    0.041912    0.004984   -0.000000
siesta:      2   -0.492140    0.276787   -0.000000
siesta:      3    0.395870   -0.036247    0.000000
siesta:      4   -0.061737    0.033939    0.000000
siesta:      5   -0.197695   -0.200568   -0.000000
siesta:      6    0.076484    0.027773    0.000000
siesta:      7    1.136142    0.941315    0.000000
siesta:      8    0.811631   -2.241527   -0.000000
siesta:      9   -1.242381    1.749741   -0.000000
siesta:     10    0.111519   -0.392199    0.000000
siesta:     11   -0.947404   -0.298103   -0.000000
siesta:     12    1.143082   -0.229511    0.000000
siesta:     13    1.928190   -3.656273    0.000000
siesta:     14   -0.015007   -0.031900   -0.000000
siesta:     15    0.107783    0.030736    0.000000
siesta:     16    0.011944   -0.018618    0.000000
siesta:     17   -0.002228    0.046708    0.000000
siesta:     18   -0.039945    0.041803   -0.000000
siesta:     19    0.247289    0.026649    0.000000
siesta:     20   -1.303037   -0.157686   -0.000000
siesta:     21    1.194112   -3.823503   -0.000000
siesta:     22    0.308769    0.734978    0.000000
siesta:     23    0.216509   -0.569458   -0.000000
siesta:     24   -0.316141   -0.887846   -0.000000
siesta:     25   -0.488540    1.515745    0.000000
siesta:     26    0.811911   -1.161448    0.000000
siesta:     27   -0.143086    0.094977   -0.000000
siesta:     28    0.042521    0.669733    0.000000
siesta:     29   -0.293592   -0.384981    0.000000
siesta: ----------------------------------------
siesta:    Tot    3.042733   -7.894002    0.000000

siesta: Stress tensor (static) (eV/Ang**3):
siesta:     0.000339   -0.000313   -0.000000
siesta:    -0.000313    0.000144    0.000000
siesta:    -0.000000    0.000000   -0.000024

siesta: Cell volume =      13500.000000 Ang**3

siesta: Pressure (static):
siesta:                Solid            Molecule  Units
siesta:          -0.00000167          0.00000134  Ry/Bohr**3
siesta:          -0.00015311          0.00012314  eV/Ang**3
siesta:          -0.24531527          0.19728863  kBar
(Free)E+ p_basis*V_orbitals  =       -4126.594807
(Free)Eharris+ p_basis*V_orbitals  =       -4126.594807
     spin moment: S , {S} =    0.00000  -0.00000  -0.00000  -0.00000

siesta: Electric dipole (a.u.)  =    0.004576    1.486474    0.000000
siesta: Electric dipole (Debye) =    0.011630    3.778243    0.000000

cite: Please see "GC.bib" for an exhaustive BiBTeX file.
cite: Please clearly indicate Siesta version in published work: v4.1.5-1-g384057250
cite: This calculation has made use of the following articles
cite: which are encouraged to be cited in a published work.
        Primary SIESTA paper
          DOI: www.doi.org/10.1088/0953-8984/14/11/302
        Spin-orbit coupling (on-site approximation)
          DOI: www.doi.org/10.1088/0953-8984/19/19/489001


WARNING: alloc-realloc-dealloc name mismatch
         Name: atomlist isa
         Size:              -116. Bytes
         Node:     0
         Subsequent mismatches will not be reported
>> End of run:   1-FEB-2024  22:38:23
Job completed
