Siesta Version  : v4.1.5-1-g384057250
Architecture    : gcc
Compiler version: GNU Fortran (Ubuntu 11.3.0-1ubuntu1~22.04) 11.3.0
Compiler flags  : mpifort -O2 -fPIC -ftree-vectorize -fallow-argument-mismatch
PP flags        : -DFC_HAVE_ABORT -DMPI -DSIESTA__FLOOK -DSIESTA__METIS -DSIESTA__MUMPS -DCDF -DNCDF -DNCDF_4 -DNCDF_PARALLEL -DSIESTA__MRRR -DSIESTA__ELPA
Libraries       : libncdf.a libfdict.a  -lflookall -ldl -lnetcdff -lnetcdf -lhdf5_hl -lhdf5 -lhdf5_fortran -lz -lscalapack-openmpi -lopenblas -lmetis -lzmumps -lcmumps -ldmumps -lmumps_common -lpord -lsmumps -lesmumps -lscotch -lscotcherr -fopenmp -lelpa
PARALLEL version
NetCDF support
NetCDF-4 support
NetCDF-4 MPI-IO support
METIS ordering support
Lua support

* Running on 4 nodes in parallel
>> Start of run:   4-JUL-2023   8:59:07

                           ***********************       
                           *  WELCOME TO SIESTA  *       
                           ***********************       

reinit: Reading from standard input
reinit: Dumped input in INPUT_TMP.74373
************************** Dump of input data file ****************************
SystemLabel      GC
NumberOfAtoms    29
NumberOfSpecies  4
%block ChemicalSpeciesLabel
    1    8  O
    2    7  N
    3   14  Si
    4    1  H
%endblock ChemicalSpeciesLabel
# Single point calculation
MD.TypeOfRun                CG
MD.Steps                    0
SCF.MustConverge            F # In case it does not. There can be 2 very close atoms
AtomicCoordinatesFormat NotScaledCartesianAng
%block AtomicCoordinatesAndAtomicSpecies
0.958671510    3.803529300    0.000000000       1
-3.038688210   0.998073330    0.000000000       2
2.066567750    1.099065770    0.000000000       2
1.029569860    -1.834680850   0.000000000       2
-2.108567660   -1.881798240   0.000000000       2
3.912411070    -1.180894430   0.000000000       2
-1.235636790   1.044983000    0.000000000       3
-0.501909240   -1.031832280   0.000000000       3
0.629463280    2.232755840    0.000000000       3
2.280054370    -0.658293540   0.000000000       3
-3.424812990   -0.662324160   0.000000000       3
2.965974160    1.682263990    0.000000000       4
-4.796229390   -1.238728480   0.000000000       4
4.096559410    -2.214148760   0.000000000       4
4.792108680    -0.529147250   0.000000000       4
-2.266861300   -2.922393730   0.000000000       4
4.341589167    4.672247611    0.000000000       3
6.267066917    5.863876941    0.000000000       3
5.802260527    1.937693241    0.000000000       3
7.873440447    4.384739831    0.000000000       3
4.443873707    2.962892921    0.000000000       2
2.762211077    5.342477101    0.000000000       2
7.455330427    2.652856921    0.000000000       2
6.575557737    7.328538301    0.000000000       4
9.365113357    4.584719291    0.000000000       4
2.577584637    6.377350831    0.000000000       4
1.870119287    4.671188371    0.000000000       4
5.792129927    0.339464721    0.000000000       1
8.231928807    1.931026721    0.000000000       4
%endblock AtomicCoordinatesAndAtomicSpecies
%include ../../../Defaults.fdf
************************** End of input data file *****************************

reinit: -----------------------------------------------------------------------
reinit: System Name: 
reinit: -----------------------------------------------------------------------
reinit: System Label: GC
reinit: -----------------------------------------------------------------------

initatom: Reading input for the pseudopotentials and atomic orbitals ----------
Species number:   1 Atomic number:    8 Label: O
Species number:   2 Atomic number:    7 Label: N
Species number:   3 Atomic number:   14 Label: Si
Species number:   4 Atomic number:    1 Label: H

Ground state valence configuration:   2s02  2p04
Reading pseudopotential information in formatted form from O.psf

Pseudopotential generated from a relativistic atomic calculation

Valence configuration for pseudopotential generation:
2s( 2.00) rc: 0.45
2p( 4.00) rc: 0.92
3d( 0.00) rc: 2.24
4f( 0.00) rc: 0.25
Ground state valence configuration:   2s02  2p03
Reading pseudopotential information in formatted form from N.psf

Pseudopotential generated from a relativistic atomic calculation

Valence configuration for pseudopotential generation:
2s( 2.00) rc: 0.94
2p( 3.00) rc: 0.59
3d( 0.00) rc: 3.46
4f( 0.00) rc: 2.47
Ground state valence configuration:   3s02  3p02
Reading pseudopotential information in formatted form from Si.psf

Pseudopotential generated from a relativistic atomic calculation

Valence configuration for pseudopotential generation:
3s( 2.00) rc: 1.67
3p( 2.00) rc: 2.04
3d( 0.00) rc: 2.89
4f( 0.00) rc: 2.49
Ground state valence configuration:   1s01
Reading pseudopotential information in formatted form from H.psf

Pseudopotential generated from a relativistic atomic calculation

Valence configuration for pseudopotential generation:
1s( 1.00) rc: 0.01
2p( 0.00) rc: 0.60
3d( 0.00) rc: 1.99
4f( 0.00) rc: 2.49
For O, standard SIESTA heuristics set lmxkb to 3
 (one more than the basis l, including polarization orbitals).
Use PS.lmax or PS.KBprojectors blocks to override.
For N, standard SIESTA heuristics set lmxkb to 3
 (one more than the basis l, including polarization orbitals).
Use PS.lmax or PS.KBprojectors blocks to override.
For Si, standard SIESTA heuristics set lmxkb to 3
 (one more than the basis l, including polarization orbitals).
Use PS.lmax or PS.KBprojectors blocks to override.
For H, standard SIESTA heuristics set lmxkb to 2
 (one more than the basis l, including polarization orbitals).
Use PS.lmax or PS.KBprojectors blocks to override.

<basis_specs>
===============================================================================
O                    Z=   8    Mass=  16.000        Charge= 0.17977+309
Lmxo=1 Lmxkb= 3    BasisType=split      Semic=F
L=0  Nsemic=0  Cnfigmx=2
          i=1  nzeta=2  polorb=0  (2s)
            splnorm:   0.28000    
               vcte:    0.0000    
               rinn:    0.0000    
               qcoe:    0.0000    
               qyuk:    0.0000    
               qwid:   0.10000E-01
                rcs:    0.0000      0.0000    
            lambdas:    1.0000      1.0000    
L=1  Nsemic=0  Cnfigmx=2
          i=1  nzeta=2  polorb=1  (2p)
            splnorm:   0.28000    
               vcte:    0.0000    
               rinn:    0.0000    
               qcoe:    0.0000    
               qyuk:    0.0000    
               qwid:   0.10000E-01
                rcs:    0.0000      0.0000    
            lambdas:    1.0000      1.0000    
-------------------------------------------------------------------------------
L=0  Nkbl=1  erefs: 0.17977+309
L=1  Nkbl=1  erefs: 0.17977+309
L=2  Nkbl=1  erefs: 0.17977+309
L=3  Nkbl=1  erefs: 0.17977+309
===============================================================================
</basis_specs>

atom: Called for O                     (Z =   8)

read_vps: Pseudopotential generation method:
read_vps: ATM4.2.7  Troullier-Martins                       
Valence charge for ps generation:    6.00000

xc_check: Exchange-correlation functional:
xc_check: GGA Perdew, Burke & Ernzerhof 1996
V l=0 = -2*Zval/r beyond r=  1.1000
V l=1 = -2*Zval/r beyond r=  1.1000
V l=2 = -2*Zval/r beyond r=  2.2154
V l=3 = -2*Zval/r beyond r=  1.1000
All V_l potentials equal beyond r=  2.2154
This should be close to max(r_c) in ps generation
All pots = -2*Zval/r beyond r=  2.2154

VLOCAL1: 99.0% of the norm of Vloc inside      8.845 Ry
VLOCAL1: 99.9% of the norm of Vloc inside     20.157 Ry
atom: Maximum radius for 4*pi*r*r*local-pseudopot. charge    2.67231
atom: Maximum radius for r*vlocal+2*Zval:    2.32897
GHOST: No ghost state for L =  0
GHOST: No ghost state for L =  1
GHOST: No ghost state for L =  2
GHOST: No ghost state for L =  3

KBgen: Kleinman-Bylander projectors: 
   l= 0   rc=  2.243238   el= -1.759686   Ekb=**********   kbcos= -0.171774
   l= 1   rc=  2.328968   el= -0.663873   Ekb=-14.506792   kbcos= -0.519897
   l= 2   rc=  2.573941   el=  0.002031   Ekb= -1.137373   kbcos= -0.019581
   l= 3   rc=  2.606321   el=  0.003153   Ekb= -1.013546   kbcos= -0.003122

KBgen: Total number of Kleinman-Bylander projectors:   16
atom: -------------------------------------------------------------------------

atom: SANKEY-TYPE ORBITALS:
atom: Selected multiple-zeta basis: split     

SPLIT: Orbitals with angular momentum L= 0

SPLIT: Basis orbitals for state 2s

SPLIT: PAO cut-off radius determined from an
SPLIT: energy shift=  0.002000 Ry

   izeta = 1
                 lambda =    1.000000
                     rc =    4.243912
                 energy =   -1.758270
                kinetic =    3.286084
    potential(screened) =   -5.044353
       potential(ionic) =  -12.921184

   izeta = 2
                 rmatch =    2.187845
              splitnorm =    0.280000
                 energy =   -0.885018
                kinetic =    8.134434
    potential(screened) =   -9.019452
       potential(ionic) =  -17.710645

SPLIT: Orbitals with angular momentum L= 1

SPLIT: Basis orbitals for state 2p

SPLIT: PAO cut-off radius determined from an
SPLIT: energy shift=  0.002000 Ry

   izeta = 1
                 lambda =    1.000000
                     rc =    5.314825
                 energy =   -0.661986
                kinetic =    4.917472
    potential(screened) =   -5.579458
       potential(ionic) =  -13.236259

   izeta = 2
                 rmatch =    2.160663
              splitnorm =    0.280000
                 energy =   -0.068760
                kinetic =    9.183374
    potential(screened) =   -9.252135
       potential(ionic) =  -18.274251

POLgen: Perturbative polarization orbital with L=  2

POLgen: Polarization orbital for state 2p

   izeta = 1
                     rc =    5.314825
                 energy =    1.970580
                kinetic =    3.886128
    potential(screened) =   -1.915547
       potential(ionic) =   -7.749584
atom: Total number of Sankey-type orbitals: 13

atm_pop: Valence configuration (for local Pseudopot. screening):
 2s( 2.00)                                                            
 2p( 4.00)                                                            
Vna: chval, zval:    6.00000   6.00000

Vna:  Cut-off radius for the neutral-atom potential:   5.314825

atom: _________________________________________________________________________

<basis_specs>
===============================================================================
N                    Z=   7    Mass=  14.010        Charge= 0.17977+309
Lmxo=1 Lmxkb= 3    BasisType=split      Semic=F
L=0  Nsemic=0  Cnfigmx=2
          i=1  nzeta=2  polorb=0  (2s)
            splnorm:   0.28000    
               vcte:    0.0000    
               rinn:    0.0000    
               qcoe:    0.0000    
               qyuk:    0.0000    
               qwid:   0.10000E-01
                rcs:    0.0000      0.0000    
            lambdas:    1.0000      1.0000    
L=1  Nsemic=0  Cnfigmx=2
          i=1  nzeta=2  polorb=1  (2p)
            splnorm:   0.28000    
               vcte:    0.0000    
               rinn:    0.0000    
               qcoe:    0.0000    
               qyuk:    0.0000    
               qwid:   0.10000E-01
                rcs:    0.0000      0.0000    
            lambdas:    1.0000      1.0000    
-------------------------------------------------------------------------------
L=0  Nkbl=1  erefs: 0.17977+309
L=1  Nkbl=1  erefs: 0.17977+309
L=2  Nkbl=1  erefs: 0.17977+309
L=3  Nkbl=1  erefs: 0.17977+309
===============================================================================
</basis_specs>

atom: Called for N                     (Z =   7)

read_vps: Pseudopotential generation method:
read_vps: ATM4.2.7  Troullier-Martins                       
Valence charge for ps generation:    5.00000

xc_check: Exchange-correlation functional:
xc_check: GGA Perdew, Burke & Ernzerhof 1996
V l=0 = -2*Zval/r beyond r=  1.2889
V l=1 = -2*Zval/r beyond r=  1.2889
V l=2 = -2*Zval/r beyond r=  3.4178
V l=3 = -2*Zval/r beyond r=  2.4084
All V_l potentials equal beyond r=  3.3753
This should be close to max(r_c) in ps generation
All pots = -2*Zval/r beyond r=  3.4178

VLOCAL1: 99.0% of the norm of Vloc inside      3.810 Ry
VLOCAL1: 99.9% of the norm of Vloc inside      8.683 Ry
atom: Maximum radius for 4*pi*r*r*local-pseudopot. charge    4.02088
atom: Maximum radius for r*vlocal+2*Zval:    3.54838
GHOST: No ghost state for L =  0
GHOST: No ghost state for L =  1
GHOST: No ghost state for L =  2
GHOST: No ghost state for L =  3

KBgen: Kleinman-Bylander projectors: 
   l= 0   rc=  3.417763   el= -1.365098   Ekb= -4.433130   kbcos= -0.707855
   l= 1   rc=  3.375302   el= -0.521201   Ekb=-13.264039   kbcos= -0.535594
   l= 2   rc=  3.872880   el=  0.001991   Ekb= -0.641094   kbcos= -0.062456
   l= 3   rc=  3.970931   el=  0.003093   Ekb= -0.474517   kbcos= -0.018236

KBgen: Total number of Kleinman-Bylander projectors:   16
atom: -------------------------------------------------------------------------

atom: SANKEY-TYPE ORBITALS:
atom: Selected multiple-zeta basis: split     

SPLIT: Orbitals with angular momentum L= 0

SPLIT: Basis orbitals for state 2s

SPLIT: PAO cut-off radius determined from an
SPLIT: energy shift=  0.002000 Ry

   izeta = 1
                 lambda =    1.000000
                     rc =    4.730425
                 energy =   -1.363399
                kinetic =    1.245246
    potential(screened) =   -2.608645
       potential(ionic) =   -8.121105

   izeta = 2
                 rmatch =    2.531849
              splitnorm =    0.280000
                 energy =   -0.959908
                kinetic =    2.409435
    potential(screened) =   -3.369343
       potential(ionic) =   -9.427975

SPLIT: Orbitals with angular momentum L= 1

SPLIT: Basis orbitals for state 2p

SPLIT: PAO cut-off radius determined from an
SPLIT: energy shift=  0.002000 Ry

   izeta = 1
                 lambda =    1.000000
                     rc =    5.924108
                 energy =   -0.519262
                kinetic =    3.672940
    potential(screened) =   -4.192202
       potential(ionic) =   -9.518354

   izeta = 2
                 rmatch =    2.531849
              splitnorm =    0.280000
                 energy =   -0.104258
                kinetic =    6.807538
    potential(screened) =   -6.911796
       potential(ionic) =  -13.149920

POLgen: Perturbative polarization orbital with L=  2

POLgen: Polarization orbital for state 2p

   izeta = 1
                     rc =    5.924108
                 energy =    1.427508
                kinetic =    2.872379
    potential(screened) =   -1.444871
       potential(ionic) =   -5.563644
atom: Total number of Sankey-type orbitals: 13

atm_pop: Valence configuration (for local Pseudopot. screening):
 2s( 2.00)                                                            
 2p( 3.00)                                                            
Vna: chval, zval:    5.00000   5.00000

Vna:  Cut-off radius for the neutral-atom potential:   5.924108

atom: _________________________________________________________________________

<basis_specs>
===============================================================================
Si                   Z=  14    Mass=  28.090        Charge= 0.17977+309
Lmxo=1 Lmxkb= 3    BasisType=split      Semic=F
L=0  Nsemic=0  Cnfigmx=3
          i=1  nzeta=2  polorb=0  (3s)
            splnorm:   0.28000    
               vcte:    0.0000    
               rinn:    0.0000    
               qcoe:    0.0000    
               qyuk:    0.0000    
               qwid:   0.10000E-01
                rcs:    0.0000      0.0000    
            lambdas:    1.0000      1.0000    
L=1  Nsemic=0  Cnfigmx=3
          i=1  nzeta=2  polorb=1  (3p)
            splnorm:   0.28000    
               vcte:    0.0000    
               rinn:    0.0000    
               qcoe:    0.0000    
               qyuk:    0.0000    
               qwid:   0.10000E-01
                rcs:    0.0000      0.0000    
            lambdas:    1.0000      1.0000    
-------------------------------------------------------------------------------
L=0  Nkbl=1  erefs: 0.17977+309
L=1  Nkbl=1  erefs: 0.17977+309
L=2  Nkbl=1  erefs: 0.17977+309
L=3  Nkbl=1  erefs: 0.17977+309
===============================================================================
</basis_specs>

atom: Called for Si                    (Z =  14)

read_vps: Pseudopotential generation method:
read_vps: ATM4.2.7  Troullier-Martins                       
Valence charge for ps generation:    4.00000

xc_check: Exchange-correlation functional:
xc_check: GGA Perdew, Burke & Ernzerhof 1996
V l=0 = -2*Zval/r beyond r=  2.7826
V l=1 = -2*Zval/r beyond r=  2.7826
V l=2 = -2*Zval/r beyond r=  2.9253
V l=3 = -2*Zval/r beyond r=  2.7826
All V_l potentials equal beyond r=  2.8530
This should be close to max(r_c) in ps generation
All pots = -2*Zval/r beyond r=  2.9253

VLOCAL1: 99.0% of the norm of Vloc inside      5.333 Ry
VLOCAL1: 99.9% of the norm of Vloc inside     12.154 Ry
atom: Maximum radius for 4*pi*r*r*local-pseudopot. charge    3.39869
atom: Maximum radius for r*vlocal+2*Zval:    2.96205
GHOST: No ghost state for L =  0
GHOST: No ghost state for L =  1
GHOST: No ghost state for L =  2
GHOST: No ghost state for L =  3

KBgen: Kleinman-Bylander projectors: 
   l= 0   rc=  3.075247   el= -0.794092   Ekb=  5.879390   kbcos=  0.167461
   l= 1   rc=  3.153101   el= -0.300068   Ekb=  2.642817   kbcos=  0.058301
   l= 2   rc=  3.273594   el=  0.001958   Ekb= -1.185135   kbcos= -0.104411
   l= 3   rc=  3.232927   el=  0.003046   Ekb= -0.497174   kbcos= -0.015889

KBgen: Total number of Kleinman-Bylander projectors:   16
atom: -------------------------------------------------------------------------

atom: SANKEY-TYPE ORBITALS:
atom: Selected multiple-zeta basis: split     

SPLIT: Orbitals with angular momentum L= 0

SPLIT: Basis orbitals for state 3s

SPLIT: PAO cut-off radius determined from an
SPLIT: energy shift=  0.002000 Ry

   izeta = 1
                 lambda =    1.000000
                     rc =    6.429618
                 energy =   -0.792283
                kinetic =    0.525293
    potential(screened) =   -1.317576
       potential(ionic) =   -3.744923

   izeta = 2
                 rmatch =    3.998416
              splitnorm =    0.280000
                 energy =   -0.583081
                kinetic =    1.069570
    potential(screened) =   -1.652651
       potential(ionic) =   -4.235185

SPLIT: Orbitals with angular momentum L= 1

SPLIT: Basis orbitals for state 3p

SPLIT: PAO cut-off radius determined from an
SPLIT: energy shift=  0.002000 Ry

   izeta = 1
                 lambda =    1.000000
                     rc =    8.464845
                 energy =   -0.298236
                kinetic =    0.785360
    potential(screened) =   -1.083596
       potential(ionic) =   -3.273779

   izeta = 2
                 rmatch =    4.587816
              splitnorm =    0.280000
                 energy =   -0.131871
                kinetic =    1.403687
    potential(screened) =   -1.535557
       potential(ionic) =   -4.015310

POLgen: Perturbative polarization orbital with L=  2

POLgen: Polarization orbital for state 3p

   izeta = 1
                     rc =    8.464845
                 energy =    0.321949
                kinetic =    1.055677
    potential(screened) =   -0.733728
       potential(ionic) =   -2.672950
atom: Total number of Sankey-type orbitals: 13

atm_pop: Valence configuration (for local Pseudopot. screening):
 3s( 2.00)                                                            
 3p( 2.00)                                                            
Vna: chval, zval:    4.00000   4.00000

Vna:  Cut-off radius for the neutral-atom potential:   8.464845

atom: _________________________________________________________________________

<basis_specs>
===============================================================================
H                    Z=   1    Mass=  1.0100        Charge= 0.17977+309
Lmxo=0 Lmxkb= 2    BasisType=split      Semic=F
L=0  Nsemic=0  Cnfigmx=1
          i=1  nzeta=2  polorb=1  (1s)
            splnorm:   0.62000    
               vcte:    0.0000    
               rinn:    0.0000    
               qcoe:    0.0000    
               qyuk:    0.0000    
               qwid:   0.10000E-01
                rcs:    0.0000      0.0000    
            lambdas:    1.0000      1.0000    
-------------------------------------------------------------------------------
L=0  Nkbl=1  erefs: 0.17977+309
L=1  Nkbl=1  erefs: 0.17977+309
L=2  Nkbl=1  erefs: 0.17977+309
===============================================================================
</basis_specs>

atom: Called for H                     (Z =   1)

read_vps: Pseudopotential generation method:
read_vps: ATM4.2.7  Troullier-Martins                       
Valence charge for ps generation:    1.00000

xc_check: Exchange-correlation functional:
xc_check: GGA Perdew, Burke & Ernzerhof 1996
V l=0 = -2*Zval/r beyond r=  0.0098
V l=1 = -2*Zval/r beyond r=  0.5817
V l=2 = -2*Zval/r beyond r=  1.9372
All V_l potentials equal beyond r=  1.9372
This should be close to max(r_c) in ps generation
All pots = -2*Zval/r beyond r=  1.9372

VLOCAL1: 99.0% of the norm of Vloc inside     11.567 Ry
VLOCAL1: 99.9% of the norm of Vloc inside     26.362 Ry
atom: Maximum radius for 4*pi*r*r*local-pseudopot. charge    2.25106
atom: Maximum radius for r*vlocal+2*Zval:    1.91306
GHOST: No ghost state for L =  0
GHOST: No ghost state for L =  1
GHOST: No ghost state for L =  2

KBgen: Kleinman-Bylander projectors: 
   l= 0   rc=  2.036604   el= -0.477180   Ekb= -6.081590   kbcos= -0.277285
   l= 1   rc=  2.195416   el=  0.001076   Ekb= -0.926943   kbcos= -0.034643
   l= 2   rc=  2.251056   el=  0.002010   Ekb= -0.130941   kbcos= -0.009788

KBgen: Total number of Kleinman-Bylander projectors:    9
atom: -------------------------------------------------------------------------

atom: SANKEY-TYPE ORBITALS:
atom: Selected multiple-zeta basis: split     

SPLIT: Orbitals with angular momentum L= 0

SPLIT: Basis orbitals for state 1s

SPLIT: PAO cut-off radius determined from an
SPLIT: energy shift=  0.002000 Ry

   izeta = 1
                 lambda =    1.000000
                     rc =    6.518340
                 energy =   -0.475305
                kinetic =    0.912139
    potential(screened) =   -1.387444
       potential(ionic) =   -1.907295

   izeta = 2
                 rmatch =    2.141150
              splitnorm =    0.620000
                 energy =    0.566467
                kinetic =    3.772856
    potential(screened) =   -3.206389
       potential(ionic) =   -3.759093

POLgen: Perturbative polarization orbital with L=  1

POLgen: Polarization orbital for state 1s

   izeta = 1
                     rc =    6.518340
                 energy =    0.533861
                kinetic =    1.121086
    potential(screened) =   -0.587225
       potential(ionic) =   -1.053027
atom: Total number of Sankey-type orbitals:  5

atm_pop: Valence configuration (for local Pseudopot. screening):
 1s( 1.00)                                                            
Vna: chval, zval:    1.00000   1.00000

Vna:  Cut-off radius for the neutral-atom potential:   6.518340

atom: _________________________________________________________________________

prinput: Basis input ----------------------------------------------------------

PAO.BasisType split     

%block ChemicalSpeciesLabel
    1    8 O                       # Species index, atomic number, species label
    2    7 N                       # Species index, atomic number, species label
    3   14 Si                      # Species index, atomic number, species label
    4    1 H                       # Species index, atomic number, species label
%endblock ChemicalSpeciesLabel

%block PAO.Basis                 # Define Basis set
O                     2                    # Species label, number of l-shells
 n=2   0   2                         # n, l, Nzeta 
   4.244      2.188   
   1.000      1.000   
 n=2   1   2 P   1                   # n, l, Nzeta, Polarization, NzetaPol
   5.315      2.161   
   1.000      1.000   
N                     2                    # Species label, number of l-shells
 n=2   0   2                         # n, l, Nzeta 
   4.730      2.532   
   1.000      1.000   
 n=2   1   2 P   1                   # n, l, Nzeta, Polarization, NzetaPol
   5.924      2.532   
   1.000      1.000   
Si                    2                    # Species label, number of l-shells
 n=3   0   2                         # n, l, Nzeta 
   6.430      3.998   
   1.000      1.000   
 n=3   1   2 P   1                   # n, l, Nzeta, Polarization, NzetaPol
   8.465      4.588   
   1.000      1.000   
H                     1                    # Species label, number of l-shells
 n=1   0   2 P   1                   # n, l, Nzeta, Polarization, NzetaPol
   6.518      2.141   
   1.000      1.000   
%endblock PAO.Basis

prinput: ----------------------------------------------------------------------

Dumping basis to NetCDF file O.ion.nc
Dumping basis to NetCDF file N.ion.nc
Dumping basis to NetCDF file Si.ion.nc
Dumping basis to NetCDF file H.ion.nc
coor:   Atomic-coordinates input format  =     Cartesian coordinates
coor:                                          (in Angstroms)

siesta: Atomic coordinates (Bohr) and species
siesta:      1.81163   7.18763   0.00000  1        1
siesta:     -5.74229   1.88609   0.00000  2        2
siesta:      3.90525   2.07693   0.00000  2        3
siesta:      1.94561  -3.46705   0.00000  2        4
siesta:     -3.98462  -3.55608   0.00000  2        5
siesta:      7.39339  -2.23157   0.00000  2        6
siesta:     -2.33502   1.97473   0.00000  3        7
siesta:     -0.94847  -1.94988   0.00000  3        8
siesta:      1.18951   4.21930   0.00000  3        9
siesta:      4.30868  -1.24399   0.00000  3       10
siesta:     -6.47196  -1.25161   0.00000  3       11
siesta:      5.60488   3.17902   0.00000  4       12
siesta:     -9.06356  -2.34086   0.00000  4       13
siesta:      7.74138  -4.18414   0.00000  4       14
siesta:      9.05578  -0.99994   0.00000  4       15
siesta:     -4.28375  -5.52253   0.00000  4       16
siesta:      8.20442   8.82927   0.00000  3       17
siesta:     11.84304  11.08113   0.00000  3       18
siesta:     10.96469   3.66171   0.00000  3       19
siesta:     14.87865   8.28596   0.00000  3       20
siesta:      8.39771   5.59906   0.00000  2       21
siesta:      5.21982  10.09582   0.00000  2       22
siesta:     14.08854   5.01318   0.00000  2       23
siesta:     12.42601  13.84894   0.00000  4       24
siesta:     17.69751   8.66387   0.00000  4       25
siesta:      4.87093  12.05145   0.00000  4       26
siesta:      3.53401   8.82727   0.00000  4       27
siesta:     10.94554   0.64150   0.00000  1       28
siesta:     15.55610   3.64911   0.00000  4       29

siesta: Automatic unit cell vectors (Ang):
siesta:   23.166060    0.000000    0.000000
siesta:    0.000000   18.864608    0.000000
siesta:    0.000000    0.000000    9.854683

siesta: System type = molecule  

initatomlists: Number of atoms, orbitals, and projectors:     29   297   394

siesta: ******************** Simulation parameters ****************************
siesta:
siesta: The following are some of the parameters of the simulation.
siesta: A complete list of the parameters used, including default values,
siesta: can be found in file out.fdf
siesta:
redata: Spin configuration                          = spin-orbit
redata: Number of spin components                   = 8
redata: Time-Reversal Symmetry                      = F
redata: Spin spiral                                 = F
############################################################
This spin-orbit implementation uses a local approximation.
From 4.2 and onwards the full non-local approximation is implemented
You are strongly advised to use >=4.2 versions!
############################################################
redata: Long output                                 =   F
redata: Number of Atomic Species                    =        4
redata: Charge density info will appear in .RHO file
redata: Write Mulliken Pop.                         = Atomic and Orbital charges
redata: Matel table size (NRTAB)                    =     1024
redata: Mesh Cutoff                                 =   340.0000 Ry
redata: Net charge of the system                    =     0.0000 |e|
redata: Min. number of SCF Iter                     =        1
redata: Max. number of SCF Iter                     =      200
redata: SCF mix quantity                            = Hamiltonian
redata: Mix DM or H after convergence               =   F
redata: Recompute H after scf cycle                 =   F
redata: Mix DM in first SCF step                    =   T
redata: Write Pulay info on disk                    =   F
redata: New DM Occupancy tolerance                  = 0.000000000001
redata: No kicks to SCF
redata: DM Mixing Weight for Kicks                  =     0.5000
redata: Require Harris convergence for SCF          =   F
redata: Harris energy tolerance for SCF             =     0.000100 eV
redata: Require DM convergence for SCF              =   T
redata: DM tolerance for SCF                        =     0.000008
redata: Require EDM convergence for SCF             =   F
redata: EDM tolerance for SCF                       =     0.001000 eV
redata: Require H convergence for SCF               =   T
redata: Hamiltonian tolerance for SCF               =     0.000001 eV
redata: Require (free) Energy convergence for SCF   =   F
redata: (free) Energy tolerance for SCF             =     0.000100 eV
redata: Using Saved Data (generic)                  =   F
redata: Use continuation files for DM               =   F
redata: Neglect nonoverlap interactions             =   F
redata: Method of Calculation                       = Diagonalization
redata: Electronic Temperature                      =   299.9978 K
redata: Fix the spin of the system                  =   F
redata: Dynamics option                             = Single-point calculation
mix.SCF: Pulay mixing                            = Pulay
mix.SCF:    Variant                              = stable
mix.SCF:    History steps                        = 6
mix.SCF:    Linear mixing weight                 =     0.250000
mix.SCF:    Mixing weight                        =     0.250000
mix.SCF:    SVD condition                        = 0.1000E-07
mix.SCF:    Restart steps                        = 24
mix.SCF:    Restart save steps                   = 3
mix.SCF: Spin-component mixing                   all
redata: Save all siesta data in one NC              =   F
redata: ***********************************************************************

%block SCF.Mixers
  Pulay
%endblock SCF.Mixers

%block SCF.Mixer.Pulay
  # Mixing method
  method pulay
  variant stable

  # Mixing options
  weight 0.2500
  weight.linear 0.2500
  history 6
  restart 24
  restart.save 3
%endblock SCF.Mixer.Pulay

DM_history_depth set to one: no extrapolation allowed by default for geometry relaxation
Size of DM history Fstack: 1
Total number of electrons:    98.000000
Total ionic charge:    98.000000

* ProcessorY, Blocksize:    2  24


* Orbital distribution balance (max,min):    81    72


Time-reversal symmetry not used.

siesta: k-grid: Number of k-points =     1
siesta: k-grid: Cutoff (effective) =     4.927 Ang
siesta: k-grid: Supercell and displacements
siesta: k-grid:    1   0   0      0.000
siesta: k-grid:    0   1   0      0.000
siesta: k-grid:    0   0   1      0.000

diag: Algorithm                                     = ELPA-1stage
diag: Parallel over k                               =   F
diag: Use parallel 2D distribution                  =   T
diag: Parallel block-size                           = 24
diag: Parallel distribution                         =     2 x     2
diag: Used triangular part                          = Lower
diag: Absolute tolerance                            =  0.100E-15
diag: Orthogonalization factor                      =  0.100E-05
diag: Memory factor                                 =  1.0000


ts: **************************************************************
ts: Save H and S matrices                           =    F
ts: Save DM and EDM matrices                        =    F
ts: Only save the overlap matrix S                  =    F
ts: **************************************************************

************************ Begin: TS CHECKS AND WARNINGS ************************
************************ End: TS CHECKS AND WARNINGS **************************


                     ====================================
                        Single-point calculation
                     ====================================

outcoor: Atomic coordinates (Ang):                          
    0.95867151    3.80352930    0.00000000   1       1  O
   -3.03868821    0.99807333    0.00000000   2       2  N
    2.06656775    1.09906577    0.00000000   2       3  N
    1.02956986   -1.83468085    0.00000000   2       4  N
   -2.10856766   -1.88179824    0.00000000   2       5  N
    3.91241107   -1.18089443    0.00000000   2       6  N
   -1.23563679    1.04498300    0.00000000   3       7  Si
   -0.50190924   -1.03183228    0.00000000   3       8  Si
    0.62946328    2.23275584    0.00000000   3       9  Si
    2.28005437   -0.65829354    0.00000000   3      10  Si
   -3.42481299   -0.66232416    0.00000000   3      11  Si
    2.96597416    1.68226399    0.00000000   4      12  H
   -4.79622939   -1.23872848    0.00000000   4      13  H
    4.09655941   -2.21414876    0.00000000   4      14  H
    4.79210868   -0.52914725    0.00000000   4      15  H
   -2.26686130   -2.92239373    0.00000000   4      16  H
    4.34158917    4.67224761    0.00000000   3      17  Si
    6.26706692    5.86387694    0.00000000   3      18  Si
    5.80226053    1.93769324    0.00000000   3      19  Si
    7.87344045    4.38473983    0.00000000   3      20  Si
    4.44387371    2.96289292    0.00000000   2      21  N
    2.76221108    5.34247710    0.00000000   2      22  N
    7.45533043    2.65285692    0.00000000   2      23  N
    6.57555774    7.32853830    0.00000000   4      24  H
    9.36511336    4.58471929    0.00000000   4      25  H
    2.57758464    6.37735083    0.00000000   4      26  H
    1.87011929    4.67118837    0.00000000   4      27  H
    5.79212993    0.33946472    0.00000000   1      28  O
    8.23192881    1.93102672    0.00000000   4      29  H

outcell: Unit cell vectors (Ang):
       23.166060    0.000000    0.000000
        0.000000   18.864608    0.000000
        0.000000    0.000000    9.854683

outcell: Cell vector modules (Ang)   :   23.166060   18.864608    9.854683
outcell: Cell angles (23,13,12) (deg):     90.0000     90.0000     90.0000
outcell: Cell volume (Ang**3)        :   4306.6803
<dSpData1D:S at geom step 0
  <sparsity:sparsity for geom step 0
    nrows_g=297 nrows=81 sparsity=.2394 nnzs=21117, refcount: 8>
  <dData1D:(new from dSpData1D) n=21117, refcount: 1>
refcount: 1>
new_DM -- step:     1
Initializing Density Matrix...
DM filled with atomic data:
<dSpData2D:DM initialized from atoms
  <sparsity:sparsity for geom step 0
    nrows_g=297 nrows=81 sparsity=.2394 nnzs=21117, refcount: 9>
  <dData2D:DM n=21117 m=8, refcount: 1>
refcount: 1>
     spin moment: S , {S} =   56.00000   0.00000   0.00000  56.00000
No. of atoms with KB's overlaping orbs in proc 0. Max # of overlaps:      29     214

Initializing spin-orbit part of the Hamiltonian
  Adding spin-orbit effects for O 
  Adding spin-orbit effects for N 
  Adding spin-orbit effects for Si
  Adding spin-orbit effects for H 


New grid distribution:   1
           1       1:  135    1:   54    1:   30
           2       1:  135    1:   54   31:   60
           3       1:  135   55:  108    1:   30
           4       1:  135   55:  108   31:   60

InitMesh: MESH =   270 x   216 x   120 =     6998400
InitMesh: (bp) =   135 x   108 x    60 =      874800
InitMesh: Mesh cutoff (required, used) =   340.000   362.338 Ry
ExtMesh (bp) on 0 =   243 x   158 x   142 =     5451948
New grid distribution:   2
           1      31:  135    1:   24    1:   60
           2       1:   30    1:   22    1:   60
           3      31:  135   25:  108    1:   60
           4       1:   30   23:  108    1:   60
New grid distribution:   3
           1      44:  135    1:   32    1:   60
           2       1:   43    1:   37    1:   60
           3      44:  135   33:  108    1:   60
           4       1:   43   38:  108    1:   60
Setting up quadratic distribution...
ExtMesh (bp) on 0 =   213 x   128 x   172 =     4689408
PhiOnMesh: Number of (b)points on node 0 =               151200
PhiOnMesh: nlist on node 0 =              2661123

stepf: Fermi-Dirac step function

siesta: Program's energy decomposition (eV):
siesta: Ebs     =      -608.163910
siesta: Eions   =      3585.165840
siesta: Ena     =       383.760450
siesta: Ekin    =      3378.010253
siesta: Enl     =     -3307.909809
siesta: Eso     =        -0.003488
siesta: Edftu   =         0.000000
siesta: DEna    =       156.185607
siesta: DUscf   =        78.756536
siesta: DUext   =         0.000000
siesta: Exc     =     -1207.304801
siesta: eta*DQ  =         0.000000
siesta: Emadel  =         0.000000
siesta: Emeta   =         0.000000
siesta: Emolmec =         0.000000
siesta: Ekinion =         0.000000
siesta: Eharris =     -4022.784312
siesta: Etot    =     -4103.671090
siesta: FreeEng =     -4103.672827

        iscf     Eharris(eV)        E_KS(eV)     FreeEng(eV)     dDmax    Ef(eV) dHmax(eV)
   scf:    1    -4022.784312    -4103.671090    -4103.672827  0.954590 -4.905256 19.903421
     spin moment: S , {S} =    2.01062  -0.00000   0.00000   2.01062
timer: Routine,Calls,Time,% = IterSCF        1      11.738  16.55
   scf:    2    -4150.725812    -4138.268793    -4138.270419  0.467267 -4.193237 10.783077
     spin moment: S , {S} =    1.99068   0.00000  -0.00000   1.99068
   scf:    3    -4112.465424    -4135.625492    -4135.646800  0.428108 -4.236985 11.259700
     spin moment: S , {S} =    2.00014  -0.00000   0.00000   2.00014
   scf:    4    -4150.927812    -4146.087500    -4146.087501  0.299591 -3.855272  5.670228
     spin moment: S , {S} =    0.00009   0.00000  -0.00000   0.00009
   scf:    5    -4147.237797    -4146.754798    -4146.754798  0.037494 -3.671941  4.395862
     spin moment: S , {S} =    0.00006   0.00000  -0.00000   0.00006
   scf:    6    -4147.582225    -4147.170987    -4147.170987  0.027297 -3.627282  2.085023
     spin moment: S , {S} =    0.00003   0.00000  -0.00000   0.00003
   scf:    7    -4147.526636    -4147.350246    -4147.350246  0.021308 -3.668373  0.811925
     spin moment: S , {S} =    0.00001  -0.00000   0.00000   0.00001
   scf:    8    -4147.465922    -4147.406662    -4147.406662  0.012419 -3.757870  0.407813
     spin moment: S , {S} =    0.00000   0.00000  -0.00000   0.00000
   scf:    9    -4147.442656    -4147.424181    -4147.424181  0.006764 -3.776524  0.270422
     spin moment: S , {S} =    0.00000   0.00000  -0.00000   0.00000
   scf:   10    -4147.465638    -4147.442470    -4147.442470  0.013973 -3.790763  0.121306
     spin moment: S , {S} =    0.00000   0.00000   0.00000  -0.00000
   scf:   11    -4147.447066    -4147.444608    -4147.444608  0.005026 -3.785154  0.057359
     spin moment: S , {S} =    0.00000  -0.00000  -0.00000   0.00000
   scf:   12    -4147.446126    -4147.445332    -4147.445332  0.002851 -3.778927  0.034687
     spin moment: S , {S} =    0.00000  -0.00000  -0.00000   0.00000
   scf:   13    -4147.446195    -4147.445736    -4147.445736  0.002242 -3.778774  0.029225
     spin moment: S , {S} =    0.00000  -0.00000  -0.00000   0.00000
   scf:   14    -4147.446626    -4147.446119    -4147.446119  0.003400 -3.779053  0.016655
     spin moment: S , {S} =    0.00000  -0.00000  -0.00000   0.00000
   scf:   15    -4147.446472    -4147.446261    -4147.446261  0.002629 -3.778242  0.008304
     spin moment: S , {S} =    0.00000  -0.00000  -0.00000   0.00000
   scf:   16    -4147.446323    -4147.446287    -4147.446287  0.001114 -3.778624  0.005019
     spin moment: S , {S} =    0.00000  -0.00000  -0.00000   0.00000
   scf:   17    -4147.446302    -4147.446293    -4147.446293  0.000510 -3.778837  0.002982
     spin moment: S , {S} =    0.00000  -0.00000  -0.00000   0.00000
   scf:   18    -4147.446300    -4147.446296    -4147.446296  0.000335 -3.778914  0.001563
     spin moment: S , {S} =    0.00000  -0.00000  -0.00000  -0.00000
   scf:   19    -4147.446300    -4147.446298    -4147.446298  0.000220 -3.778908  0.000696
     spin moment: S , {S} =    0.00000  -0.00000  -0.00000  -0.00000
   scf:   20    -4147.446298    -4147.446298    -4147.446298  0.000093 -3.778838  0.000376
     spin moment: S , {S} =    0.00000  -0.00000  -0.00000  -0.00000
   scf:   21    -4147.446298    -4147.446298    -4147.446298  0.000090 -3.778786  0.000219
     spin moment: S , {S} =    0.00000  -0.00000  -0.00000  -0.00000
   scf:   22    -4147.446298    -4147.446298    -4147.446298  0.000016 -3.778768  0.000109
     spin moment: S , {S} =    0.00000  -0.00000  -0.00000  -0.00000
   scf:   23    -4147.446298    -4147.446298    -4147.446298  0.000007 -3.778764  0.000059
     spin moment: S , {S} =    0.00000  -0.00000  -0.00000  -0.00000
   scf:   24    -4147.446298    -4147.446298    -4147.446298  0.000009 -3.778760  0.000024
     spin moment: S , {S} =    0.00000  -0.00000  -0.00000  -0.00000
mix: Pulay -- resetting history
   scf:   25    -4147.446298    -4147.446298    -4147.446298  0.000003 -3.778760  0.000018
     spin moment: S , {S} =    0.00000  -0.00000  -0.00000  -0.00000
   scf:   26    -4147.446298    -4147.446298    -4147.446298  0.000001 -3.778760  0.000012
     spin moment: S , {S} =    0.00000  -0.00000  -0.00000  -0.00000
   scf:   27    -4147.446298    -4147.446298    -4147.446298  0.000001 -3.778760  0.000007
     spin moment: S , {S} =    0.00000  -0.00000  -0.00000  -0.00000
   scf:   28    -4147.446298    -4147.446298    -4147.446298  0.000001 -3.778760  0.000003
     spin moment: S , {S} =    0.00000  -0.00000  -0.00000  -0.00000
   scf:   29    -4147.446298    -4147.446298    -4147.446298  0.000000 -3.778760  0.000002
     spin moment: S , {S} =    0.00000  -0.00000  -0.00000  -0.00000
   scf:   30    -4147.446298    -4147.446298    -4147.446298  0.000000 -3.778760  0.000001
     spin moment: S , {S} =    0.00000  -0.00000  -0.00000  -0.00000

SCF Convergence by DM+H criterion
max |DM_out - DM_in|         :     0.0000002887
max |H_out - H_in|      (eV) :     0.0000007173
SCF cycle converged after 30 iterations

Using DM_out to compute the final energy and forces
No. of atoms with KB's overlaping orbs in proc 0. Max # of overlaps:      29     214

siesta: E_KS(eV) =            -4147.4463

siesta: E_KS - E_eggbox =     -4147.4463
     spin moment: S , {S} =    0.00000  -0.00000  -0.00000  -0.00000

siesta: Atomic forces (eV/Ang):
     1   -4.759733   -0.003558    0.000000
     2   -0.027202   -0.005358    0.000000
     3   -0.435992   -0.012890   -0.000000
     4   -0.313521    0.028966    0.000000
     5   -0.014732    0.049161   -0.000000
     6   -1.646101   -1.077521   -0.000000
     7   -0.009527    0.102142   -0.000000
     8    0.148082   -0.122359   -0.000000
     9   -0.022154   -0.598394   -0.000000
    10    0.326391   -0.229516    0.000000
    11    0.010605    0.006428   -0.000000
    12    0.285111    0.195407    0.000000
    13   -0.215147    0.091318    0.000000
    14   -0.111489   -0.213340    0.000000
    15    0.173857    0.266549   -0.000000
    16   -0.023171   -0.166324   -0.000000
    17   -0.319618    0.537999    0.000000
    18    0.085615   -0.092232   -0.000000
    19    0.191420    0.481282    0.000000
    20    0.020334    0.176155    0.000000
    21    0.227692   -0.289931   -0.000000
    22    2.035103    1.394413    0.000000
    23   -0.139199   -0.212052    0.000000
    24    0.005121    0.110224    0.000000
    25   -0.012721   -0.031121   -0.000000
    26    0.046142    0.105116   -0.000000
    27   -0.252436   -0.405579    0.000000
    28    1.672961    3.687795   -0.000000
    29    0.053573   -0.090336    0.000000
----------------------------------------
   Tot   -3.020736    3.682443   -0.000000
----------------------------------------
   Max    4.759733
   Res    0.768662    sqrt( Sum f_i^2 / 3N )
----------------------------------------
   Max    4.759733    constrained

Stress tensor Voigt[x,y,z,yz,xz,xy] (kbar):       -2.82       -2.87       -0.10       -0.00       -0.00       -2.78
(Free)E + p*V (eV/cell)    -4142.2556
Target enthalpy (eV/cell)    -4147.4463

mulliken: Atomic and Orbital Populations:

Species: O                   

Atom      Orb        Charge      Spin       Svec
----------------------------------------------------------------
    1  1 2s         1.67197   0.00000     -0.000  -0.000  -0.000
    1  2 2s         0.08028   0.00000      0.000   0.000   0.000
    1  3 2py        1.29639   0.00000      0.000   0.000  -0.000
    1  4 2pz        1.64667   0.00000      0.000   0.000   0.000
    1  5 2px        1.64116   0.00000     -0.000  -0.000   0.000
    1  6 2py        0.11932   0.00000     -0.000   0.000   0.000
    1  7 2pz       -0.01940   0.00000     -0.000  -0.000   0.000
    1  8 2px        0.00558   0.00000     -0.000   0.000   0.000
    1  9 3Pdxy      0.01094   0.00000     -0.000  -0.000  -0.000
    1 10 3Pdyz      0.00685   0.00000     -0.000   0.000   0.000
    1 11 3Pdz2      0.00255   0.00000     -0.000   0.000   0.000
    1 12 3Pdxz      0.00014   0.00000      0.000   0.000   0.000
    1 13 3Pdx2-y2   0.00467   0.00000     -0.000  -0.000  -0.000
    1     Total     6.46712   0.00000      0.000   0.000   0.000

   28  1 2s         1.69818   0.00000     -0.000   0.000   0.000
   28  2 2s         0.07283   0.00000      0.000  -0.000  -0.000
   28  3 2py        1.30437   0.00000      0.000   0.000   0.000
   28  4 2pz        1.63068   0.00000     -0.000   0.000   0.000
   28  5 2px        1.66591   0.00000      0.000   0.000   0.000
   28  6 2py        0.10660   0.00000     -0.000   0.000  -0.000
   28  7 2pz       -0.01780   0.00000      0.000  -0.000   0.000
   28  8 2px       -0.00275   0.00000     -0.000  -0.000  -0.000
   28  9 3Pdxy      0.01116   0.00000      0.000  -0.000  -0.000
   28 10 3Pdyz      0.00787   0.00000     -0.000  -0.000   0.000
   28 11 3Pdz2      0.00225   0.00000      0.000   0.000  -0.000
   28 12 3Pdxz      0.00017   0.00000      0.000   0.000   0.000
   28 13 3Pdx2-y2   0.00606   0.00000     -0.000   0.000   0.000
   28     Total     6.48555   0.00000      0.000   0.000   0.000

----------------------------------------------------------------
Total              12.95267   0.00000      0.000   0.000   0.000


Species: N                   

Atom      Orb        Charge      Spin       Svec
----------------------------------------------------------------
    2  1 2s         1.55332   0.00000      0.000  -0.000   0.000
    2  2 2s         0.08376   0.00000     -0.000   0.000   0.000
    2  3 2py        1.04102   0.00000      0.000   0.000   0.000
    2  4 2pz        1.22496   0.00000     -0.000   0.000   0.000
    2  5 2px        0.98832   0.00000      0.000  -0.000   0.000
    2  6 2py        0.18845   0.00000     -0.000  -0.000  -0.000
    2  7 2pz        0.05630   0.00000      0.000  -0.000  -0.000
    2  8 2px        0.19552   0.00000     -0.000   0.000  -0.000
    2  9 3Pdxy      0.00854   0.00000      0.000  -0.000   0.000
    2 10 3Pdyz      0.01120   0.00000     -0.000   0.000  -0.000
    2 11 3Pdz2      0.00191   0.00000     -0.000   0.000  -0.000
    2 12 3Pdxz      0.00759   0.00000     -0.000   0.000  -0.000
    2 13 3Pdx2-y2   0.00930   0.00000     -0.000  -0.000   0.000
    2     Total     5.37018   0.00000     -0.000   0.000   0.000

    3  1 2s         1.37804   0.00000      0.000   0.000  -0.000
    3  2 2s         0.12524   0.00000     -0.000  -0.000   0.000
    3  3 2py        0.93342   0.00000     -0.000  -0.000  -0.000
    3  4 2pz        1.53152   0.00000      0.000  -0.000  -0.000
    3  5 2px        1.05995   0.00000      0.000  -0.000  -0.000
    3  6 2py        0.25889   0.00000      0.000   0.000   0.000
    3  7 2pz        0.00618   0.00000     -0.000   0.000   0.000
    3  8 2px        0.19558   0.00000     -0.000   0.000   0.000
    3  9 3Pdxy      0.00427   0.00000     -0.000  -0.000  -0.000
    3 10 3Pdyz      0.00385   0.00000      0.000   0.000   0.000
    3 11 3Pdz2      0.00040   0.00000     -0.000  -0.000  -0.000
    3 12 3Pdxz      0.00287   0.00000     -0.000  -0.000   0.000
    3 13 3Pdx2-y2   0.00240   0.00000      0.000   0.000   0.000
    3     Total     5.50261   0.00000      0.000  -0.000  -0.000

    4  1 2s         1.46354   0.00000     -0.000  -0.000  -0.000
    4  2 2s         0.11895   0.00000      0.000   0.000   0.000
    4  3 2py        1.12870   0.00000     -0.000  -0.000  -0.000
    4  4 2pz        1.28718   0.00000      0.000   0.000  -0.000
    4  5 2px        0.82570   0.00000      0.000  -0.000  -0.000
    4  6 2py        0.15115   0.00000     -0.000   0.000  -0.000
    4  7 2pz        0.05399   0.00000     -0.000  -0.000   0.000
    4  8 2px        0.29121   0.00000     -0.000   0.000   0.000
    4  9 3Pdxy      0.00872   0.00000     -0.000  -0.000  -0.000
    4 10 3Pdyz      0.01048   0.00000      0.000  -0.000   0.000
    4 11 3Pdz2      0.00130   0.00000      0.000   0.000  -0.000
    4 12 3Pdxz      0.00474   0.00000      0.000  -0.000  -0.000
    4 13 3Pdx2-y2   0.00792   0.00000      0.000   0.000  -0.000
    4     Total     5.35357   0.00000     -0.000  -0.000  -0.000

    5  1 2s         1.37149   0.00000      0.000   0.000   0.000
    5  2 2s         0.12997   0.00000     -0.000  -0.000  -0.000
    5  3 2py        1.02770   0.00000      0.000   0.000   0.000
    5  4 2pz        1.49834   0.00000     -0.000   0.000   0.000
    5  5 2px        1.05673   0.00000     -0.000  -0.000   0.000
    5  6 2py        0.20564   0.00000      0.000  -0.000  -0.000
    5  7 2pz        0.01373   0.00000      0.000  -0.000  -0.000
    5  8 2px        0.20553   0.00000     -0.000   0.000  -0.000
    5  9 3Pdxy      0.00386   0.00000     -0.000  -0.000  -0.000
    5 10 3Pdyz      0.00245   0.00000      0.000  -0.000  -0.000
    5 11 3Pdz2      0.00141   0.00000     -0.000  -0.000  -0.000
    5 12 3Pdxz      0.00656   0.00000     -0.000   0.000  -0.000
    5 13 3Pdx2-y2   0.00557   0.00000     -0.000   0.000  -0.000
    5     Total     5.52897   0.00000     -0.000   0.000   0.000

    6  1 2s         1.28226   0.00000     -0.000   0.000  -0.000
    6  2 2s         0.17554   0.00000      0.000   0.000   0.000
    6  3 2py        1.07050   0.00000      0.000   0.000  -0.000
    6  4 2pz        1.48096   0.00000     -0.000  -0.000   0.000
    6  5 2px        0.98973   0.00000      0.000   0.000   0.000
    6  6 2py        0.19532   0.00000     -0.000  -0.000   0.000
    6  7 2pz        0.03740   0.00000      0.000   0.000   0.000
    6  8 2px        0.25352   0.00000     -0.000  -0.000   0.000
    6  9 3Pdxy      0.00414   0.00000     -0.000  -0.000   0.000
    6 10 3Pdyz      0.00001   0.00000      0.000  -0.000  -0.000
    6 11 3Pdz2      0.00211   0.00000     -0.000   0.000  -0.000
    6 12 3Pdxz      0.00431   0.00000      0.000  -0.000  -0.000
    6 13 3Pdx2-y2   0.00466   0.00000      0.000   0.000  -0.000
    6     Total     5.50044   0.00000     -0.000  -0.000   0.000

   21  1 2s         1.41297   0.00000      0.000  -0.000  -0.000
   21  2 2s         0.12636   0.00000     -0.000   0.000   0.000
   21  3 2py        0.90250   0.00000      0.000  -0.000   0.000
   21  4 2pz        1.34010   0.00000      0.000  -0.000   0.000
   21  5 2px        1.15586   0.00000     -0.000   0.000   0.000
   21  6 2py        0.26900   0.00000     -0.000  -0.000  -0.000
   21  7 2pz        0.03856   0.00000     -0.000   0.000   0.000
   21  8 2px        0.16184   0.00000      0.000  -0.000  -0.000
   21  9 3Pdxy      0.00694   0.00000      0.000   0.000  -0.000
   21 10 3Pdyz      0.00440   0.00000      0.000   0.000   0.000
   21 11 3Pdz2      0.00007   0.00000      0.000   0.000   0.000
   21 12 3Pdxz      0.00559   0.00000     -0.000   0.000   0.000
   21 13 3Pdx2-y2   0.00576   0.00000     -0.000   0.000   0.000
   21     Total     5.42995   0.00000      0.000  -0.000   0.000

   22  1 2s         1.30835   0.00000      0.000   0.000   0.000
   22  2 2s         0.16672   0.00000     -0.000  -0.000  -0.000
   22  3 2py        1.06957   0.00000      0.000   0.000   0.000
   22  4 2pz        1.43143   0.00000     -0.000   0.000  -0.000
   22  5 2px        1.03627   0.00000      0.000   0.000  -0.000
   22  6 2py        0.19830   0.00000     -0.000  -0.000  -0.000
   22  7 2pz        0.03688   0.00000      0.000  -0.000  -0.000
   22  8 2px        0.22686   0.00000     -0.000   0.000   0.000
   22  9 3Pdxy      0.00568   0.00000     -0.000   0.000  -0.000
   22 10 3Pdyz      0.00009   0.00000      0.000   0.000  -0.000
   22 11 3Pdz2      0.00278   0.00000     -0.000  -0.000  -0.000
   22 12 3Pdxz      0.00472   0.00000     -0.000   0.000   0.000
   22 13 3Pdx2-y2   0.00510   0.00000      0.000  -0.000  -0.000
   22     Total     5.49276   0.00000      0.000   0.000  -0.000

   23  1 2s         1.36097   0.00000      0.000   0.000   0.000
   23  2 2s         0.13510   0.00000     -0.000  -0.000  -0.000
   23  3 2py        1.01025   0.00000     -0.000   0.000  -0.000
   23  4 2pz        1.53846   0.00000     -0.000  -0.000   0.000
   23  5 2px        1.04106   0.00000      0.000  -0.000   0.000
   23  6 2py        0.21744   0.00000      0.000  -0.000   0.000
   23  7 2pz        0.00440   0.00000     -0.000   0.000  -0.000
   23  8 2px        0.20753   0.00000     -0.000   0.000  -0.000
   23  9 3Pdxy      0.00519   0.00000      0.000   0.000  -0.000
   23 10 3Pdyz      0.00466   0.00000     -0.000  -0.000   0.000
   23 11 3Pdz2      0.00076   0.00000      0.000   0.000  -0.000
   23 12 3Pdxz      0.00241   0.00000      0.000  -0.000   0.000
   23 13 3Pdx2-y2   0.00149   0.00000     -0.000   0.000   0.000
   23     Total     5.52973   0.00000     -0.000  -0.000   0.000

----------------------------------------------------------------
Total              56.66088   0.00000      0.000  -0.000   0.000


Species: Si                  

Atom      Orb        Charge      Spin       Svec
----------------------------------------------------------------
    7  1 3s         0.64095   0.00000      0.000   0.000  -0.000
    7  2 3s         0.37674   0.00000     -0.000  -0.000  -0.000
    7  3 3py        0.46362   0.00000     -0.000   0.000   0.000
    7  4 3pz        0.68470   0.00000     -0.000  -0.000  -0.000
    7  5 3px        0.10995   0.00000      0.000   0.000  -0.000
    7  6 3py        0.28312   0.00000      0.000   0.000  -0.000
    7  7 3pz        0.26748   0.00000      0.000   0.000  -0.000
    7  8 3px        0.45052   0.00000     -0.000   0.000  -0.000
    7  9 3Pdxy      0.25265   0.00000     -0.000  -0.000  -0.000
    7 10 3Pdyz      0.02859   0.00000     -0.000  -0.000  -0.000
    7 11 3Pdz2      0.01077   0.00000      0.000  -0.000  -0.000
    7 12 3Pdxz      0.15373   0.00000      0.000  -0.000   0.000
    7 13 3Pdx2-y2   0.11140   0.00000     -0.000   0.000   0.000
    7     Total     3.83421   0.00000      0.000   0.000  -0.000

    8  1 3s         0.65267   0.00000     -0.000  -0.000   0.000
    8  2 3s         0.37041   0.00000      0.000  -0.000  -0.000
    8  3 3py        0.39962   0.00000     -0.000   0.000   0.000
    8  4 3pz        0.49312   0.00000      0.000   0.000  -0.000
    8  5 3px       -0.01503   0.00000     -0.000   0.000   0.000
    8  6 3py        0.30351   0.00000      0.000   0.000  -0.000
    8  7 3pz        0.20733   0.00000      0.000  -0.000  -0.000
    8  8 3px        0.51162   0.00000      0.000  -0.000   0.000
    8  9 3Pdxy      0.25027   0.00000     -0.000   0.000   0.000
    8 10 3Pdyz      0.11137   0.00000      0.000   0.000  -0.000
    8 11 3Pdz2      0.01387   0.00000      0.000  -0.000  -0.000
    8 12 3Pdxz      0.15854   0.00000      0.000  -0.000  -0.000
    8 13 3Pdx2-y2   0.20382   0.00000      0.000  -0.000  -0.000
    8     Total     3.66112   0.00000     -0.000   0.000  -0.000

    9  1 3s         0.58106   0.00000     -0.000  -0.000   0.000
    9  2 3s         0.37604   0.00000      0.000   0.000   0.000
    9  3 3py        0.11959   0.00000     -0.000  -0.000   0.000
    9  4 3pz        0.46373   0.00000      0.000   0.000   0.000
    9  5 3px        0.33186   0.00000     -0.000   0.000   0.000
    9  6 3py        0.38887   0.00000      0.000   0.000   0.000
    9  7 3pz        0.19906   0.00000      0.000  -0.000   0.000
    9  8 3px        0.30230   0.00000      0.000  -0.000  -0.000
    9  9 3Pdxy      0.27678   0.00000     -0.000  -0.000   0.000
    9 10 3Pdyz      0.18449   0.00000     -0.000   0.000   0.000
    9 11 3Pdz2      0.00959   0.00000     -0.000   0.000   0.000
    9 12 3Pdxz      0.11192   0.00000     -0.000  -0.000   0.000
    9 13 3Pdx2-y2   0.18141   0.00000      0.000   0.000  -0.000
    9     Total     3.52669   0.00000     -0.000  -0.000   0.000

   10  1 3s         0.49212   0.00000     -0.000   0.000   0.000
   10  2 3s         0.37306   0.00000      0.000   0.000   0.000
   10  3 3py        0.24623   0.00000     -0.000   0.000   0.000
   10  4 3pz        0.43002   0.00000      0.000   0.000   0.000
   10  5 3px        0.09183   0.00000     -0.000  -0.000  -0.000
   10  6 3py        0.31650   0.00000      0.000  -0.000  -0.000
   10  7 3pz        0.21292   0.00000     -0.000  -0.000  -0.000
   10  8 3px        0.45426   0.00000     -0.000   0.000   0.000
   10  9 3Pdxy      0.18358   0.00000     -0.000   0.000   0.000
   10 10 3Pdyz      0.12718   0.00000     -0.000  -0.000  -0.000
   10 11 3Pdz2      0.00923   0.00000     -0.000   0.000   0.000
   10 12 3Pdxz      0.18840   0.00000      0.000  -0.000   0.000
   10 13 3Pdx2-y2   0.30863   0.00000      0.000   0.000   0.000
   10     Total     3.43394   0.00000     -0.000   0.000   0.000

   11  1 3s         0.55140   0.00000      0.000   0.000  -0.000
   11  2 3s         0.38674   0.00000     -0.000  -0.000  -0.000
   11  3 3py        0.31128   0.00000      0.000   0.000  -0.000
   11  4 3pz        0.52746   0.00000     -0.000   0.000  -0.000
   11  5 3px        0.13153   0.00000     -0.000  -0.000  -0.000
   11  6 3py        0.29929   0.00000     -0.000  -0.000  -0.000
   11  7 3pz        0.17988   0.00000     -0.000  -0.000  -0.000
   11  8 3px        0.44304   0.00000      0.000   0.000   0.000
   11  9 3Pdxy      0.23610   0.00000     -0.000  -0.000  -0.000
   11 10 3Pdyz      0.12968   0.00000      0.000  -0.000  -0.000
   11 11 3Pdz2      0.00999   0.00000      0.000   0.000   0.000
   11 12 3Pdxz      0.05429   0.00000      0.000  -0.000  -0.000
   11 13 3Pdx2-y2   0.19844   0.00000     -0.000   0.000  -0.000
   11     Total     3.45911   0.00000      0.000  -0.000  -0.000

   17  1 3s         0.64571   0.00000      0.000  -0.000   0.000
   17  2 3s         0.35412   0.00000     -0.000   0.000  -0.000
   17  3 3py        0.23147   0.00000     -0.000   0.000   0.000
   17  4 3pz        0.43545   0.00000      0.000  -0.000   0.000
   17  5 3px        0.22408   0.00000     -0.000   0.000   0.000
   17  6 3py        0.36048   0.00000      0.000  -0.000   0.000
   17  7 3pz        0.21228   0.00000      0.000  -0.000   0.000
   17  8 3px        0.39597   0.00000      0.000   0.000   0.000
   17  9 3Pdxy      0.27317   0.00000      0.000  -0.000   0.000
   17 10 3Pdyz      0.12868   0.00000      0.000   0.000  -0.000
   17 11 3Pdz2      0.00746   0.00000     -0.000   0.000  -0.000
   17 12 3Pdxz      0.15056   0.00000      0.000   0.000  -0.000
   17 13 3Pdx2-y2   0.18690   0.00000     -0.000  -0.000  -0.000
   17     Total     3.60632   0.00000      0.000   0.000   0.000

   18  1 3s         0.75510   0.00000     -0.000  -0.000  -0.000
   18  2 3s         0.33932   0.00000      0.000   0.000   0.000
   18  3 3py        0.08074   0.00000     -0.000   0.000  -0.000
   18  4 3pz        0.79881   0.00000     -0.000  -0.000  -0.000
   18  5 3px        0.54129   0.00000      0.000   0.000  -0.000
   18  6 3py        0.51758   0.00000      0.000   0.000  -0.000
   18  7 3pz        0.19482   0.00000      0.000   0.000  -0.000
   18  8 3px        0.26143   0.00000     -0.000  -0.000  -0.000
   18  9 3Pdxy      0.10601   0.00000      0.000   0.000   0.000
   18 10 3Pdyz      0.02646   0.00000      0.000   0.000   0.000
   18 11 3Pdz2      0.00908   0.00000     -0.000   0.000   0.000
   18 12 3Pdxz      0.03388   0.00000      0.000   0.000   0.000
   18 13 3Pdx2-y2   0.10406   0.00000     -0.000  -0.000  -0.000
   18     Total     3.76857   0.00000     -0.000  -0.000  -0.000

   19  1 3s         0.45060   0.00000      0.000  -0.000  -0.000
   19  2 3s         0.36569   0.00000      0.000   0.000  -0.000
   19  3 3py        0.08287   0.00000     -0.000   0.000  -0.000
   19  4 3pz        0.38902   0.00000      0.000  -0.000  -0.000
   19  5 3px        0.23120   0.00000     -0.000  -0.000   0.000
   19  6 3py        0.44120   0.00000      0.000  -0.000  -0.000
   19  7 3pz        0.20035   0.00000     -0.000   0.000  -0.000
   19  8 3px        0.31739   0.00000      0.000  -0.000  -0.000
   19  9 3Pdxy      0.30639   0.00000      0.000  -0.000  -0.000
   19 10 3Pdyz      0.17789   0.00000     -0.000   0.000  -0.000
   19 11 3Pdz2      0.00943   0.00000      0.000   0.000   0.000
   19 12 3Pdxz      0.10664   0.00000     -0.000  -0.000  -0.000
   19 13 3Pdx2-y2   0.24140   0.00000      0.000   0.000  -0.000
   19     Total     3.32007   0.00000      0.000  -0.000  -0.000

   20  1 3s         0.68320   0.00000      0.000   0.000   0.000
   20  2 3s         0.37481   0.00000     -0.000  -0.000   0.000
   20  3 3py        0.34051   0.00000      0.000  -0.000   0.000
   20  4 3pz        0.61816   0.00000      0.000   0.000   0.000
   20  5 3px        0.14062   0.00000      0.000   0.000   0.000
   20  6 3py        0.27935   0.00000     -0.000   0.000   0.000
   20  7 3pz        0.15950   0.00000      0.000  -0.000   0.000
   20  8 3px        0.50142   0.00000     -0.000  -0.000  -0.000
   20  9 3Pdxy      0.09856   0.00000      0.000   0.000   0.000
   20 10 3Pdyz      0.12709   0.00000     -0.000   0.000   0.000
   20 11 3Pdz2      0.00765   0.00000      0.000  -0.000  -0.000
   20 12 3Pdxz      0.02676   0.00000      0.000   0.000  -0.000
   20 13 3Pdx2-y2   0.17713   0.00000      0.000  -0.000   0.000
   20     Total     3.53475   0.00000      0.000   0.000   0.000

----------------------------------------------------------------
Total              88.80566   0.00000      0.000   0.000  -0.000


Species: H                   

Atom      Orb        Charge      Spin       Svec
----------------------------------------------------------------
   12  1 1s         0.48264   0.00000     -0.000  -0.000  -0.000
   12  2 1s         0.17675   0.00000      0.000   0.000  -0.000
   12  3 2Ppy       0.05292   0.00000      0.000   0.000  -0.000
   12  4 2Ppz       0.03383   0.00000     -0.000  -0.000  -0.000
   12  5 2Ppx       0.06021   0.00000      0.000  -0.000   0.000
   12     Total     0.80634   0.00000     -0.000  -0.000  -0.000

   13  1 1s         1.01854   0.00000      0.000   0.000   0.000
   13  2 1s         0.09730   0.00000     -0.000  -0.000  -0.000
   13  3 2Ppy       0.01914   0.00000      0.000  -0.000   0.000
   13  4 2Ppz       0.02007   0.00000      0.000  -0.000  -0.000
   13  5 2Ppx       0.03328   0.00000     -0.000  -0.000   0.000
   13     Total     1.18833   0.00000      0.000   0.000   0.000

   14  1 1s         0.49877   0.00000      0.000  -0.000  -0.000
   14  2 1s         0.19427   0.00000      0.000   0.000  -0.000
   14  3 2Ppy       0.02182   0.00000      0.000   0.000   0.000
   14  4 2Ppz       0.04960   0.00000      0.000  -0.000  -0.000
   14  5 2Ppx       0.02440   0.00000     -0.000   0.000   0.000
   14     Total     0.78887   0.00000      0.000  -0.000  -0.000

   15  1 1s         0.38949   0.00000      0.000  -0.000  -0.000
   15  2 1s         0.19283   0.00000     -0.000   0.000  -0.000
   15  3 2Ppy       0.07207   0.00000     -0.000   0.000  -0.000
   15  4 2Ppz       0.05614   0.00000      0.000   0.000  -0.000
   15  5 2Ppx       0.11372   0.00000     -0.000  -0.000  -0.000
   15     Total     0.82424   0.00000      0.000  -0.000  -0.000

   16  1 1s         0.50338   0.00000      0.000  -0.000  -0.000
   16  2 1s         0.19052   0.00000     -0.000   0.000  -0.000
   16  3 2Ppy       0.02897   0.00000      0.000  -0.000  -0.000
   16  4 2Ppz       0.03938   0.00000      0.000  -0.000  -0.000
   16  5 2Ppx       0.02416   0.00000      0.000   0.000  -0.000
   16     Total     0.78640   0.00000      0.000  -0.000  -0.000

   24  1 1s         1.05771   0.00000     -0.000  -0.000   0.000
   24  2 1s         0.07597   0.00000      0.000   0.000   0.000
   24  3 2Ppy       0.03074   0.00000      0.000  -0.000  -0.000
   24  4 2Ppz       0.02990   0.00000     -0.000   0.000  -0.000
   24  5 2Ppx       0.01791   0.00000     -0.000   0.000   0.000
   24     Total     1.21222   0.00000     -0.000   0.000   0.000

   25  1 1s         1.04581   0.00000     -0.000   0.000  -0.000
   25  2 1s         0.08517   0.00000      0.000  -0.000   0.000
   25  3 2Ppy       0.01142   0.00000     -0.000   0.000  -0.000
   25  4 2Ppz       0.01922   0.00000     -0.000  -0.000   0.000
   25  5 2Ppx       0.03581   0.00000      0.000  -0.000  -0.000
   25     Total     1.19743   0.00000     -0.000   0.000  -0.000

   26  1 1s         0.50414   0.00000      0.000  -0.000   0.000
   26  2 1s         0.19297   0.00000      0.000   0.000  -0.000
   26  3 2Ppy       0.02487   0.00000      0.000  -0.000   0.000
   26  4 2Ppz       0.04859   0.00000      0.000  -0.000  -0.000
   26  5 2Ppx       0.02442   0.00000     -0.000   0.000  -0.000
   26     Total     0.79499   0.00000      0.000  -0.000  -0.000

   27  1 1s         0.37255   0.00000      0.000   0.000   0.000
   27  2 1s         0.19581   0.00000     -0.000  -0.000  -0.000
   27  3 2Ppy       0.08428   0.00000      0.000   0.000  -0.000
   27  4 2Ppz       0.05647   0.00000     -0.000  -0.000  -0.000
   27  5 2Ppx       0.11969   0.00000      0.000  -0.000  -0.000
   27     Total     0.82880   0.00000      0.000  -0.000   0.000

   29  1 1s         0.49062   0.00000     -0.000   0.000  -0.000
   29  2 1s         0.18828   0.00000      0.000  -0.000  -0.000
   29  3 2Ppy       0.02473   0.00000     -0.000  -0.000   0.000
   29  4 2Ppz       0.03506   0.00000     -0.000  -0.000  -0.000
   29  5 2Ppx       0.02803   0.00000      0.000  -0.000  -0.000
   29     Total     0.76672   0.00000     -0.000  -0.000  -0.000

----------------------------------------------------------------
Total              98.00000   0.00000     -0.000  -0.000  -0.000


siesta: Eigenvalues (eV):
ik =     1
  -23.4426  -23.4426  -23.0740  -23.0740  -21.5411  -21.5411  -21.2732  -21.2732  -20.8109  -20.8109
  -20.4756  -20.4756  -20.0461  -20.0461  -19.6563  -19.6563  -19.4552  -19.4552  -19.3557  -19.3557
  -14.7672  -14.7672  -13.8986  -13.8986  -13.3241  -13.3241  -13.2062  -13.2062  -13.1150  -13.1150
  -12.8341  -12.8341  -12.4841  -12.4841  -12.1345  -12.1345  -12.0505  -12.0505  -11.9359  -11.9359
  -10.9700  -10.9700  -10.7865  -10.7865  -10.5573  -10.5573  -10.2468  -10.2468  -10.1607  -10.1607
   -9.7470   -9.7470   -9.1578   -9.1578   -8.9315   -8.9315   -8.8313   -8.8313   -8.8123   -8.8123
   -8.4299   -8.4299   -8.4108   -8.4108   -8.2740   -8.2740   -7.9844   -7.9844   -7.7615   -7.7615
   -7.5983   -7.5983   -7.5529   -7.5529   -7.4028   -7.4028   -7.2465   -7.2465   -6.9659   -6.9659
   -6.8069   -6.8069   -6.6907   -6.6907   -6.5109   -6.5109   -6.4207   -6.4207   -6.1918   -6.1918
   -5.9568   -5.9568   -5.8510   -5.8510   -5.5186   -5.5186   -4.3280   -4.3280   -3.2287   -3.2287
   -2.3752   -2.3752   -2.2507   -2.2507   -2.1663   -2.1663   -1.9185   -1.9185   -1.9043   -1.9043
   -1.8320   -1.8320   -1.6488   -1.6488   -1.5535   -1.5535   -1.1846   -1.1846   -1.0164   -1.0164
   -0.9336   -0.9336   -0.5218   -0.5218   -0.4154   -0.4154   -0.2942   -0.2942    0.4315    0.4315
    0.5101    0.5101    0.5463    0.5463    0.7278    0.7278    1.0493    1.0493    1.1488    1.1488
    1.3932    1.3932    1.4127    1.4127    1.5699    1.5699    1.6574    1.6574    2.0721    2.0721
    2.1780    2.1780    2.6544    2.6544    2.7041    2.7041    2.7740    2.7740    2.9126    2.9126
    3.0673    3.0673    3.2264    3.2264    3.4352    3.4352    3.5331    3.5331    3.7671    3.7671
    3.9396    3.9396    4.0829    4.0829    4.1368    4.1368    4.3096    4.3096    4.5796    4.5796
    4.6038    4.6038    4.8052    4.8052    4.9382    4.9382    5.0083    5.0083    5.3234    5.3234
    5.3441    5.3441    5.6218    5.6218    5.7373    5.7373    5.9038    5.9038    5.9696    5.9696
    6.1188    6.1188    6.4164    6.4164    6.4475    6.4475    6.5495    6.5495    6.7134    6.7134
    6.9870    6.9870    7.1457    7.1457    7.2287    7.2287    7.3112    7.3112    7.3242    7.3242
    7.5668    7.5668    7.7197    7.7197    7.7774    7.7774    8.0548    8.0548    8.1051    8.1051
    8.2897    8.2897    8.6162    8.6162    8.6482    8.6482    8.7981    8.7981    8.8050    8.8050
    8.9680    8.9680    9.1311    9.1311    9.4285    9.4285    9.5723    9.5723    9.8272    9.8272
    9.8904    9.8904   10.0464   10.0464   10.0594   10.0594   10.3148   10.3148   10.4234   10.4234
   10.8497   10.8497   10.8773   10.8773   11.2657   11.2657   11.3375   11.3375   11.4438   11.4438
   11.4608   11.4608   11.7872   11.7872   12.3849   12.3849   12.5542   12.5542   12.5752   12.5752
   12.6644   12.6644   12.8834   12.8834   13.3389   13.3389   13.5477   13.5477   13.5969   13.5969
   13.6810   13.6810   13.9434   13.9434   14.2207   14.2207   14.2998   14.2998   14.4284   14.4284
   14.9124   14.9124   15.0365   15.0365   15.2884   15.2884   15.5046   15.5046   15.5378   15.5378
   15.9106   15.9106   16.7278   16.7278   16.7782   16.7782   17.1236   17.1236   17.2853   17.2853
   17.5280   17.5280   17.8799   17.8799   18.7674   18.7674   19.0766   19.0766   19.4090   19.4090
   19.8217   19.8217   20.2570   20.2570   20.4142   20.4142   21.0053   21.0053   21.0814   21.0814
   21.4011   21.4011   22.1692   22.1692   22.5094   22.5094   23.1799   23.1799   23.5055   23.5055
   23.8639   23.8639   24.1557   24.1557   24.4081   24.4081   24.9863   24.9863   25.2644   25.2644
   26.3558   26.3558   26.5828   26.5828   27.2265   27.2265   28.0857   28.0857   29.0179   29.0179
   29.4899   29.4899   29.6648   29.6648   30.2542   30.2542   30.4318   30.4318   30.9222   30.9222
   30.9490   30.9490   30.9850   30.9850   31.4695   31.4695   31.7961   31.7961   31.8800   31.8800
   33.5850   33.5850   33.9192   33.9192   34.0394   34.0394   34.2372   34.2372   35.3782   35.3782
   35.5211   35.5211   35.6050   35.6050   36.4939   36.4939   36.7719   36.7719   36.8228   36.8228
   37.1471   37.1471   37.5575   37.5575   37.9506   37.9506   38.5731   38.5731   38.9758   38.9758
   39.3571   39.3571   39.6494   39.6494   39.7196   39.7196   40.3637   40.3637   40.5398   40.5398
   40.9522   40.9522   41.1507   41.1507   41.9661   41.9661   42.1236   42.1236   42.2770   42.2770
   42.6097   42.6097   43.2979   43.2979   43.5167   43.5167   43.6120   43.6120   43.9897   43.9897
   44.6344   44.6344   44.6967   44.6967   44.8323   44.8323   45.1407   45.1407   45.4287   45.4287
   45.5364   45.5364   46.2584   46.2584   46.6706   46.6706   46.9849   46.9849   47.0704   47.0704
   48.0371   48.0371   48.2196   48.2196   49.9251   49.9251   50.1138   50.1138   50.2712   50.2712
   50.6941   50.6941   50.7100   50.7100   50.8614   50.8614   51.6856   51.6856   52.5630   52.5630
   53.1771   53.1771   53.4201   53.4201   54.0435   54.0435   54.7949   54.7949   54.9380   54.9380
   55.1691   55.1691   55.9440   55.9440   56.1751   56.1751   56.8079   56.8079   57.2438   57.2438
   57.5361   57.5361   57.8753   57.8753   58.8352   58.8352   59.5387   59.5387   60.5772   60.5772
   60.7679   60.7679   61.0868   61.0868   61.6804   61.6804   62.7680   62.7680   62.9262   62.9262
   64.3567   64.3567   64.4871   64.4871   65.4322   65.4322   66.3574   66.3574   66.9165   66.9165
   68.5183   68.5183   68.9354   68.9354   71.2199   71.2199   72.3621   72.3621   74.2099   74.2099
   75.2614   75.2614   77.1028   77.1028   78.0350   78.0350   78.5856   78.5856   89.8064   89.8064
   92.1203   92.1203   92.5143   92.5143   95.7654   95.7654   99.0695   99.0695   99.3037   99.3037
  102.7254  102.7254  104.0710  104.0710  106.1394  106.1394  109.0848  109.0848  110.8737  110.8737
  118.5406  118.5406  120.1274  120.1274  126.3400  126.3400  129.4621  129.4621  141.3394  141.3394
  145.7262  145.7262  148.5633  148.5633
siesta: Fermi energy =      -3.778760 eV

siesta: Program's energy decomposition (eV):
siesta: Ebs     =     -1137.969035
siesta: Eions   =      3585.165840
siesta: Ena     =       383.760450
siesta: Ekin    =      2923.531624
siesta: Enl     =     -2805.915192
siesta: Eso     =        -0.004378
siesta: Edftu   =         0.000000
siesta: DEna    =        48.447726
siesta: DUscf   =        13.810460
siesta: DUext   =         0.000000
siesta: Exc     =     -1125.911149
siesta: eta*DQ  =         0.000000
siesta: Emadel  =         0.000000
siesta: Emeta   =         0.000000
siesta: Emolmec =         0.000000
siesta: Ekinion =         0.000000
siesta: Eharris =     -4147.446298
siesta: Etot    =     -4147.446298
siesta: FreeEng =     -4147.446298

siesta: Final energy (eV):
siesta:  Band Struct. =   -1137.969035
siesta:       Kinetic =    2923.531624
siesta:       Hartree =    9243.501231
siesta:       Edftu   =       0.000000
siesta:       Eso     =      -0.004378
siesta:    Ext. field =       0.000000
siesta:   Exch.-corr. =   -1125.911149
siesta:  Ion-electron =  -21086.589744
siesta:       Ion-ion =    5898.026118
siesta:       Ekinion =       0.000000
siesta:         Total =   -4147.446298
siesta:         Fermi =      -3.778760

siesta: Atomic forces (eV/Ang):
siesta:      1   -4.759733   -0.003558    0.000000
siesta:      2   -0.027202   -0.005358    0.000000
siesta:      3   -0.435992   -0.012890   -0.000000
siesta:      4   -0.313521    0.028966    0.000000
siesta:      5   -0.014732    0.049161   -0.000000
siesta:      6   -1.646101   -1.077521   -0.000000
siesta:      7   -0.009527    0.102142   -0.000000
siesta:      8    0.148082   -0.122359   -0.000000
siesta:      9   -0.022154   -0.598394   -0.000000
siesta:     10    0.326391   -0.229516    0.000000
siesta:     11    0.010605    0.006428   -0.000000
siesta:     12    0.285111    0.195407    0.000000
siesta:     13   -0.215147    0.091318    0.000000
siesta:     14   -0.111489   -0.213340    0.000000
siesta:     15    0.173857    0.266549   -0.000000
siesta:     16   -0.023171   -0.166324   -0.000000
siesta:     17   -0.319618    0.537999    0.000000
siesta:     18    0.085615   -0.092232   -0.000000
siesta:     19    0.191420    0.481282    0.000000
siesta:     20    0.020334    0.176155    0.000000
siesta:     21    0.227692   -0.289931   -0.000000
siesta:     22    2.035103    1.394413    0.000000
siesta:     23   -0.139199   -0.212052    0.000000
siesta:     24    0.005121    0.110224    0.000000
siesta:     25   -0.012721   -0.031121   -0.000000
siesta:     26    0.046142    0.105116   -0.000000
siesta:     27   -0.252436   -0.405579    0.000000
siesta:     28    1.672961    3.687795   -0.000000
siesta:     29    0.053573   -0.090336    0.000000
siesta: ----------------------------------------
siesta:    Tot   -3.020736    3.682443   -0.000000

siesta: Stress tensor (static) (eV/Ang**3):
siesta:    -0.001761   -0.001735    0.000000
siesta:    -0.001735   -0.001793    0.000000
siesta:    -0.000000   -0.000000   -0.000063

siesta: Cell volume =       4306.680265 Ang**3

siesta: Pressure (static):
siesta:                Solid            Molecule  Units
siesta:           0.00001313         -0.00000357  Ry/Bohr**3
siesta:           0.00120526         -0.00032787  eV/Ang**3
siesta:           1.93105851         -0.52531711  kBar
(Free)E+ p_basis*V_orbitals  =       -4127.595881
(Free)Eharris+ p_basis*V_orbitals  =       -4127.595881
     spin moment: S , {S} =    0.00000  -0.00000  -0.00000  -0.00000

siesta: Electric dipole (a.u.)  =    1.599741    0.179962   -0.000000
siesta: Electric dipole (Debye) =    4.066140    0.457418   -0.000000

cite: Please see "GC.bib" for an exhaustive BiBTeX file.
cite: Please clearly indicate Siesta version in published work: v4.1.5-1-g384057250
cite: This calculation has made use of the following articles
cite: which are encouraged to be cited in a published work.
        Primary SIESTA paper
          DOI: www.doi.org/10.1088/0953-8984/14/11/302
        Spin-orbit coupling (on-site approximation)
          DOI: www.doi.org/10.1088/0953-8984/19/19/489001


WARNING: alloc-realloc-dealloc name mismatch
         Name: atomlist isa
         Size:              -116. Bytes
         Node:     0
         Subsequent mismatches will not be reported
>> End of run:   4-JUL-2023   9:03:33
Job completed
