Siesta Version  : v4.1.5-1-g384057250
Architecture    : gcc
Compiler version: GNU Fortran (Debian 12.2.0-14) 12.2.0
Compiler flags  : mpifort -O2 -fPIC -ftree-vectorize -fallow-argument-mismatch
PP flags        : -DFC_HAVE_ABORT -DMPI -DSIESTA__FLOOK -DSIESTA__METIS -DSIESTA__MUMPS -DCDF -DNCDF -DNCDF_4 -DNCDF_PARALLEL -DSIESTA__MRRR -DSIESTA__ELPA
Libraries       : libncdf.a libfdict.a  -lflookall -ldl -lnetcdff -lnetcdf -lz -lscalapack-openmpi -lopenblas -lmetis -lzmumps -lcmumps -ldmumps -lmumps_common -lpord -lsmumps -lesmumps -lscotch -lscotcherr -fopenmp -lelpa
PARALLEL version
NetCDF support
NetCDF-4 support
NetCDF-4 MPI-IO support
METIS ordering support
Lua support

* Running on 32 nodes in parallel
>> Start of run:  17-OCT-2023   9:34:47

                           ***********************       
                           *  WELCOME TO SIESTA  *       
                           ***********************       

reinit: Reading from standard input
reinit: Dumped input in INPUT_TMP.01929
************************** Dump of input data file ****************************
# mpirun -np 4 siesta-4.1.5 < AT.fdf > AT.out &
SystemLabel      AT
NumberOfAtoms    30
NumberOfSpecies  4
%block ChemicalSpeciesLabel
    1    1  H
    2    7  N
    3   14  Si
    4    8  O
%endblock ChemicalSpeciesLabel
############################################
# This overrides Defaults.fdf configuration
############################################
MD.TypeOfRun                Verlet # CG, Verlet
MD.Steps                    600
MD.Quench                   True
AtomicCoordinatesFormat NotScaledCartesianAng
%block AtomicCoordinatesAndAtomicSpecies
    2.34225298   -5.16237579    0.00000000   1       1  H
    1.41092585   -4.66778005    0.00000000   2       2  N
   -0.16326925   -5.53736720    0.00000000   3       3  Si
   -0.08771862   -7.03963990    0.00000000   1       4  H
   -1.61493192   -4.63669912    0.00000000   2       5  N
   -1.08665785   -2.90737756    0.00000000   3       6  Si
   -1.54348961   -0.73201300    0.00000000   3       7  Si
   -3.15602113   -0.10108766    0.00000000   2       8  N
   -3.41929253    0.94700306    0.00000000   1       9  H
   -3.96222423   -0.77533954    0.00000000   1      10  H
   -0.19671030    0.39547727    0.00000000   2      11  N
    1.48094281   -0.04988905    0.00000000   3      12  Si
    2.42867586    1.11801689    0.00000000   1      13  H
    2.29859712   -1.58374094    0.00000000   2      14  N
    1.11117323   -2.85363940    0.00000000   3      15  Si
    0.62919549    7.22722152    0.00000000   1      16  H
   -0.19114816    6.55147409    0.00000000   2      17  N
   -1.83905526    7.27405675    0.00000000   3      18  Si
   -1.71060632    8.77529920    0.00000000   1      19  H
   -3.57212606    5.94523660    0.00000000   3      20  Si
   -5.91897070    5.90119456    0.00000000   3      21  Si
   -6.48160642    6.62503242   -1.20383893   1      22  H
   -6.19811382    4.41955230   -0.09134711   1      23  H
   -6.48162172    6.45339474    1.29016579   1      24  H
   -2.66057846    3.87192698    0.00000000   3      25  Si
   -3.60071106    2.58230191    0.00000000   4      26  O
   -0.88004388    3.68889646    0.00000000   2      27  N
   -0.54087840    2.66448297    0.00000000   1      28  H
    0.42741269    4.86953117    0.00000000   3      29  Si
    1.97918166    4.56029820    0.00000000   4      30  O
%endblock AtomicCoordinatesAndAtomicSpecies
#############
# Unit Cell
#############
LatticeConstant 1.0 Ang
%block LatticeVectors
    18.005604    0.000000    0.000000
    0.000000   24.777729    0.000000
    0.000000    0.000000   10.327559
%endblock LatticeVectors
%block Geometry.Constraints
    atom all 0.0 0.0 1.0 # constrain along z Cartesian vector
    clear-prev [22 -- 24]
%endblock
%include ../../../../Defaults.fdf
************************** End of input data file *****************************

reinit: -----------------------------------------------------------------------
reinit: System Name: 
reinit: -----------------------------------------------------------------------
reinit: System Label: AT
reinit: -----------------------------------------------------------------------

initatom: Reading input for the pseudopotentials and atomic orbitals ----------
Species number:   1 Atomic number:    1 Label: H
Species number:   2 Atomic number:    7 Label: N
Species number:   3 Atomic number:   14 Label: Si
Species number:   4 Atomic number:    8 Label: O

Ground state valence configuration:   1s01
Reading pseudopotential information in formatted form from H.psf

Pseudopotential generated from a relativistic atomic calculation

Valence configuration for pseudopotential generation:
1s( 1.00) rc: 0.01
2p( 0.00) rc: 0.60
3d( 0.00) rc: 1.99
4f( 0.00) rc: 2.49
Ground state valence configuration:   2s02  2p03
Reading pseudopotential information in formatted form from N.psf

Pseudopotential generated from a relativistic atomic calculation

Valence configuration for pseudopotential generation:
2s( 2.00) rc: 0.94
2p( 3.00) rc: 0.59
3d( 0.00) rc: 3.46
4f( 0.00) rc: 2.47
Ground state valence configuration:   3s02  3p02
Reading pseudopotential information in formatted form from Si.psf

Pseudopotential generated from a relativistic atomic calculation

Valence configuration for pseudopotential generation:
3s( 2.00) rc: 1.67
3p( 2.00) rc: 2.04
3d( 0.00) rc: 2.89
4f( 0.00) rc: 2.49
Ground state valence configuration:   2s02  2p04
Reading pseudopotential information in formatted form from O.psf

Pseudopotential generated from a relativistic atomic calculation

Valence configuration for pseudopotential generation:
2s( 2.00) rc: 0.45
2p( 4.00) rc: 0.92
3d( 0.00) rc: 2.24
4f( 0.00) rc: 0.25
For H, standard SIESTA heuristics set lmxkb to 2
 (one more than the basis l, including polarization orbitals).
Use PS.lmax or PS.KBprojectors blocks to override.
For N, standard SIESTA heuristics set lmxkb to 3
 (one more than the basis l, including polarization orbitals).
Use PS.lmax or PS.KBprojectors blocks to override.
For Si, standard SIESTA heuristics set lmxkb to 3
 (one more than the basis l, including polarization orbitals).
Use PS.lmax or PS.KBprojectors blocks to override.
For O, standard SIESTA heuristics set lmxkb to 3
 (one more than the basis l, including polarization orbitals).
Use PS.lmax or PS.KBprojectors blocks to override.

<basis_specs>
===============================================================================
H                    Z=   1    Mass=  1.0100        Charge= 0.17977+309
Lmxo=0 Lmxkb= 2    BasisType=split      Semic=F
L=0  Nsemic=0  Cnfigmx=1
          i=1  nzeta=2  polorb=1  (1s)
            splnorm:   0.62000    
               vcte:    0.0000    
               rinn:    0.0000    
               qcoe:    0.0000    
               qyuk:    0.0000    
               qwid:   0.10000E-01
                rcs:    0.0000      0.0000    
            lambdas:    1.0000      1.0000    
-------------------------------------------------------------------------------
L=0  Nkbl=1  erefs: 0.17977+309
L=1  Nkbl=1  erefs: 0.17977+309
L=2  Nkbl=1  erefs: 0.17977+309
===============================================================================
</basis_specs>

atom: Called for H                     (Z =   1)

read_vps: Pseudopotential generation method:
read_vps: ATM4.2.7  Troullier-Martins                       
Valence charge for ps generation:    1.00000

xc_check: Exchange-correlation functional:
xc_check: GGA Perdew, Burke & Ernzerhof 1996
V l=0 = -2*Zval/r beyond r=  0.0098
V l=1 = -2*Zval/r beyond r=  0.5817
V l=2 = -2*Zval/r beyond r=  1.9372
All V_l potentials equal beyond r=  1.9372
This should be close to max(r_c) in ps generation
All pots = -2*Zval/r beyond r=  1.9372

VLOCAL1: 99.0% of the norm of Vloc inside     11.567 Ry
VLOCAL1: 99.9% of the norm of Vloc inside     26.362 Ry
atom: Maximum radius for 4*pi*r*r*local-pseudopot. charge    2.25106
atom: Maximum radius for r*vlocal+2*Zval:    1.91306
GHOST: No ghost state for L =  0
GHOST: No ghost state for L =  1
GHOST: No ghost state for L =  2

KBgen: Kleinman-Bylander projectors: 
   l= 0   rc=  2.036604   el= -0.477180   Ekb= -6.081590   kbcos= -0.277285
   l= 1   rc=  2.195416   el=  0.001076   Ekb= -0.926943   kbcos= -0.034643
   l= 2   rc=  2.251056   el=  0.002010   Ekb= -0.130941   kbcos= -0.009788

KBgen: Total number of Kleinman-Bylander projectors:    9
atom: -------------------------------------------------------------------------

atom: SANKEY-TYPE ORBITALS:
atom: Selected multiple-zeta basis: split     

SPLIT: Orbitals with angular momentum L= 0

SPLIT: Basis orbitals for state 1s

SPLIT: PAO cut-off radius determined from an
SPLIT: energy shift=  0.002000 Ry

   izeta = 1
                 lambda =    1.000000
                     rc =    6.518340
                 energy =   -0.475305
                kinetic =    0.912139
    potential(screened) =   -1.387444
       potential(ionic) =   -1.907295

   izeta = 2
                 rmatch =    2.141150
              splitnorm =    0.620000
                 energy =    0.566467
                kinetic =    3.772856
    potential(screened) =   -3.206389
       potential(ionic) =   -3.759093

POLgen: Perturbative polarization orbital with L=  1

POLgen: Polarization orbital for state 1s

   izeta = 1
                     rc =    6.518340
                 energy =    0.533861
                kinetic =    1.121086
    potential(screened) =   -0.587225
       potential(ionic) =   -1.053027
atom: Total number of Sankey-type orbitals:  5

atm_pop: Valence configuration (for local Pseudopot. screening):
 1s( 1.00)                                                            
Vna: chval, zval:    1.00000   1.00000

Vna:  Cut-off radius for the neutral-atom potential:   6.518340

atom: _________________________________________________________________________

<basis_specs>
===============================================================================
N                    Z=   7    Mass=  14.010        Charge= 0.17977+309
Lmxo=1 Lmxkb= 3    BasisType=split      Semic=F
L=0  Nsemic=0  Cnfigmx=2
          i=1  nzeta=2  polorb=0  (2s)
            splnorm:   0.28000    
               vcte:    0.0000    
               rinn:    0.0000    
               qcoe:    0.0000    
               qyuk:    0.0000    
               qwid:   0.10000E-01
                rcs:    0.0000      0.0000    
            lambdas:    1.0000      1.0000    
L=1  Nsemic=0  Cnfigmx=2
          i=1  nzeta=2  polorb=1  (2p)
            splnorm:   0.28000    
               vcte:    0.0000    
               rinn:    0.0000    
               qcoe:    0.0000    
               qyuk:    0.0000    
               qwid:   0.10000E-01
                rcs:    0.0000      0.0000    
            lambdas:    1.0000      1.0000    
-------------------------------------------------------------------------------
L=0  Nkbl=1  erefs: 0.17977+309
L=1  Nkbl=1  erefs: 0.17977+309
L=2  Nkbl=1  erefs: 0.17977+309
L=3  Nkbl=1  erefs: 0.17977+309
===============================================================================
</basis_specs>

atom: Called for N                     (Z =   7)

read_vps: Pseudopotential generation method:
read_vps: ATM4.2.7  Troullier-Martins                       
Valence charge for ps generation:    5.00000

xc_check: Exchange-correlation functional:
xc_check: GGA Perdew, Burke & Ernzerhof 1996
V l=0 = -2*Zval/r beyond r=  1.2889
V l=1 = -2*Zval/r beyond r=  1.2889
V l=2 = -2*Zval/r beyond r=  3.4178
V l=3 = -2*Zval/r beyond r=  2.4084
All V_l potentials equal beyond r=  3.3753
This should be close to max(r_c) in ps generation
All pots = -2*Zval/r beyond r=  3.4178

VLOCAL1: 99.0% of the norm of Vloc inside      3.810 Ry
VLOCAL1: 99.9% of the norm of Vloc inside      8.683 Ry
atom: Maximum radius for 4*pi*r*r*local-pseudopot. charge    4.02088
atom: Maximum radius for r*vlocal+2*Zval:    3.54838
GHOST: No ghost state for L =  0
GHOST: No ghost state for L =  1
GHOST: No ghost state for L =  2
GHOST: No ghost state for L =  3

KBgen: Kleinman-Bylander projectors: 
   l= 0   rc=  3.417763   el= -1.365098   Ekb= -4.433130   kbcos= -0.707855
   l= 1   rc=  3.375302   el= -0.521201   Ekb=-13.264039   kbcos= -0.535594
   l= 2   rc=  3.872880   el=  0.001991   Ekb= -0.641094   kbcos= -0.062456
   l= 3   rc=  3.970931   el=  0.003093   Ekb= -0.474517   kbcos= -0.018236

KBgen: Total number of Kleinman-Bylander projectors:   16
atom: -------------------------------------------------------------------------

atom: SANKEY-TYPE ORBITALS:
atom: Selected multiple-zeta basis: split     

SPLIT: Orbitals with angular momentum L= 0

SPLIT: Basis orbitals for state 2s

SPLIT: PAO cut-off radius determined from an
SPLIT: energy shift=  0.002000 Ry

   izeta = 1
                 lambda =    1.000000
                     rc =    4.730425
                 energy =   -1.363399
                kinetic =    1.245246
    potential(screened) =   -2.608645
       potential(ionic) =   -8.121105

   izeta = 2
                 rmatch =    2.531849
              splitnorm =    0.280000
                 energy =   -0.959908
                kinetic =    2.409435
    potential(screened) =   -3.369343
       potential(ionic) =   -9.427975

SPLIT: Orbitals with angular momentum L= 1

SPLIT: Basis orbitals for state 2p

SPLIT: PAO cut-off radius determined from an
SPLIT: energy shift=  0.002000 Ry

   izeta = 1
                 lambda =    1.000000
                     rc =    5.924108
                 energy =   -0.519262
                kinetic =    3.672940
    potential(screened) =   -4.192202
       potential(ionic) =   -9.518354

   izeta = 2
                 rmatch =    2.531849
              splitnorm =    0.280000
                 energy =   -0.104258
                kinetic =    6.807538
    potential(screened) =   -6.911796
       potential(ionic) =  -13.149920

POLgen: Perturbative polarization orbital with L=  2

POLgen: Polarization orbital for state 2p

   izeta = 1
                     rc =    5.924108
                 energy =    1.427508
                kinetic =    2.872379
    potential(screened) =   -1.444871
       potential(ionic) =   -5.563644
atom: Total number of Sankey-type orbitals: 13

atm_pop: Valence configuration (for local Pseudopot. screening):
 2s( 2.00)                                                            
 2p( 3.00)                                                            
Vna: chval, zval:    5.00000   5.00000

Vna:  Cut-off radius for the neutral-atom potential:   5.924108

atom: _________________________________________________________________________

<basis_specs>
===============================================================================
Si                   Z=  14    Mass=  28.090        Charge= 0.17977+309
Lmxo=1 Lmxkb= 3    BasisType=split      Semic=F
L=0  Nsemic=0  Cnfigmx=3
          i=1  nzeta=2  polorb=0  (3s)
            splnorm:   0.28000    
               vcte:    0.0000    
               rinn:    0.0000    
               qcoe:    0.0000    
               qyuk:    0.0000    
               qwid:   0.10000E-01
                rcs:    0.0000      0.0000    
            lambdas:    1.0000      1.0000    
L=1  Nsemic=0  Cnfigmx=3
          i=1  nzeta=2  polorb=1  (3p)
            splnorm:   0.28000    
               vcte:    0.0000    
               rinn:    0.0000    
               qcoe:    0.0000    
               qyuk:    0.0000    
               qwid:   0.10000E-01
                rcs:    0.0000      0.0000    
            lambdas:    1.0000      1.0000    
-------------------------------------------------------------------------------
L=0  Nkbl=1  erefs: 0.17977+309
L=1  Nkbl=1  erefs: 0.17977+309
L=2  Nkbl=1  erefs: 0.17977+309
L=3  Nkbl=1  erefs: 0.17977+309
===============================================================================
</basis_specs>

atom: Called for Si                    (Z =  14)

read_vps: Pseudopotential generation method:
read_vps: ATM4.2.7  Troullier-Martins                       
Valence charge for ps generation:    4.00000

xc_check: Exchange-correlation functional:
xc_check: GGA Perdew, Burke & Ernzerhof 1996
V l=0 = -2*Zval/r beyond r=  2.7826
V l=1 = -2*Zval/r beyond r=  2.7826
V l=2 = -2*Zval/r beyond r=  2.9253
V l=3 = -2*Zval/r beyond r=  2.7826
All V_l potentials equal beyond r=  2.8530
This should be close to max(r_c) in ps generation
All pots = -2*Zval/r beyond r=  2.9253

VLOCAL1: 99.0% of the norm of Vloc inside      5.333 Ry
VLOCAL1: 99.9% of the norm of Vloc inside     12.154 Ry
atom: Maximum radius for 4*pi*r*r*local-pseudopot. charge    3.39869
atom: Maximum radius for r*vlocal+2*Zval:    2.96205
GHOST: No ghost state for L =  0
GHOST: No ghost state for L =  1
GHOST: No ghost state for L =  2
GHOST: No ghost state for L =  3

KBgen: Kleinman-Bylander projectors: 
   l= 0   rc=  3.075247   el= -0.794092   Ekb=  5.879390   kbcos=  0.167461
   l= 1   rc=  3.153101   el= -0.300068   Ekb=  2.642817   kbcos=  0.058301
   l= 2   rc=  3.273594   el=  0.001958   Ekb= -1.185135   kbcos= -0.104411
   l= 3   rc=  3.232927   el=  0.003046   Ekb= -0.497174   kbcos= -0.015889

KBgen: Total number of Kleinman-Bylander projectors:   16
atom: -------------------------------------------------------------------------

atom: SANKEY-TYPE ORBITALS:
atom: Selected multiple-zeta basis: split     

SPLIT: Orbitals with angular momentum L= 0

SPLIT: Basis orbitals for state 3s

SPLIT: PAO cut-off radius determined from an
SPLIT: energy shift=  0.002000 Ry

   izeta = 1
                 lambda =    1.000000
                     rc =    6.429618
                 energy =   -0.792283
                kinetic =    0.525293
    potential(screened) =   -1.317576
       potential(ionic) =   -3.744923

   izeta = 2
                 rmatch =    3.998416
              splitnorm =    0.280000
                 energy =   -0.583081
                kinetic =    1.069570
    potential(screened) =   -1.652651
       potential(ionic) =   -4.235185

SPLIT: Orbitals with angular momentum L= 1

SPLIT: Basis orbitals for state 3p

SPLIT: PAO cut-off radius determined from an
SPLIT: energy shift=  0.002000 Ry

   izeta = 1
                 lambda =    1.000000
                     rc =    8.464845
                 energy =   -0.298236
                kinetic =    0.785360
    potential(screened) =   -1.083596
       potential(ionic) =   -3.273779

   izeta = 2
                 rmatch =    4.587816
              splitnorm =    0.280000
                 energy =   -0.131871
                kinetic =    1.403687
    potential(screened) =   -1.535557
       potential(ionic) =   -4.015310

POLgen: Perturbative polarization orbital with L=  2

POLgen: Polarization orbital for state 3p

   izeta = 1
                     rc =    8.464845
                 energy =    0.321949
                kinetic =    1.055677
    potential(screened) =   -0.733728
       potential(ionic) =   -2.672950
atom: Total number of Sankey-type orbitals: 13

atm_pop: Valence configuration (for local Pseudopot. screening):
 3s( 2.00)                                                            
 3p( 2.00)                                                            
Vna: chval, zval:    4.00000   4.00000

Vna:  Cut-off radius for the neutral-atom potential:   8.464845

atom: _________________________________________________________________________

<basis_specs>
===============================================================================
O                    Z=   8    Mass=  16.000        Charge= 0.17977+309
Lmxo=1 Lmxkb= 3    BasisType=split      Semic=F
L=0  Nsemic=0  Cnfigmx=2
          i=1  nzeta=2  polorb=0  (2s)
            splnorm:   0.28000    
               vcte:    0.0000    
               rinn:    0.0000    
               qcoe:    0.0000    
               qyuk:    0.0000    
               qwid:   0.10000E-01
                rcs:    0.0000      0.0000    
            lambdas:    1.0000      1.0000    
L=1  Nsemic=0  Cnfigmx=2
          i=1  nzeta=2  polorb=1  (2p)
            splnorm:   0.28000    
               vcte:    0.0000    
               rinn:    0.0000    
               qcoe:    0.0000    
               qyuk:    0.0000    
               qwid:   0.10000E-01
                rcs:    0.0000      0.0000    
            lambdas:    1.0000      1.0000    
-------------------------------------------------------------------------------
L=0  Nkbl=1  erefs: 0.17977+309
L=1  Nkbl=1  erefs: 0.17977+309
L=2  Nkbl=1  erefs: 0.17977+309
L=3  Nkbl=1  erefs: 0.17977+309
===============================================================================
</basis_specs>

atom: Called for O                     (Z =   8)

read_vps: Pseudopotential generation method:
read_vps: ATM4.2.7  Troullier-Martins                       
Valence charge for ps generation:    6.00000

xc_check: Exchange-correlation functional:
xc_check: GGA Perdew, Burke & Ernzerhof 1996
V l=0 = -2*Zval/r beyond r=  1.1000
V l=1 = -2*Zval/r beyond r=  1.1000
V l=2 = -2*Zval/r beyond r=  2.2154
V l=3 = -2*Zval/r beyond r=  1.1000
All V_l potentials equal beyond r=  2.2154
This should be close to max(r_c) in ps generation
All pots = -2*Zval/r beyond r=  2.2154

VLOCAL1: 99.0% of the norm of Vloc inside      8.845 Ry
VLOCAL1: 99.9% of the norm of Vloc inside     20.157 Ry
atom: Maximum radius for 4*pi*r*r*local-pseudopot. charge    2.67231
atom: Maximum radius for r*vlocal+2*Zval:    2.32897
GHOST: No ghost state for L =  0
GHOST: No ghost state for L =  1
GHOST: No ghost state for L =  2
GHOST: No ghost state for L =  3

KBgen: Kleinman-Bylander projectors: 
   l= 0   rc=  2.243238   el= -1.759686   Ekb=**********   kbcos= -0.171774
   l= 1   rc=  2.328968   el= -0.663873   Ekb=-14.506792   kbcos= -0.519897
   l= 2   rc=  2.573941   el=  0.002031   Ekb= -1.137373   kbcos= -0.019581
   l= 3   rc=  2.606321   el=  0.003153   Ekb= -1.013546   kbcos= -0.003122

KBgen: Total number of Kleinman-Bylander projectors:   16
atom: -------------------------------------------------------------------------

atom: SANKEY-TYPE ORBITALS:
atom: Selected multiple-zeta basis: split     

SPLIT: Orbitals with angular momentum L= 0

SPLIT: Basis orbitals for state 2s

SPLIT: PAO cut-off radius determined from an
SPLIT: energy shift=  0.002000 Ry

   izeta = 1
                 lambda =    1.000000
                     rc =    4.243912
                 energy =   -1.758270
                kinetic =    3.286084
    potential(screened) =   -5.044353
       potential(ionic) =  -12.921184

   izeta = 2
                 rmatch =    2.187845
              splitnorm =    0.280000
                 energy =   -0.885018
                kinetic =    8.134434
    potential(screened) =   -9.019452
       potential(ionic) =  -17.710645

SPLIT: Orbitals with angular momentum L= 1

SPLIT: Basis orbitals for state 2p

SPLIT: PAO cut-off radius determined from an
SPLIT: energy shift=  0.002000 Ry

   izeta = 1
                 lambda =    1.000000
                     rc =    5.314825
                 energy =   -0.661986
                kinetic =    4.917472
    potential(screened) =   -5.579458
       potential(ionic) =  -13.236259

   izeta = 2
                 rmatch =    2.160663
              splitnorm =    0.280000
                 energy =   -0.068760
                kinetic =    9.183374
    potential(screened) =   -9.252135
       potential(ionic) =  -18.274251

POLgen: Perturbative polarization orbital with L=  2

POLgen: Polarization orbital for state 2p

   izeta = 1
                     rc =    5.314825
                 energy =    1.970580
                kinetic =    3.886128
    potential(screened) =   -1.915547
       potential(ionic) =   -7.749584
atom: Total number of Sankey-type orbitals: 13

atm_pop: Valence configuration (for local Pseudopot. screening):
 2s( 2.00)                                                            
 2p( 4.00)                                                            
Vna: chval, zval:    6.00000   6.00000

Vna:  Cut-off radius for the neutral-atom potential:   5.314825

atom: _________________________________________________________________________

prinput: Basis input ----------------------------------------------------------

PAO.BasisType split     

%block ChemicalSpeciesLabel
    1    1 H                       # Species index, atomic number, species label
    2    7 N                       # Species index, atomic number, species label
    3   14 Si                      # Species index, atomic number, species label
    4    8 O                       # Species index, atomic number, species label
%endblock ChemicalSpeciesLabel

%block PAO.Basis                 # Define Basis set
H                     1                    # Species label, number of l-shells
 n=1   0   2 P   1                   # n, l, Nzeta, Polarization, NzetaPol
   6.518      2.141   
   1.000      1.000   
N                     2                    # Species label, number of l-shells
 n=2   0   2                         # n, l, Nzeta 
   4.730      2.532   
   1.000      1.000   
 n=2   1   2 P   1                   # n, l, Nzeta, Polarization, NzetaPol
   5.924      2.532   
   1.000      1.000   
Si                    2                    # Species label, number of l-shells
 n=3   0   2                         # n, l, Nzeta 
   6.430      3.998   
   1.000      1.000   
 n=3   1   2 P   1                   # n, l, Nzeta, Polarization, NzetaPol
   8.465      4.588   
   1.000      1.000   
O                     2                    # Species label, number of l-shells
 n=2   0   2                         # n, l, Nzeta 
   4.244      2.188   
   1.000      1.000   
 n=2   1   2 P   1                   # n, l, Nzeta, Polarization, NzetaPol
   5.315      2.161   
   1.000      1.000   
%endblock PAO.Basis

prinput: ----------------------------------------------------------------------

Dumping basis to NetCDF file H.ion.nc
Dumping basis to NetCDF file N.ion.nc
Dumping basis to NetCDF file Si.ion.nc
Dumping basis to NetCDF file O.ion.nc
coor:   Atomic-coordinates input format  =     Cartesian coordinates
coor:                                          (in Angstroms)

siesta: Atomic coordinates (Bohr) and species
siesta:      4.42622  -9.75548   0.00000  1        1
siesta:      2.66626  -8.82083   0.00000  2        2
siesta:     -0.30853 -10.46411   0.00000  3        3
siesta:     -0.16576 -13.30300   0.00000  1        4
siesta:     -3.05178  -8.76209   0.00000  2        5
siesta:     -2.05349  -5.49415   0.00000  3        6
siesta:     -2.91677  -1.38330   0.00000  3        7
siesta:     -5.96402  -0.19103   0.00000  2        8
siesta:     -6.46153   1.78958   0.00000  1        9
siesta:     -7.48752  -1.46518   0.00000  1       10
siesta:     -0.37173   0.74734   0.00000  2       11
siesta:      2.79858  -0.09428   0.00000  3       12
siesta:      4.58953   2.11275   0.00000  1       13
siesta:      4.34372  -2.99284   0.00000  2       14
siesta:      2.09981  -5.39260   0.00000  3       15
siesta:      1.18901  13.65747   0.00000  1       16
siesta:     -0.36122  12.38050   0.00000  2       17
siesta:     -3.47531  13.74598   0.00000  3       18
siesta:     -3.23258  16.58292   0.00000  1       19
siesta:     -6.75034  11.23487   0.00000  3       20
siesta:    -11.18524  11.15165   0.00000  3       21
siesta:    -12.24847  12.51950  -2.27493  1       22
siesta:    -11.71274   8.35175  -0.17262  1       23
siesta:    -12.24849  12.19515   2.43806  1       24
siesta:     -5.02777   7.31688   0.00000  3       25
siesta:     -6.80436   4.87985   0.00000  4       26
siesta:     -1.66304   6.97101   0.00000  2       27
siesta:     -1.02211   5.03515   0.00000  1       28
siesta:      0.80769   9.20208   0.00000  3       29
siesta:      3.74011   8.61772   0.00000  4       30

siesta: System type = molecule  

initatomlists: Number of atoms, orbitals, and projectors:     30   302   403

siesta: ******************** Simulation parameters ****************************
siesta:
siesta: The following are some of the parameters of the simulation.
siesta: A complete list of the parameters used, including default values,
siesta: can be found in file out.fdf
siesta:
redata: Spin configuration                          = spin-orbit
redata: Number of spin components                   = 8
redata: Time-Reversal Symmetry                      = F
redata: Spin spiral                                 = F
############################################################
This spin-orbit implementation uses a local approximation.
From 4.2 and onwards the full non-local approximation is implemented
You are strongly advised to use >=4.2 versions!
############################################################
redata: Long output                                 =   F
redata: Number of Atomic Species                    =        4
redata: Charge density info will appear in .RHO file
redata: Write Mulliken Pop.                         = NO
redata: Matel table size (NRTAB)                    =     1024
redata: Mesh Cutoff                                 =   340.0000 Ry
redata: Net charge of the system                    =     0.0000 |e|
redata: Min. number of SCF Iter                     =        1
redata: Max. number of SCF Iter                     =      200
redata: SCF convergence failure will abort job
redata: SCF mix quantity                            = Hamiltonian
redata: Mix DM or H after convergence               =   F
redata: Recompute H after scf cycle                 =   F
redata: Mix DM in first SCF step                    =   T
redata: Write Pulay info on disk                    =   F
redata: New DM Occupancy tolerance                  = 0.000000000001
redata: No kicks to SCF
redata: DM Mixing Weight for Kicks                  =     0.5000
redata: Require Harris convergence for SCF          =   F
redata: Harris energy tolerance for SCF             =     0.000100 eV
redata: Require DM convergence for SCF              =   T
redata: DM tolerance for SCF                        =     0.000008
redata: Require EDM convergence for SCF             =   F
redata: EDM tolerance for SCF                       =     0.001000 eV
redata: Require H convergence for SCF               =   T
redata: Hamiltonian tolerance for SCF               =     0.000001 eV
redata: Require (free) Energy convergence for SCF   =   F
redata: (free) Energy tolerance for SCF             =     0.000100 eV
redata: Using Saved Data (generic)                  =   F
redata: Use continuation files for DM               =   T
redata: Neglect nonoverlap interactions             =   F
redata: Method of Calculation                       = Diagonalization
redata: Electronic Temperature                      =   299.9978 K
redata: Fix the spin of the system                  =   F
redata: Dynamics option                             = Verlet MD run
redata: Initial MD time step                        =        1
redata:   Final MD time step                        =      600
redata: Length of MD time step                      =     0.5000 fs
redata: Initial Temperature of MD run               =     0.0000 K
redata: Perform a MD quench                         =   T
mix.SCF: Pulay mixing                            = Pulay
mix.SCF:    Variant                              = stable
mix.SCF:    History steps                        = 6
mix.SCF:    Linear mixing weight                 =     0.250000
mix.SCF:    Mixing weight                        =     0.250000
mix.SCF:    SVD condition                        = 0.1000E-07
mix.SCF:    Restart steps                        = 24
mix.SCF:    Restart save steps                   = 3
mix.SCF: Spin-component mixing                   all
redata: Save all siesta data in one NC              =   F
redata: ***********************************************************************

%block SCF.Mixers
  Pulay
%endblock SCF.Mixers

%block SCF.Mixer.Pulay
  # Mixing method
  method pulay
  variant stable

  # Mixing options
  weight 0.2500
  weight.linear 0.2500
  history 6
  restart 24
  restart.save 3
%endblock SCF.Mixer.Pulay

Size of DM history Fstack: 3
Total number of electrons:    98.000000
Total ionic charge:    98.000000

* ProcessorY, Blocksize:    4   9


* Orbital distribution balance (max,min):    18     9


Time-reversal symmetry not used.

siesta: k-grid: Number of k-points =     1
siesta: k-grid: Cutoff (effective) =     5.164 Ang
siesta: k-grid: Supercell and displacements
siesta: k-grid:    1   0   0      0.000
siesta: k-grid:    0   1   0      0.000
siesta: k-grid:    0   0   1      0.000

diag: Algorithm                                     = ELPA-1stage
diag: Parallel over k                               =   F
diag: Use parallel 2D distribution                  =   T
diag: Parallel block-size                           = 9
diag: Parallel distribution                         =     4 x     8
diag: Used triangular part                          = Lower
diag: Absolute tolerance                            =  0.100E-15
diag: Orthogonalization factor                      =  0.100E-05
diag: Memory factor                                 =  1.0000

siesta: Constraint v=[  0.00000,  0.00000,  1.00000] (27): pos-dir
  [ 1 -- 21, 25 -- 30 ]


ts: **************************************************************
ts: Save H and S matrices                           =    F
ts: Save DM and EDM matrices                        =    F
ts: Only save the overlap matrix S                  =    F
ts: **************************************************************

************************ Begin: TS CHECKS AND WARNINGS ************************
************************ End: TS CHECKS AND WARNINGS **************************


                     ====================================
                        Begin MD quenched step =      1
                     ====================================

outcoor: Atomic coordinates (Ang):                          
    2.34225298   -5.16237579    0.00000000   1       1  H
    1.41092585   -4.66778005    0.00000000   2       2  N
   -0.16326925   -5.53736720    0.00000000   3       3  Si
   -0.08771862   -7.03963990    0.00000000   1       4  H
   -1.61493192   -4.63669912    0.00000000   2       5  N
   -1.08665785   -2.90737756    0.00000000   3       6  Si
   -1.54348961   -0.73201300    0.00000000   3       7  Si
   -3.15602113   -0.10108766    0.00000000   2       8  N
   -3.41929253    0.94700306    0.00000000   1       9  H
   -3.96222423   -0.77533954    0.00000000   1      10  H
   -0.19671030    0.39547727    0.00000000   2      11  N
    1.48094281   -0.04988905    0.00000000   3      12  Si
    2.42867586    1.11801689    0.00000000   1      13  H
    2.29859712   -1.58374094    0.00000000   2      14  N
    1.11117323   -2.85363940    0.00000000   3      15  Si
    0.62919549    7.22722152    0.00000000   1      16  H
   -0.19114816    6.55147409    0.00000000   2      17  N
   -1.83905526    7.27405675    0.00000000   3      18  Si
   -1.71060632    8.77529920    0.00000000   1      19  H
   -3.57212606    5.94523660    0.00000000   3      20  Si
   -5.91897070    5.90119456    0.00000000   3      21  Si
   -6.48160642    6.62503242   -1.20383893   1      22  H
   -6.19811382    4.41955230   -0.09134711   1      23  H
   -6.48162172    6.45339474    1.29016579   1      24  H
   -2.66057846    3.87192698    0.00000000   3      25  Si
   -3.60071106    2.58230191    0.00000000   4      26  O
   -0.88004388    3.68889646    0.00000000   2      27  N
   -0.54087840    2.66448297    0.00000000   1      28  H
    0.42741269    4.86953117    0.00000000   3      29  Si
    1.97918166    4.56029820    0.00000000   4      30  O

outcell: Unit cell vectors (Ang):
       18.005604    0.000000    0.000000
        0.000000   24.777729    0.000000
        0.000000    0.000000   10.327559

outcell: Cell vector modules (Ang)   :   18.005604   24.777729   10.327559
outcell: Cell angles (23,13,12) (deg):     90.0000     90.0000     90.0000
outcell: Cell volume (Ang**3)        :   4607.5163
<dSpData1D:S at geom step 1
  <sparsity:sparsity for geom step 1
    nrows_g=302 nrows=18 sparsity=.0372 nnzs=3391, refcount: 8>
  <dData1D:(new from dSpData1D) n=3391, refcount: 1>
refcount: 1>
new_DM -- step:     1
Initializing Density Matrix...

Attempting to read DM from file... Failed...
DM filled with atomic data:
<dSpData2D:DM initialized from atoms
  <sparsity:sparsity for geom step 1
    nrows_g=302 nrows=18 sparsity=.0372 nnzs=3391, refcount: 9>
  <dData2D:DM n=3391 m=8, refcount: 1>
refcount: 1>
     spin moment: S , {S} =   56.00000   0.00000   0.00000  56.00000
No. of atoms with KB's overlaping orbs in proc 0. Max # of overlaps:      25     188

Initializing spin-orbit part of the Hamiltonian
  Adding spin-orbit effects for H 
  Adding spin-orbit effects for N 
  Adding spin-orbit effects for Si
  Adding spin-orbit effects for O 


New grid distribution:   1
           1       1:  100    1:   36    1:    8
           2       1:  100    1:   36    9:   16
           3       1:  100    1:   36   17:   24
           4       1:  100    1:   36   25:   32
           5       1:  100    1:   36   33:   39
           6       1:  100    1:   36   40:   46
           7       1:  100    1:   36   47:   53
           8       1:  100    1:   36   54:   60
           9       1:  100   37:   72    1:    8
          10       1:  100   37:   72    9:   16
          11       1:  100   37:   72   17:   24
          12       1:  100   37:   72   25:   32
          13       1:  100   37:   72   33:   39
          14       1:  100   37:   72   40:   46
          15       1:  100   37:   72   47:   53
          16       1:  100   37:   72   54:   60
          17       1:  100   73:  108    1:    8
          18       1:  100   73:  108    9:   16
          19       1:  100   73:  108   17:   24
          20       1:  100   73:  108   25:   32
          21       1:  100   73:  108   33:   39
          22       1:  100   73:  108   40:   46
          23       1:  100   73:  108   47:   53
          24       1:  100   73:  108   54:   60
          25       1:  100  109:  144    1:    8
          26       1:  100  109:  144    9:   16
          27       1:  100  109:  144   17:   24
          28       1:  100  109:  144   25:   32
          29       1:  100  109:  144   33:   39
          30       1:  100  109:  144   40:   46
          31       1:  100  109:  144   47:   53
          32       1:  100  109:  144   54:   60

InitMesh: MESH =   200 x   288 x   120 =     6912000
InitMesh: (bp) =   100 x   144 x    60 =      864000
InitMesh: Mesh cutoff (required, used) =   340.000   340.994 Ry
ExtMesh (bp) on 0 =   200 x   144 x   116 =     3340800
New grid distribution:   2
           1      14:   81    1:   22    1:   18
           2       1:   13    1:   22    1:   18
           3      82:   91    1:   19   18:   60
           4      14:   81    1:   22   19:   60
           5       1:   62   23:   39   22:   60
           6       1:    9   40:  124    1:   20
           7       1:   13    1:   22   19:   60
           8      82:   90   20:   39   22:   60
           9      10:   75   40:  124    1:   20
          10       1:   61   23:   39    1:   21
          11      91:  100   20:   39    1:   21
          12      91:  100   20:   39   22:   60
          13       1:    9   40:  124   21:   60
          14      92:  100   40:  121    1:   20
          15      92:  100    1:   19   18:   60
          16      82:   90   20:   39    1:   21
          17      76:   91   40:  121    1:   20
          18       1:    9  125:  144   21:   60
          19       1:    9  125:  144    1:   20
          20      10:   75   40:  124   21:   60
          21      76:   91   40:  121   21:   60
          22      63:   81   23:   39   22:   60
          23      62:   81   23:   39    1:   21
          24      82:   91    1:   19    1:   17
          25      10:   75  125:  144    1:   20
          26      76:   92  122:  144    1:   20
          27      93:  100  122:  144    1:   20
          28      10:   75  125:  144   21:   60
          29      92:  100   40:  121   21:   60
          30      76:   92  122:  144   21:   60
          31      93:  100  122:  144   21:   60
          32      92:  100    1:   19    1:   17
New grid distribution:   3
           1      18:   64    1:   26    1:   25
           2      84:  100    1:   26   26:   60
           3      65:   83    1:   26    1:   25
           4      18:   64    1:   26   26:   60
           5      16:   69  117:  144    1:   25
           6      23:   64   27:   48    1:   25
           7       1:   17    1:   26   26:   60
           8      84:  100    1:   26    1:   25
           9      13:   69   49:  116    1:   24
          10      88:  100  114:  144   26:   60
          11       1:   22   27:   48    1:   25
          12      90:  100   49:  113   25:   60
          13      23:   64   27:   48   26:   60
          14      65:   83    1:   26   26:   60
          15       1:   22   27:   48   26:   60
          16       1:   17    1:   26    1:   25
          17       1:   12   49:  116    1:   24
          18      83:  100   27:   48   27:   60
          19      83:  100   27:   48    1:   26
          20      13:   69   49:  116   25:   60
          21      70:   89   49:  113   25:   60
          22       1:   12   49:  116   25:   60
          23      65:   82   27:   48   27:   60
          24      65:   82   27:   48    1:   26
          25      90:  100   49:  113    1:   24
          26      70:   87  114:  144    1:   25
          27       1:   15  117:  144    1:   25
          28      16:   69  117:  144   26:   60
          29      70:   89   49:  113    1:   24
          30      70:   87  114:  144   26:   60
          31       1:   15  117:  144   26:   60
          32      88:  100  114:  144    1:   25
Setting up quadratic distribution...
ExtMesh (bp) on 0 =   168 x   130 x   126 =     2751840
PhiOnMesh: Number of (b)points on node 0 =                26928
PhiOnMesh: nlist on node 0 =               401762

stepf: Fermi-Dirac step function

siesta: Program's energy decomposition (eV):
siesta: Ebs     =      -634.094928
siesta: Eions   =      3553.971015
siesta: Ena     =       375.243255
siesta: Ekin    =      3169.657683
siesta: Enl     =     -2984.113313
siesta: Eso     =        -0.003919
siesta: Edftu   =         0.000000
siesta: DEna    =       130.219301
siesta: DUscf   =        73.610522
siesta: DUext   =         0.000000
siesta: Exc     =     -1168.823995
siesta: eta*DQ  =         0.000000
siesta: Emadel  =         0.000000
siesta: Emeta   =         0.000000
siesta: Emolmec =         0.000000
siesta: Ekinion =         0.000000
siesta: Eharris =     -3889.356640
siesta: Etot    =     -3958.181481
siesta: FreeEng =     -3958.184807

        iscf     Eharris(eV)        E_KS(eV)     FreeEng(eV)     dDmax    Ef(eV) dHmax(eV)
   scf:    1    -3889.356640    -3958.181481    -3958.184807  0.968899 -4.952218 20.086887
     spin moment: S , {S} =    2.02374  -0.00001  -0.00000   2.02374
timer: Routine,Calls,Time,% = IterSCF        1       3.958   9.27
   scf:    2    -4000.783122    -3991.296473    -3991.296476  0.458451 -4.290684 10.045022
     spin moment: S , {S} =    2.00010   0.00000  -0.00000   2.00010
   scf:    3    -3990.998736    -3995.558705    -3995.586215  0.420070 -4.200969  6.426352
     spin moment: S , {S} =    0.43730  -0.00000  -0.00000   0.43730
   scf:    4    -4000.478131    -3998.353492    -3998.353492  0.067993 -3.897991  4.221700
     spin moment: S , {S} =    0.00009  -0.00000   0.00000   0.00009
   scf:    5    -3999.923502    -3999.178171    -3999.178171  0.032975 -3.817082  2.103630
     spin moment: S , {S} =    0.00005  -0.00000   0.00000   0.00005
   scf:    6    -3999.779404    -3999.481949    -3999.481950  0.025156 -3.846354  1.082144
     spin moment: S , {S} =    0.00002  -0.00000   0.00000   0.00002
   scf:    7    -3999.733447    -3999.603101    -3999.603105  0.018188 -3.894501  0.479948
     spin moment: S , {S} =    0.00001  -0.00000   0.00000   0.00001
   scf:    8    -3999.681391    -3999.640713    -3999.640736  0.009842 -3.922155  0.228191
     spin moment: S , {S} =    0.00004  -0.00000   0.00000  -0.00004
   scf:    9    -3999.677156    -3999.657982    -3999.658030  0.006950 -3.934308  0.125561
     spin moment: S , {S} =    0.00010  -0.00000   0.00000  -0.00010
   scf:   10    -3999.681464    -3999.668706    -3999.668778  0.007949 -3.937562  0.075277
     spin moment: S , {S} =    0.00013  -0.00000  -0.00000  -0.00013
   scf:   11    -3999.677909    -3999.672843    -3999.672914  0.005949 -3.936141  0.045277
     spin moment: S , {S} =    0.00005  -0.00000  -0.00000  -0.00005
   scf:   12    -3999.676234    -3999.674352    -3999.674423  0.004285 -3.935443  0.030983
     spin moment: S , {S} =    0.00001  -0.00000  -0.00000  -0.00001
   scf:   13    -3999.675493    -3999.674861    -3999.674930  0.002770 -3.934755  0.024820
     spin moment: S , {S} =    0.00000  -0.00000  -0.00000   0.00000
   scf:   14    -3999.675470    -3999.675115    -3999.675183  0.002703 -3.934276  0.013045
     spin moment: S , {S} =    0.00000  -0.00000  -0.00000  -0.00000
   scf:   15    -3999.675245    -3999.675171    -3999.675238  0.001288 -3.934116  0.007405
     spin moment: S , {S} =    0.00000  -0.00000  -0.00000  -0.00000
   scf:   16    -3999.675209    -3999.675188    -3999.675255  0.000640 -3.934190  0.004854
     spin moment: S , {S} =    0.00000  -0.00000  -0.00000  -0.00000
   scf:   17    -3999.675208    -3999.675197    -3999.675264  0.000526 -3.934272  0.002982
     spin moment: S , {S} =    0.00000  -0.00000  -0.00000  -0.00000
   scf:   18    -3999.675208    -3999.675202    -3999.675269  0.000450 -3.934360  0.001327
     spin moment: S , {S} =    0.00000  -0.00000  -0.00000  -0.00000
   scf:   19    -3999.675205    -3999.675203    -3999.675270  0.000217 -3.934349  0.000658
     spin moment: S , {S} =    0.00000  -0.00000  -0.00000   0.00000
   scf:   20    -3999.675204    -3999.675203    -3999.675271  0.000108 -3.934317  0.000583
     spin moment: S , {S} =    0.00000  -0.00000  -0.00000   0.00000
   scf:   21    -3999.675204    -3999.675203    -3999.675271  0.000040 -3.934293  0.000402
     spin moment: S , {S} =    0.00000  -0.00000  -0.00000   0.00000
   scf:   22    -3999.675204    -3999.675203    -3999.675271  0.000024 -3.934290  0.000294
     spin moment: S , {S} =    0.00000  -0.00000  -0.00000   0.00000
   scf:   23    -3999.675204    -3999.675203    -3999.675271  0.000024 -3.934299  0.000164
     spin moment: S , {S} =    0.00000   0.00000  -0.00000  -0.00000
   scf:   24    -3999.675204    -3999.675203    -3999.675271  0.000015 -3.934302  0.000083
     spin moment: S , {S} =    0.00000  -0.00000   0.00000  -0.00000
mix: Pulay -- resetting history
   scf:   25    -3999.675204    -3999.675204    -3999.675271  0.000009 -3.934303  0.000045
     spin moment: S , {S} =    0.00000  -0.00000   0.00000  -0.00000
   scf:   26    -3999.675204    -3999.675204    -3999.675271  0.000005 -3.934302  0.000028
     spin moment: S , {S} =    0.00000  -0.00000   0.00000  -0.00000
   scf:   27    -3999.675204    -3999.675204    -3999.675271  0.000003 -3.934301  0.000011
     spin moment: S , {S} =    0.00000  -0.00000   0.00000  -0.00000
   scf:   28    -3999.675204    -3999.675204    -3999.675271  0.000001 -3.934301  0.000005
     spin moment: S , {S} =    0.00000  -0.00000   0.00000  -0.00000
   scf:   29    -3999.675204    -3999.675204    -3999.675271  0.000000 -3.934301  0.000003
     spin moment: S , {S} =    0.00000  -0.00000   0.00000  -0.00000
   scf:   30    -3999.675204    -3999.675204    -3999.675271  0.000000 -3.934301  0.000002
     spin moment: S , {S} =    0.00000  -0.00000   0.00000  -0.00000
   scf:   31    -3999.675204    -3999.675204    -3999.675271  0.000000 -3.934301  0.000002
     spin moment: S , {S} =    0.00000  -0.00000   0.00000  -0.00000
   scf:   32    -3999.675204    -3999.675204    -3999.675271  0.000000 -3.934301  0.000001
     spin moment: S , {S} =    0.00000  -0.00000   0.00000  -0.00000

SCF Convergence by DM+H criterion
max |DM_out - DM_in|         :     0.0000000876
max |H_out - H_in|      (eV) :     0.0000009786
SCF cycle converged after 32 iterations

Using DM_out to compute the final energy and forces
No. of atoms with KB's overlaping orbs in proc 0. Max # of overlaps:      25     188

siesta: E_KS(eV) =            -3999.6752

siesta: E_KS - E_eggbox =     -3999.6752
     spin moment: S , {S} =    0.00000  -0.00000   0.00000  -0.00000

siesta: Atomic forces (eV/Ang):
     1    0.000287    0.000108   -0.000001
     2    0.002029    0.008894   -0.000003
     3    0.002516   -0.002395   -0.000000
     4    0.000250    0.000073    0.000000
     5    0.022178   -0.008426   -0.000003
     6    0.000609   -0.010442   -0.000002
     7   -0.000062   -0.002736   -0.000016
     8    0.001041   -0.001655    0.000060
     9    0.000033   -0.000027   -0.000076
    10   -0.000034   -0.000009   -0.000009
    11   -0.000342   -0.000074    0.000009
    12   -0.002621    0.004047    0.000001
    13   -0.000054    0.000064    0.000001
    14    0.000555    0.004575   -0.000003
    15    0.013066    0.006389    0.000013
    16    0.000001   -0.000002   -0.001056
    17    0.000071   -0.000030   -0.000904
    18    0.000242   -0.000023    0.005994
    19    0.000001   -0.000000   -0.001577
    20    0.000324    0.000112   -0.000649
    21    0.000360    0.000693   -0.010867
    22   -0.000001    0.000009   -0.000014
    23   -0.000006    0.000045   -0.000028
    24   -0.000001    0.000011    0.000011
    25    0.000017   -0.000043    0.001293
    26   -0.000010   -0.000046    0.000389
    27   -0.000020    0.000001   -0.000639
    28   -0.000013   -0.000008   -0.000121
    29    0.000025   -0.000035   -0.000156
    30   -0.000003    0.000005    0.000246
----------------------------------------
   Tot    0.040436   -0.000927   -0.008109
----------------------------------------
   Max    0.022178
   Res    0.003647    sqrt( Sum f_i^2 / 3N )
----------------------------------------
   Max    0.022178    constrained

Stress tensor Voigt[x,y,z,yz,xz,xy] (kbar):       -0.33       -0.08       -0.14       -0.01        0.00        0.21
(Free)E + p*V (eV/cell)    -3999.1402
Target enthalpy (eV/cell)    -3999.6753

siesta: Stress tensor (static) (eV/Ang**3):
        -0.000208    0.000133    0.000000
         0.000133   -0.000052   -0.000009
         0.000000   -0.000009   -0.000089

siesta: Pressure (static):          0.18606773  kBar

siesta: Stress tensor (total) (eV/Ang**3):
        -0.000208    0.000133    0.000000
         0.000133   -0.000052   -0.000009
         0.000000   -0.000009   -0.000089

siesta: Pressure (total):          0.18606773  kBar

siesta: Temp_ion =       0.000 K

                     ====================================
                        Begin MD quenched step =      2
                     ====================================

outcoor: Atomic coordinates (Ang):                          
    2.34225332   -5.16237566    0.00000000   1       1  H
    1.41092602   -4.66777929    0.00000000   2       2  N
   -0.16326914   -5.53736730    0.00000000   3       3  Si
   -0.08771832   -7.03963981    0.00000000   1       4  H
   -1.61493002   -4.63669984    0.00000000   2       5  N
   -1.08665782   -2.90737801    0.00000000   3       6  Si
   -1.54348961   -0.73201312    0.00000000   3       7  Si
   -3.15602104   -0.10108780    0.00000000   2       8  N
   -3.41929249    0.94700303    0.00000000   1       9  H
   -3.96222427   -0.77533955    0.00000000   1      10  H
   -0.19671033    0.39547726    0.00000000   2      11  N
    1.48094270   -0.04988888    0.00000000   3      12  Si
    2.42867580    1.11801697    0.00000000   1      13  H
    2.29859717   -1.58374055    0.00000000   2      14  N
    1.11117379   -2.85363913    0.00000000   3      15  Si
    0.62919549    7.22722152    0.00000000   1      16  H
   -0.19114815    6.55147409    0.00000000   2      17  N
   -1.83905525    7.27405675    0.00000000   3      18  Si
   -1.71060632    8.77529920    0.00000000   1      19  H
   -3.57212605    5.94523660    0.00000000   3      20  Si
   -5.91897068    5.90119459    0.00000000   3      21  Si
   -6.48160642    6.62503243   -1.20383895   1      22  H
   -6.19811383    4.41955235   -0.09134714   1      23  H
   -6.48162172    6.45339475    1.29016580   1      24  H
   -2.66057846    3.87192698    0.00000000   3      25  Si
   -3.60071106    2.58230191    0.00000000   4      26  O
   -0.88004388    3.68889646    0.00000000   2      27  N
   -0.54087842    2.66448296    0.00000000   1      28  H
    0.42741269    4.86953117    0.00000000   3      29  Si
    1.97918166    4.56029820    0.00000000   4      30  O

outcell: Unit cell vectors (Ang):
       18.005604    0.000000    0.000000
        0.000000   24.777729    0.000000
        0.000000    0.000000   10.327559

outcell: Cell vector modules (Ang)   :   18.005604   24.777729   10.327559
outcell: Cell angles (23,13,12) (deg):     90.0000     90.0000     90.0000
outcell: Cell volume (Ang**3)        :   4607.5163
<dSpData1D:S at geom step 2
  <sparsity:sparsity for geom step 2
    nrows_g=302 nrows=18 sparsity=.0372 nnzs=3391, refcount: 8>
  <dData1D:(new from dSpData1D) n=3391, refcount: 1>
refcount: 1>
new_DM -- step:     2
Re-using DM from previous geometries...
Number of DMs in history: 1
 DM extrapolation coefficients: 
1   1.00000
New DM after history re-use:
<dSpData2D:SpM extrapolated using coords
  <sparsity:sparsity for geom step 2
    nrows_g=302 nrows=18 sparsity=.0372 nnzs=3391, refcount: 10>
  <dData2D:(temp array for extrapolation) n=3391 m=8, refcount: 1>
refcount: 1>
     spin moment: S , {S} =    0.00000  -0.00000   0.00000  -0.00000
No. of atoms with KB's overlaping orbs in proc 0. Max # of overlaps:      25     188
New grid distribution:   1
           1       1:  100    1:   36    1:    8
           2       1:  100    1:   36    9:   16
           3       1:  100    1:   36   17:   24
           4       1:  100    1:   36   25:   32
           5       1:  100    1:   36   33:   39
           6       1:  100    1:   36   40:   46
           7       1:  100    1:   36   47:   53
           8       1:  100    1:   36   54:   60
           9       1:  100   37:   72    1:    8
          10       1:  100   37:   72    9:   16
          11       1:  100   37:   72   17:   24
          12       1:  100   37:   72   25:   32
          13       1:  100   37:   72   33:   39
          14       1:  100   37:   72   40:   46
          15       1:  100   37:   72   47:   53
          16       1:  100   37:   72   54:   60
          17       1:  100   73:  108    1:    8
          18       1:  100   73:  108    9:   16
          19       1:  100   73:  108   17:   24
          20       1:  100   73:  108   25:   32
          21       1:  100   73:  108   33:   39
          22       1:  100   73:  108   40:   46
          23       1:  100   73:  108   47:   53
          24       1:  100   73:  108   54:   60
          25       1:  100  109:  144    1:    8
          26       1:  100  109:  144    9:   16
          27       1:  100  109:  144   17:   24
          28       1:  100  109:  144   25:   32
          29       1:  100  109:  144   33:   39
          30       1:  100  109:  144   40:   46
          31       1:  100  109:  144   47:   53
          32       1:  100  109:  144   54:   60

InitMesh: MESH =   200 x   288 x   120 =     6912000
InitMesh: (bp) =   100 x   144 x    60 =      864000
InitMesh: Mesh cutoff (required, used) =   340.000   340.994 Ry
ExtMesh (bp) on 0 =   200 x   144 x   116 =     3340800
New grid distribution:   2
           1      14:   81    1:   22    1:   18
           2       1:   13    1:   22    1:   18
           3      82:   91    1:   19   18:   60
           4      14:   81    1:   22   19:   60
           5       1:   62   23:   39   22:   60
           6       1:    9   40:  124    1:   20
           7       1:   13    1:   22   19:   60
           8      82:   90   20:   39   22:   60
           9      10:   75   40:  124    1:   20
          10       1:   61   23:   39    1:   21
          11      91:  100   20:   39    1:   21
          12      91:  100   20:   39   22:   60
          13       1:    9   40:  124   21:   60
          14      92:  100   40:  121    1:   20
          15      92:  100    1:   19   18:   60
          16      82:   90   20:   39    1:   21
          17      76:   91   40:  121    1:   20
          18       1:    9  125:  144   21:   60
          19       1:    9  125:  144    1:   20
          20      10:   75   40:  124   21:   60
          21      76:   91   40:  121   21:   60
          22      63:   81   23:   39   22:   60
          23      62:   81   23:   39    1:   21
          24      82:   91    1:   19    1:   17
          25      10:   75  125:  144    1:   20
          26      76:   92  122:  144    1:   20
          27      93:  100  122:  144    1:   20
          28      10:   75  125:  144   21:   60
          29      92:  100   40:  121   21:   60
          30      76:   92  122:  144   21:   60
          31      93:  100  122:  144   21:   60
          32      92:  100    1:   19    1:   17
New grid distribution:   3
           1      18:   64    1:   26    1:   25
           2      84:  100    1:   26   26:   60
           3      65:   83    1:   26    1:   25
           4      18:   64    1:   26   26:   60
           5      16:   69  117:  144    1:   25
           6      23:   64   27:   48    1:   25
           7       1:   17    1:   26   26:   60
           8      84:  100    1:   26    1:   25
           9      13:   69   49:  116    1:   24
          10      88:  100  114:  144   26:   60
          11       1:   22   27:   48    1:   25
          12      90:  100   49:  113   25:   60
          13      23:   64   27:   48   26:   60
          14      65:   83    1:   26   26:   60
          15       1:   22   27:   48   26:   60
          16       1:   17    1:   26    1:   25
          17       1:   12   49:  116    1:   24
          18      83:  100   27:   48   27:   60
          19      83:  100   27:   48    1:   26
          20      13:   69   49:  116   25:   60
          21      70:   89   49:  113   25:   60
          22       1:   12   49:  116   25:   60
          23      65:   82   27:   48   27:   60
          24      65:   82   27:   48    1:   26
          25      90:  100   49:  113    1:   24
          26      70:   87  114:  144    1:   25
          27       1:   15  117:  144    1:   25
          28      16:   69  117:  144   26:   60
          29      70:   89   49:  113    1:   24
          30      70:   87  114:  144   26:   60
          31       1:   15  117:  144   26:   60
          32      88:  100  114:  144    1:   25
Setting up quadratic distribution...
ExtMesh (bp) on 0 =   168 x   130 x   126 =     2751840
PhiOnMesh: Number of (b)points on node 0 =                26928
PhiOnMesh: nlist on node 0 =               401762

        iscf     Eharris(eV)        E_KS(eV)     FreeEng(eV)     dDmax    Ef(eV) dHmax(eV)
   scf:    1    -3999.675198    -3999.675203    -3999.675271  0.000001 -3.934301  0.000022
     spin moment: S , {S} =    0.00000  -0.00000   0.00000  -0.00000
   scf:    2    -3999.675203    -3999.675203    -3999.675271  0.000002 -3.934299  0.000051
     spin moment: S , {S} =    0.00000   0.00000  -0.00000  -0.00000
   scf:    3    -3999.675203    -3999.675203    -3999.675271  0.000001 -3.934301  0.000002
     spin moment: S , {S} =    0.00000  -0.00000  -0.00000  -0.00000
   scf:    4    -3999.675203    -3999.675203    -3999.675271  0.000000 -3.934301  0.000001
     spin moment: S , {S} =    0.00000  -0.00000  -0.00000  -0.00000
   scf:    5    -3999.675203    -3999.675203    -3999.675271  0.000000 -3.934301  0.000000
     spin moment: S , {S} =    0.00000   0.00000  -0.00000  -0.00000

SCF Convergence by DM+H criterion
max |DM_out - DM_in|         :     0.0000000272
max |H_out - H_in|      (eV) :     0.0000002826
SCF cycle converged after 5 iterations

Using DM_out to compute the final energy and forces
No. of atoms with KB's overlaping orbs in proc 0. Max # of overlaps:      25     188

siesta: E_KS(eV) =            -3999.6752
     spin moment: S , {S} =    0.00000   0.00000  -0.00000  -0.00000

siesta: Atomic forces (eV/Ang):
     1    0.000252    0.000106   -0.000001
     2    0.002044    0.008872   -0.000003
     3    0.002557   -0.002409   -0.000000
     4    0.000248    0.000071    0.000000
     5    0.022135   -0.008409   -0.000003
     6    0.000617   -0.010433   -0.000002
     7   -0.000060   -0.002741   -0.000016
     8    0.001037   -0.001649    0.000060
     9    0.000032   -0.000028   -0.000076
    10   -0.000031   -0.000009   -0.000009
    11   -0.000345   -0.000074    0.000009
    12   -0.002619    0.004048    0.000001
    13   -0.000051    0.000060    0.000001
    14    0.000559    0.004575   -0.000003
    15    0.013051    0.006388    0.000013
    16    0.000001   -0.000002   -0.001056
    17    0.000070   -0.000030   -0.000904
    18    0.000242   -0.000023    0.005994
    19    0.000001   -0.000000   -0.001577
    20    0.000323    0.000112   -0.000649
    21    0.000360    0.000693   -0.010867
    22   -0.000001    0.000008   -0.000012
    23   -0.000006    0.000045   -0.000028
    24   -0.000000    0.000010    0.000010
    25    0.000017   -0.000043    0.001293
    26   -0.000010   -0.000045    0.000389
    27   -0.000020    0.000001   -0.000639
    28   -0.000012   -0.000008   -0.000121
    29    0.000025   -0.000035   -0.000156
    30   -0.000003    0.000004    0.000246
----------------------------------------
   Tot    0.040415   -0.000946   -0.008109
----------------------------------------
   Max    0.022135
   Res    0.003643    sqrt( Sum f_i^2 / 3N )
----------------------------------------
   Max    0.022135    constrained

Stress tensor Voigt[x,y,z,yz,xz,xy] (kbar):       -0.33       -0.08       -0.14       -0.01        0.00        0.21
(Free)E + p*V (eV/cell)    -3999.1402
Target enthalpy (eV/cell)    -3999.6753

siesta: Stress tensor (static) (eV/Ang**3):
        -0.000208    0.000133    0.000000
         0.000133   -0.000052   -0.000009
         0.000000   -0.000009   -0.000089

siesta: Pressure (static):          0.18607424  kBar

siesta: Stress tensor (total) (eV/Ang**3):
        -0.000208    0.000133    0.000000
         0.000133   -0.000052   -0.000009
         0.000000   -0.000009   -0.000089

siesta: Pressure (total):          0.18607424  kBar

siesta: Temp_ion =       0.000 K

                     ====================================
                        Begin MD quenched step =      3
                     ====================================

outcoor: Atomic coordinates (Ang):                          
    2.34225426   -5.16237528    0.00000000   1       1  H
    1.41092655   -4.66777701    0.00000000   2       2  N
   -0.16326882   -5.53736761    0.00000000   3       3  Si
   -0.08771744   -7.03963956    0.00000000   1       4  H
   -1.61492435   -4.63670200    0.00000000   2       5  N
   -1.08665775   -2.90737934    0.00000000   3       6  Si
   -1.54348962   -0.73201347    0.00000000   3       7  Si
   -3.15602077   -0.10108822    0.00000000   2       8  N
   -3.41929238    0.94700293    0.00000000   1       9  H
   -3.96222438   -0.77533958    0.00000000   1      10  H
   -0.19671042    0.39547724    0.00000000   2      11  N
    1.48094236   -0.04988836    0.00000000   3      12  Si
    2.42867561    1.11801719    0.00000000   1      13  H
    2.29859731   -1.58373938    0.00000000   2      14  N
    1.11117546   -2.85363831    0.00000000   3      15  Si
    0.62919549    7.22722151    0.00000000   1      16  H
   -0.19114814    6.55147408    0.00000000   2      17  N
   -1.83905522    7.27405675    0.00000000   3      18  Si
   -1.71060631    8.77529920    0.00000000   1      19  H
   -3.57212600    5.94523662    0.00000000   3      20  Si
   -5.91897064    5.90119468    0.00000000   3      21  Si
   -6.48160642    6.62503246   -1.20383899   1      22  H
   -6.19811385    4.41955251   -0.09134724   1      23  H
   -6.48162172    6.45339479    1.29016584   1      24  H
   -2.66057846    3.87192697    0.00000000   3      25  Si
   -3.60071106    2.58230190    0.00000000   4      26  O
   -0.88004389    3.68889646    0.00000000   2      27  N
   -0.54087846    2.66448293    0.00000000   1      28  H
    0.42741269    4.86953116    0.00000000   3      29  Si
    1.97918166    4.56029820    0.00000000   4      30  O

outcell: Unit cell vectors (Ang):
       18.005604    0.000000    0.000000
        0.000000   24.777729    0.000000
        0.000000    0.000000   10.327559

outcell: Cell vector modules (Ang)   :   18.005604   24.777729   10.327559
outcell: Cell angles (23,13,12) (deg):     90.0000     90.0000     90.0000
outcell: Cell volume (Ang**3)        :   4607.5163
<dSpData1D:S at geom step 3
  <sparsity:sparsity for geom step 3
    nrows_g=302 nrows=18 sparsity=.0372 nnzs=3391, refcount: 8>
  <dData1D:(new from dSpData1D) n=3391, refcount: 1>
refcount: 1>
new_DM -- step:     3
Re-using DM from previous geometries...
Number of DMs in history: 2
  Estimated Rank of xi*xj matrix:            2
 matrix rank:            2
Singular values: 
  1.4142      1.4142     0.10378E-10
 DM extrapolation coefficients: 
1   0.50000
2   0.50000
New DM after history re-use:
<dSpData2D:SpM extrapolated using coords
  <sparsity:sparsity for geom step 3
    nrows_g=302 nrows=18 sparsity=.0372 nnzs=3391, refcount: 11>
  <dData2D:(temp array for extrapolation) n=3391 m=8, refcount: 1>
refcount: 1>
     spin moment: S , {S} =    0.00000  -0.00000   0.00000  -0.00000
No. of atoms with KB's overlaping orbs in proc 0. Max # of overlaps:      25     188
New grid distribution:   1
           1       1:  100    1:   36    1:    8
           2       1:  100    1:   36    9:   16
           3       1:  100    1:   36   17:   24
           4       1:  100    1:   36   25:   32
           5       1:  100    1:   36   33:   39
           6       1:  100    1:   36   40:   46
           7       1:  100    1:   36   47:   53
           8       1:  100    1:   36   54:   60
           9       1:  100   37:   72    1:    8
          10       1:  100   37:   72    9:   16
          11       1:  100   37:   72   17:   24
          12       1:  100   37:   72   25:   32
          13       1:  100   37:   72   33:   39
          14       1:  100   37:   72   40:   46
          15       1:  100   37:   72   47:   53
          16       1:  100   37:   72   54:   60
          17       1:  100   73:  108    1:    8
          18       1:  100   73:  108    9:   16
          19       1:  100   73:  108   17:   24
          20       1:  100   73:  108   25:   32
          21       1:  100   73:  108   33:   39
          22       1:  100   73:  108   40:   46
          23       1:  100   73:  108   47:   53
          24       1:  100   73:  108   54:   60
          25       1:  100  109:  144    1:    8
          26       1:  100  109:  144    9:   16
          27       1:  100  109:  144   17:   24
          28       1:  100  109:  144   25:   32
          29       1:  100  109:  144   33:   39
          30       1:  100  109:  144   40:   46
          31       1:  100  109:  144   47:   53
          32       1:  100  109:  144   54:   60

InitMesh: MESH =   200 x   288 x   120 =     6912000
InitMesh: (bp) =   100 x   144 x    60 =      864000
InitMesh: Mesh cutoff (required, used) =   340.000   340.994 Ry
ExtMesh (bp) on 0 =   200 x   144 x   116 =     3340800
New grid distribution:   2
           1      14:   81    1:   22    1:   18
           2       1:   13    1:   22    1:   18
           3      82:   91    1:   19   18:   60
           4      14:   81    1:   22   19:   60
           5       1:   62   23:   39   22:   60
           6       1:    9   40:  124    1:   20
           7       1:   13    1:   22   19:   60
           8      82:   90   20:   39   22:   60
           9      10:   75   40:  124    1:   20
          10       1:   61   23:   39    1:   21
          11      91:  100   20:   39    1:   21
          12      91:  100   20:   39   22:   60
          13       1:    9   40:  124   21:   60
          14      92:  100   40:  121    1:   20
          15      92:  100    1:   19   18:   60
          16      82:   90   20:   39    1:   21
          17      76:   91   40:  121    1:   20
          18       1:    9  125:  144   21:   60
          19       1:    9  125:  144    1:   20
          20      10:   75   40:  124   21:   60
          21      76:   91   40:  121   21:   60
          22      63:   81   23:   39   22:   60
          23      62:   81   23:   39    1:   21
          24      82:   91    1:   19    1:   17
          25      10:   75  125:  144    1:   20
          26      76:   92  122:  144    1:   20
          27      93:  100  122:  144    1:   20
          28      10:   75  125:  144   21:   60
          29      92:  100   40:  121   21:   60
          30      76:   92  122:  144   21:   60
          31      93:  100  122:  144   21:   60
          32      92:  100    1:   19    1:   17
New grid distribution:   3
           1      18:   64    1:   26    1:   25
           2      84:  100    1:   26   26:   60
           3      65:   83    1:   26    1:   25
           4      18:   64    1:   26   26:   60
           5      16:   69  117:  144    1:   25
           6      23:   64   27:   48    1:   25
           7       1:   17    1:   26   26:   60
           8      84:  100    1:   26    1:   25
           9      13:   69   49:  116    1:   24
          10      88:  100  114:  144   26:   60
          11       1:   22   27:   48    1:   25
          12      90:  100   49:  113   25:   60
          13      23:   64   27:   48   26:   60
          14      65:   83    1:   26   26:   60
          15       1:   22   27:   48   26:   60
          16       1:   17    1:   26    1:   25
          17       1:   12   49:  116    1:   24
          18      83:  100   27:   48   27:   60
          19      83:  100   27:   48    1:   26
          20      13:   69   49:  116   25:   60
          21      70:   89   49:  113   25:   60
          22       1:   12   49:  116   25:   60
          23      65:   82   27:   48   27:   60
          24      65:   82   27:   48    1:   26
          25      90:  100   49:  113    1:   24
          26      70:   87  114:  144    1:   25
          27       1:   15  117:  144    1:   25
          28      16:   69  117:  144   26:   60
          29      70:   89   49:  113    1:   24
          30      70:   87  114:  144   26:   60
          31       1:   15  117:  144   26:   60
          32      88:  100  114:  144    1:   25
Setting up quadratic distribution...
ExtMesh (bp) on 0 =   168 x   130 x   126 =     2751840
PhiOnMesh: Number of (b)points on node 0 =                26928
PhiOnMesh: nlist on node 0 =               401762

        iscf     Eharris(eV)        E_KS(eV)     FreeEng(eV)     dDmax    Ef(eV) dHmax(eV)
   scf:    1    -3999.675186    -3999.675203    -3999.675271  0.000005 -3.934301  0.000076
     spin moment: S , {S} =    0.00000   0.00000   0.00000  -0.00000
   scf:    2    -3999.675203    -3999.675203    -3999.675271  0.000005 -3.934295  0.000182
     spin moment: S , {S} =    0.00000  -0.00000  -0.00000  -0.00000
   scf:    3    -3999.675203    -3999.675203    -3999.675271  0.000004 -3.934300  0.000008
     spin moment: S , {S} =    0.00000   0.00000  -0.00000  -0.00000
   scf:    4    -3999.675203    -3999.675203    -3999.675271  0.000000 -3.934300  0.000004
     spin moment: S , {S} =    0.00000   0.00000  -0.00000  -0.00000
   scf:    5    -3999.675203    -3999.675203    -3999.675271  0.000000 -3.934300  0.000001
     spin moment: S , {S} =    0.00000   0.00000  -0.00000  -0.00000

SCF Convergence by DM+H criterion
max |DM_out - DM_in|         :     0.0000000851
max |H_out - H_in|      (eV) :     0.0000009603
SCF cycle converged after 5 iterations

Using DM_out to compute the final energy and forces
No. of atoms with KB's overlaping orbs in proc 0. Max # of overlaps:      25     188

siesta: E_KS(eV) =            -3999.6752
     spin moment: S , {S} =    0.00000   0.00000  -0.00000  -0.00000

siesta: Atomic forces (eV/Ang):
     1    0.000156    0.000100   -0.000001
     2    0.002085    0.008806   -0.000003
     3    0.002679   -0.002450   -0.000000
     4    0.000245    0.000066    0.000000
     5    0.021997   -0.008356   -0.000003
     6    0.000642   -0.010407   -0.000002
     7   -0.000055   -0.002759   -0.000016
     8    0.001025   -0.001632    0.000060
     9    0.000030   -0.000031   -0.000076
    10   -0.000021   -0.000008   -0.000009
    11   -0.000354   -0.000076    0.000009
    12   -0.002614    0.004051    0.000001
    13   -0.000041    0.000048    0.000001
    14    0.000573    0.004576   -0.000003
    15    0.013008    0.006387    0.000013
    16    0.000001   -0.000001   -0.001056
    17    0.000070   -0.000030   -0.000904
    18    0.000242   -0.000023    0.005994
    19    0.000001   -0.000000   -0.001577
    20    0.000323    0.000112   -0.000649
    21    0.000359    0.000694   -0.010867
    22   -0.000000    0.000006   -0.000009
    23   -0.000006    0.000045   -0.000028
    24   -0.000000    0.000007    0.000007
    25    0.000017   -0.000043    0.001293
    26   -0.000009   -0.000045    0.000389
    27   -0.000020    0.000000   -0.000639
    28   -0.000010   -0.000006   -0.000121
    29    0.000025   -0.000035   -0.000156
    30   -0.000002    0.000004    0.000246
----------------------------------------
   Tot    0.040345   -0.000999   -0.008108
----------------------------------------
   Max    0.021997
   Res    0.003629    sqrt( Sum f_i^2 / 3N )
----------------------------------------
   Max    0.021997    constrained

Stress tensor Voigt[x,y,z,yz,xz,xy] (kbar):       -0.33       -0.08       -0.14       -0.01        0.00        0.21
(Free)E + p*V (eV/cell)    -3999.1401
Target enthalpy (eV/cell)    -3999.6753

siesta: Stress tensor (static) (eV/Ang**3):
        -0.000208    0.000133    0.000000
         0.000133   -0.000052   -0.000009
         0.000000   -0.000009   -0.000089

siesta: Pressure (static):          0.18609811  kBar

siesta: Stress tensor (total) (eV/Ang**3):
        -0.000208    0.000133    0.000000
         0.000133   -0.000052   -0.000009
         0.000000   -0.000009   -0.000089

siesta: Pressure (total):          0.18609813  kBar

siesta: Temp_ion =       0.000 K

                     ====================================
                        Begin MD quenched step =      4
                     ====================================

outcoor: Atomic coordinates (Ang):                          
    2.34225557   -5.16237467    0.00000000   1       1  H
    1.41092743   -4.66777323    0.00000000   2       2  N
   -0.16326826   -5.53736813    0.00000000   3       3  Si
   -0.08771598   -7.03963915    0.00000000   1       4  H
   -1.61491491   -4.63670558    0.00000000   2       5  N
   -1.08665761   -2.90738156    0.00000000   3       6  Si
   -1.54348963   -0.73201405    0.00000000   3       7  Si
   -3.15602033   -0.10108893    0.00000000   2       8  N
   -3.41929219    0.94700276    0.00000000   1       9  H
   -3.96222455   -0.77533964    0.00000000   1      10  H
   -0.19671057    0.39547721    0.00000000   2      11  N
    1.48094181   -0.04988750    0.00000000   3      12  Si
    2.42867533    1.11801752    0.00000000   1      13  H
    2.29859755   -1.58373742    0.00000000   2      14  N
    1.11117824   -2.85363695    0.00000000   3      15  Si
    0.62919550    7.22722150    0.00000000   1      16  H
   -0.19114811    6.55147407    0.00000000   2      17  N
   -1.83905517    7.27405674    0.00000000   3      18  Si
   -1.71060631    8.77529920    0.00000000   1      19  H
   -3.57212594    5.94523664    0.00000000   3      20  Si
   -5.91897056    5.90119483    0.00000000   3      21  Si
   -6.48160643    6.62503250   -1.20383906   1      22  H
   -6.19811388    4.41955278   -0.09134741   1      23  H
   -6.48162172    6.45339484    1.29016589   1      24  H
   -2.66057845    3.87192696    0.00000000   3      25  Si
   -3.60071107    2.58230188    0.00000000   4      26  O
   -0.88004390    3.68889646    0.00000000   2      27  N
   -0.54087853    2.66448289    0.00000000   1      28  H
    0.42741270    4.86953116    0.00000000   3      29  Si
    1.97918166    4.56029820    0.00000000   4      30  O

outcell: Unit cell vectors (Ang):
       18.005604    0.000000    0.000000
        0.000000   24.777729    0.000000
        0.000000    0.000000   10.327559

outcell: Cell vector modules (Ang)   :   18.005604   24.777729   10.327559
outcell: Cell angles (23,13,12) (deg):     90.0000     90.0000     90.0000
outcell: Cell volume (Ang**3)        :   4607.5163
<dSpData1D:S at geom step 4
  <sparsity:sparsity for geom step 4
    nrows_g=302 nrows=18 sparsity=.0372 nnzs=3391, refcount: 8>
  <dData1D:(new from dSpData1D) n=3391, refcount: 1>
refcount: 1>
new_DM -- step:     4
Re-using DM from previous geometries...
Number of DMs in history: 3
  Estimated Rank of xi*xj matrix:            3
 matrix rank:            2
Singular values: 
  1.7321      1.7321     0.17906E-09 0.93789E-15
 DM extrapolation coefficients: 
1   0.33333
2   0.33333
3   0.33333
New DM after history re-use:
<dSpData2D:SpM extrapolated using coords
  <sparsity:sparsity for geom step 4
    nrows_g=302 nrows=18 sparsity=.0372 nnzs=3391, refcount: 12>
  <dData2D:(temp array for extrapolation) n=3391 m=8, refcount: 1>
refcount: 1>
     spin moment: S , {S} =    0.00000  -0.00000  -0.00000  -0.00000
No. of atoms with KB's overlaping orbs in proc 0. Max # of overlaps:      25     188
New grid distribution:   1
           1       1:  100    1:   36    1:    8
           2       1:  100    1:   36    9:   16
           3       1:  100    1:   36   17:   24
           4       1:  100    1:   36   25:   32
           5       1:  100    1:   36   33:   39
           6       1:  100    1:   36   40:   46
           7       1:  100    1:   36   47:   53
           8       1:  100    1:   36   54:   60
           9       1:  100   37:   72    1:    8
          10       1:  100   37:   72    9:   16
          11       1:  100   37:   72   17:   24
          12       1:  100   37:   72   25:   32
          13       1:  100   37:   72   33:   39
          14       1:  100   37:   72   40:   46
          15       1:  100   37:   72   47:   53
          16       1:  100   37:   72   54:   60
          17       1:  100   73:  108    1:    8
          18       1:  100   73:  108    9:   16
          19       1:  100   73:  108   17:   24
          20       1:  100   73:  108   25:   32
          21       1:  100   73:  108   33:   39
          22       1:  100   73:  108   40:   46
          23       1:  100   73:  108   47:   53
          24       1:  100   73:  108   54:   60
          25       1:  100  109:  144    1:    8
          26       1:  100  109:  144    9:   16
          27       1:  100  109:  144   17:   24
          28       1:  100  109:  144   25:   32
          29       1:  100  109:  144   33:   39
          30       1:  100  109:  144   40:   46
          31       1:  100  109:  144   47:   53
          32       1:  100  109:  144   54:   60

InitMesh: MESH =   200 x   288 x   120 =     6912000
InitMesh: (bp) =   100 x   144 x    60 =      864000
InitMesh: Mesh cutoff (required, used) =   340.000   340.994 Ry
ExtMesh (bp) on 0 =   200 x   144 x   116 =     3340800
New grid distribution:   2
           1      14:   81    1:   22    1:   18
[...]
InitMesh: (bp) =   100 x   144 x    60 =      864000
InitMesh: Mesh cutoff (required, used) =   340.000   340.994 Ry
ExtMesh (bp) on 0 =   200 x   144 x   116 =     3340800
New grid distribution:   2
           1      14:   81    1:   22    1:   18
           2       1:   13    1:   22    1:   18
           3      82:   91    1:   19   18:   60
           4      14:   81    1:   22   19:   60
           5       1:   62   23:   39   22:   60
           6       1:    9   40:  124    1:   20
           7       1:   13    1:   22   19:   60
           8      82:   90   20:   39   22:   60
           9      10:   75   40:  124    1:   20
          10       1:   61   23:   39    1:   21
          11      91:  100   20:   39    1:   21
          12      91:  100   20:   39   22:   60
          13       1:    9   40:  124   21:   60
          14      92:  100   40:  121    1:   20
          15      92:  100    1:   19   18:   60
          16      82:   90   20:   39    1:   21
          17      76:   91   40:  121    1:   20
          18       1:    9  125:  144   21:   60
          19       1:    9  125:  144    1:   20
          20      10:   75   40:  124   21:   60
          21      76:   91   40:  121   21:   60
          22      63:   81   23:   39   22:   60
          23      62:   81   23:   39    1:   21
          24      82:   91    1:   19    1:   17
          25      10:   75  125:  144    1:   20
          26      76:   92  122:  144    1:   20
          27      93:  100  122:  144    1:   20
          28      10:   75  125:  144   21:   60
          29      92:  100   40:  121   21:   60
          30      76:   92  122:  144   21:   60
          31      93:  100  122:  144   21:   60
          32      92:  100    1:   19    1:   17
New grid distribution:   3
           1      18:   64    1:   26    1:   25
           2      84:  100    1:   26   26:   60
           3      65:   83    1:   26    1:   25
           4      18:   64    1:   26   26:   60
           5      16:   69  117:  144    1:   25
           6      23:   64   27:   48    1:   25
           7       1:   17    1:   26   26:   60
           8      84:  100    1:   26    1:   25
           9      13:   69   49:  116    1:   24
          10      88:  100  114:  144   26:   60
          11       1:   22   27:   48    1:   25
          12      90:  100   49:  113   25:   60
          13      23:   64   27:   48   26:   60
          14      65:   83    1:   26   26:   60
          15       1:   22   27:   48   26:   60
          16       1:   17    1:   26    1:   25
          17       1:   12   49:  116    1:   24
          18      83:  100   27:   48   27:   60
          19      83:  100   27:   48    1:   26
          20      13:   69   49:  116   25:   60
          21      70:   89   49:  113   25:   60
          22       1:   12   49:  116   25:   60
          23      65:   82   27:   48   27:   60
          24      65:   82   27:   48    1:   26
          25      90:  100   49:  113    1:   24
          26      70:   87  114:  144    1:   25
          27       1:   15  117:  144    1:   25
          28      16:   69  117:  144   26:   60
          29      70:   89   49:  113    1:   24
          30      70:   87  114:  144   26:   60
          31       1:   15  117:  144   26:   60
          32      88:  100  114:  144    1:   25
Setting up quadratic distribution...
ExtMesh (bp) on 0 =   168 x   130 x   126 =     2751840
PhiOnMesh: Number of (b)points on node 0 =                26928
PhiOnMesh: nlist on node 0 =               401746

        iscf     Eharris(eV)        E_KS(eV)     FreeEng(eV)     dDmax    Ef(eV) dHmax(eV)
   scf:    1    -3999.675438    -3999.675314    -3999.675381  0.000031 -3.934478  0.000354
     spin moment: S , {S} =    0.00000  -0.00000  -0.00000  -0.00000
   scf:    2    -3999.675314    -3999.675314    -3999.675381  0.000021 -3.934526  0.000949
     spin moment: S , {S} =    0.00000  -0.00000   0.00000  -0.00000
   scf:    3    -3999.675314    -3999.675314    -3999.675381  0.000016 -3.934495  0.000043
     spin moment: S , {S} =    0.00000  -0.00000  -0.00000  -0.00000
   scf:    4    -3999.675314    -3999.675314    -3999.675381  0.000001 -3.934497  0.000016
     spin moment: S , {S} =    0.00000  -0.00000  -0.00000  -0.00000
   scf:    5    -3999.675314    -3999.675314    -3999.675381  0.000001 -3.934499  0.000005
     spin moment: S , {S} =    0.00000  -0.00000  -0.00000  -0.00000
   scf:    6    -3999.675314    -3999.675314    -3999.675381  0.000000 -3.934499  0.000002
     spin moment: S , {S} =    0.00000  -0.00000  -0.00000  -0.00000
   scf:    7    -3999.675314    -3999.675314    -3999.675381  0.000000 -3.934498  0.000001
     spin moment: S , {S} =    0.00000  -0.00000   0.00000  -0.00000
   scf:    8    -3999.675314    -3999.675314    -3999.675381  0.000000 -3.934498  0.000000
     spin moment: S , {S} =    0.00000  -0.00000   0.00000  -0.00000

SCF Convergence by DM+H criterion
max |DM_out - DM_in|         :     0.0000000377
max |H_out - H_in|      (eV) :     0.0000003145
SCF cycle converged after 8 iterations

Using DM_out to compute the final energy and forces
No. of atoms with KB's overlaping orbs in proc 0. Max # of overlaps:      25     188

siesta: E_KS(eV) =            -3999.6753
     spin moment: S , {S} =    0.00000  -0.00000   0.00000  -0.00000

siesta: Atomic forces (eV/Ang):
     1   -0.000248   -0.000014   -0.000001
     2    0.000754   -0.000077   -0.000003
     3    0.004571   -0.002332   -0.000000
     4   -0.000504   -0.000057    0.000000
     5    0.004966   -0.004431   -0.000003
     6    0.001922   -0.004095   -0.000002
     7    0.000066   -0.003325   -0.000016
     8   -0.000312   -0.000100    0.000060
     9    0.000007   -0.000001   -0.000076
    10   -0.000024   -0.000013   -0.000009
    11   -0.001152   -0.000166    0.000009
    12   -0.000001    0.000205    0.000001
    13   -0.000037    0.000017    0.000001
    14    0.000506    0.001628   -0.000003
    15    0.003016   -0.000080    0.000013
    16    0.000004    0.000001   -0.001058
    17    0.000042   -0.000004   -0.000906
    18    0.000116    0.000007    0.006008
    19    0.000001    0.000002   -0.001579
    20    0.000243    0.000089   -0.000649
    21    0.000090    0.000412   -0.010748
    22   -0.000002    0.000003   -0.000004
    23    0.000011    0.000017    0.000007
    24   -0.000001    0.000003    0.000002
    25    0.000023   -0.000003    0.001289
    26    0.000002   -0.000028    0.000389
    27   -0.000015   -0.000015   -0.000639
    28    0.000004   -0.000015   -0.000121
    29    0.000060    0.000041   -0.000156
    30    0.000001    0.000003    0.000246
----------------------------------------
   Tot    0.014106   -0.012327   -0.007949
----------------------------------------
   Max    0.010748
   Res    0.001750    sqrt( Sum f_i^2 / 3N )
----------------------------------------
   Max    0.004966    constrained

Stress tensor Voigt[x,y,z,yz,xz,xy] (kbar):       -0.35       -0.07       -0.14       -0.01        0.00        0.22
(Free)E + p*V (eV/cell)    -3999.1329
Target enthalpy (eV/cell)    -3999.6754

siesta: Stress tensor (static) (eV/Ang**3):
        -0.000220    0.000139    0.000000
         0.000139   -0.000044   -0.000009
         0.000000   -0.000009   -0.000089

siesta: Pressure (static):          0.18863798  kBar

siesta: Stress tensor (total) (eV/Ang**3):
        -0.000220    0.000139    0.000000
         0.000139   -0.000044   -0.000009
         0.000000   -0.000009   -0.000089

siesta: Pressure (total):          0.18864008  kBar

outcoor: Relaxed atomic coordinates (Ang):                  
    2.34252331   -5.16238821    0.00000000   1       1  H
    1.41196868   -4.66696035    0.00000000   2       2  N
   -0.16079498   -5.53879684    0.00000000   3       3  Si
   -0.08726873   -7.04133446    0.00000000   1       4  H
   -1.61203059   -4.63878284    0.00000000   2       5  N
   -1.08586070   -2.90887817    0.00000000   3       6  Si
   -1.54360444   -0.73308531    0.00000000   3       7  Si
   -3.15587710   -0.10130263    0.00000000   2       8  N
   -3.41922570    0.94693979    0.00000000   1       9  H
   -3.96224165   -0.77534880    0.00000000   1      10  H
   -0.19731765    0.39519116    0.00000000   2      11  N
    1.48042974   -0.04911595    0.00000000   3      12  Si
    2.42867240    1.11809514    0.00000000   1      13  H
    2.29903948   -1.58243082    0.00000000   2      14  N
    1.11223273   -2.85275070    0.00000000   3      15  Si
    0.62920148    7.22722261    0.00000000   1      16  H
   -0.19112490    6.55147122    0.00000000   2      17  N
   -1.83899922    7.27407078    0.00000000   3      18  Si
   -1.71060471    8.77530196    0.00000000   1      19  H
   -3.57204024    5.94526317    0.00000000   3      20  Si
   -5.91882789    5.90142825    0.00000000   3      21  Si
   -6.48160663    6.62504310   -1.20384575   1      22  H
   -6.19794649    4.41986218   -0.09142810   1      23  H
   -6.48162088    6.45340138    1.29016984   1      24  H
   -2.66057409    3.87190883    0.00000000   3      25  Si
   -3.60071216    2.58229717    0.00000000   4      26  O
   -0.88003394    3.68889372    0.00000000   2      27  N
   -0.54088645    2.66448381    0.00000000   1      28  H
    0.42741712    4.86952867    0.00000000   3      29  Si
    1.97918218    4.56029757    0.00000000   4      30  O

siesta: Eigenvalues (eV):
ik =     1
  -23.0438  -23.0438  -22.9219  -22.9219  -21.8792  -21.8792  -21.3070  -21.3070  -21.0036  -21.0036
  -20.2891  -20.2891  -19.4561  -19.4561  -19.2062  -19.2062  -18.7097  -18.7097  -15.2426  -15.2426
  -14.2844  -14.2844  -13.6279  -13.6279  -13.5854  -13.5854  -13.2932  -13.2932  -12.8695  -12.8695
  -12.4113  -12.4113  -12.0502  -12.0502  -11.8983  -11.8983  -11.5371  -11.5371  -11.4121  -11.4121
  -10.8642  -10.8642  -10.7458  -10.7458  -10.1992  -10.1992   -9.7470   -9.7470   -9.4797   -9.4797
   -9.3248   -9.3248   -9.1423   -9.1423   -9.0803   -9.0803   -8.8430   -8.8430   -8.7340   -8.7340
   -8.5247   -8.5247   -8.2832   -8.2832   -8.2163   -8.2163   -8.1964   -8.1964   -8.1199   -8.1199
   -7.8185   -7.8185   -7.5204   -7.5204   -7.3634   -7.3634   -7.3384   -7.3384   -6.9783   -6.9783
   -6.9640   -6.9640   -6.7330   -6.7330   -6.6804   -6.6804   -6.3229   -6.3229   -6.3029   -6.3029
   -5.9254   -5.9254   -5.7493   -5.7493   -5.5931   -5.5931   -4.1854   -4.1854   -3.6836   -3.6836
   -2.8752   -2.8752   -2.3617   -2.3617   -2.2792   -2.2792   -2.1884   -2.1884   -2.1461   -2.1461
   -2.0025   -2.0025   -1.7647   -1.7647   -1.7464   -1.7464   -1.5518   -1.5518   -1.4229   -1.4229
   -1.2058   -1.2058   -0.4776   -0.4776   -0.3538   -0.3538   -0.2860   -0.2860   -0.2059   -0.2059
   -0.1038   -0.1038   -0.0960   -0.0960    0.1256    0.1256    0.5527    0.5527    0.5667    0.5667
    0.6286    0.6286    0.8166    0.8166    1.2873    1.2873    1.2913    1.2913    1.4195    1.4195
    1.4343    1.4343    1.6997    1.6997    1.8825    1.8825    2.1378    2.1378    2.2844    2.2844
    2.4334    2.4334    2.6561    2.6561    2.8479    2.8479    3.0008    3.0008    3.0628    3.0628
    3.1029    3.1029    3.2136    3.2136    3.2461    3.2461    3.3322    3.3322    3.5574    3.5574
    3.9353    3.9353    4.0595    4.0595    4.2049    4.2049    4.3647    4.3647    4.3753    4.3753
    4.5850    4.5850    4.7698    4.7698    4.7748    4.7748    4.9688    4.9688    5.0759    5.0759
    5.3073    5.3073    5.5345    5.5345    5.5442    5.5442    5.7286    5.7286    5.7976    5.7976
    6.0660    6.0660    6.1659    6.1659    6.2153    6.2153    6.4668    6.4668    6.6401    6.6401
    6.7709    6.7709    6.8511    6.8511    6.9506    6.9506    7.2607    7.2607    7.2905    7.2905
    7.4841    7.4841    7.5268    7.5268    7.7319    7.7319    7.7859    7.7859    7.9879    7.9879
    8.4053    8.4053    8.4462    8.4462    8.5154    8.5154    8.6532    8.6532    8.7965    8.7965
    8.9853    8.9853    9.1555    9.1555    9.1602    9.1602    9.3866    9.3866    9.6951    9.6951
    9.7606    9.7606    9.8726    9.8726    9.9154    9.9154   10.0113   10.0113   10.1362   10.1362
   10.6979   10.6979   10.8561   10.8561   11.1165   11.1165   11.2204   11.2204   11.3143   11.3143
   11.4416   11.4416   11.5407   11.5407   11.7423   11.7423   11.8811   11.8811   11.9413   11.9413
   12.3175   12.3175   12.4097   12.4097   12.4894   12.4894   12.8532   12.8532   12.9814   12.9814
   13.0174   13.0174   13.1687   13.1687   13.3204   13.3204   13.6499   13.6499   13.9170   13.9170
   14.0077   14.0077   14.4598   14.4598   14.5732   14.5732   14.9569   14.9569   15.1343   15.1343
   15.2214   15.2214   15.5780   15.5780   15.6652   15.6652   15.9880   15.9880   16.4715   16.4715
   16.8661   16.8661   17.0550   17.0550   17.1460   17.1460   17.2284   17.2284   17.6343   17.6343
   18.2161   18.2161   18.5214   18.5214   18.5788   18.5788   18.7358   18.7358   18.8542   18.8542
   18.9124   18.9124   19.3173   19.3173   19.9006   19.9006   20.0481   20.0481   20.6803   20.6803
   20.8699   20.8699   21.6443   21.6443   21.9259   21.9259   22.2555   22.2555   22.4224   22.4224
   22.6429   22.6429   23.0325   23.0325   23.3107   23.3107   23.5207   23.5207   24.5419   24.5419
   24.8998   24.8998   25.0624   25.0624   25.2834   25.2834   25.9286   25.9286   26.2240   26.2240
   26.6193   26.6193   26.7361   26.7361   26.9629   26.9629   28.0707   28.0707   28.5636   28.5636
   29.1430   29.1430   29.7452   29.7452   30.0873   30.0873   30.8392   30.8392   30.8949   30.8949
   31.1924   31.1924   31.3642   31.3642   31.3896   31.3896   31.5496   31.5496   32.1350   32.1350
   32.5608   32.5608   32.9964   32.9964   33.5047   33.5047   34.1314   34.1314   34.3167   34.3167
   34.5592   34.5592   35.2353   35.2353   35.8761   35.8761   36.1802   36.1802   36.9869   36.9869
   37.1579   37.1579   37.2177   37.2177   37.4155   37.4155   38.4348   38.4348   38.6529   38.6529
   39.1907   39.1907   39.4805   39.4805   40.2764   40.2764   40.4568   40.4568   40.4866   40.4866
   41.3672   41.3672   41.5787   41.5787   41.6562   41.6562   42.8330   42.8330   43.1950   43.1950
   43.3547   43.3547   43.7699   43.7699   43.7734   43.7734   44.2796   44.2796   44.7244   44.7244
   44.8924   44.8924   45.4014   45.4014   45.9264   45.9264   46.5999   46.5999   46.6205   46.6205
   46.9052   46.9052   47.3652   47.3652   47.9966   47.9966   48.1458   48.1458   48.7373   48.7373
   49.1265   49.1265   49.3221   49.3221   50.1330   50.1330   50.1789   50.1789   50.2716   50.2716
   50.8288   50.8288   50.8895   50.8895   51.4610   51.4610   52.6519   52.6519   52.6995   52.6995
   53.6341   53.6342   54.1320   54.1320   55.1036   55.1036   55.3667   55.3667   56.0577   56.0577
   56.7662   56.7662   56.8198   56.8198   57.9900   57.9900   58.5261   58.5261   58.8917   58.8917
   58.9014   58.9014   60.1975   60.1975   60.9368   60.9368   61.0038   61.0038   61.5134   61.5134
   62.8464   62.8464   63.6267   63.6267   64.1174   64.1174   65.1057   65.1057   66.4059   66.4059
   67.3103   67.3103   68.1795   68.1795   68.4006   68.4006   68.9751   68.9751   70.7268   70.7268
   71.6853   71.6853   72.9098   72.9098   83.3523   83.3523   89.2633   89.2633   89.5711   89.5711
   93.3248   93.3248   95.7125   95.7125   96.6597   96.6597   98.4437   98.4437  100.4058  100.4058
  102.6139  102.6139  103.4807  103.4807  118.0695  118.0695  122.3202  122.3202  124.1632  124.1632
  138.7410  138.7410  147.3716  147.3716
siesta: Fermi energy =      -3.934498 eV

siesta: Program's energy decomposition (eV):
siesta: Ebs     =     -1118.009052
siesta: Eions   =      3553.971015
siesta: Ena     =       375.263845
siesta: Ekin    =      2748.222167
siesta: Enl     =     -2527.745958
siesta: Eso     =        -0.004703
siesta: Edftu   =         0.000000
siesta: DEna    =        37.477319
siesta: DUscf   =        13.684332
siesta: DUext   =         0.000000
siesta: Exc     =     -1092.601303
siesta: eta*DQ  =         0.000000
siesta: Emadel  =         0.000000
siesta: Emeta   =         0.000000
siesta: Emolmec =         0.000000
siesta: Ekinion =         0.000009
siesta: Eharris =     -3999.675305
siesta: Etot    =     -3999.675305
siesta: FreeEng =     -3999.675372

siesta: Final energy (eV):
siesta:  Band Struct. =   -1118.009052
siesta:       Kinetic =    2748.222167
siesta:       Hartree =    8176.011990
siesta:       Edftu   =       0.000000
siesta:       Eso     =      -0.004703
siesta:    Ext. field =       0.000000
siesta:   Exch.-corr. =   -1092.601303
siesta:  Ion-electron =  -18800.173007
siesta:       Ion-ion =    4968.869541
siesta:       Ekinion =       0.000009
siesta:         Total =   -3999.675305
siesta:         Fermi =      -3.934498

siesta: Atomic forces (eV/Ang):
siesta:      1   -0.000248   -0.000014   -0.000001
siesta:      2    0.000754   -0.000077   -0.000003
siesta:      3    0.004571   -0.002332   -0.000000
siesta:      4   -0.000504   -0.000057    0.000000
siesta:      5    0.004966   -0.004431   -0.000003
siesta:      6    0.001922   -0.004095   -0.000002
siesta:      7    0.000066   -0.003325   -0.000016
siesta:      8   -0.000312   -0.000100    0.000060
siesta:      9    0.000007   -0.000001   -0.000076
siesta:     10   -0.000024   -0.000013   -0.000009
siesta:     11   -0.001152   -0.000166    0.000009
siesta:     12   -0.000001    0.000205    0.000001
siesta:     13   -0.000037    0.000017    0.000001
siesta:     14    0.000506    0.001628   -0.000003
siesta:     15    0.003016   -0.000080    0.000013
siesta:     16    0.000004    0.000001   -0.001058
siesta:     17    0.000042   -0.000004   -0.000906
siesta:     18    0.000116    0.000007    0.006008
siesta:     19    0.000001    0.000002   -0.001579
siesta:     20    0.000243    0.000089   -0.000649
siesta:     21    0.000090    0.000412   -0.010748
siesta:     22   -0.000002    0.000003   -0.000004
siesta:     23    0.000011    0.000017    0.000007
siesta:     24   -0.000001    0.000003    0.000002
siesta:     25    0.000023   -0.000003    0.001289
siesta:     26    0.000002   -0.000028    0.000389
siesta:     27   -0.000015   -0.000015   -0.000639
siesta:     28    0.000004   -0.000015   -0.000121
siesta:     29    0.000060    0.000041   -0.000156
siesta:     30    0.000001    0.000003    0.000246
siesta: ----------------------------------------
siesta:    Tot    0.014106   -0.012327   -0.007949

siesta: Stress tensor (static) (eV/Ang**3):
siesta:    -0.000220    0.000139    0.000000
siesta:     0.000139   -0.000044   -0.000009
siesta:     0.000000   -0.000009   -0.000089

siesta: Cell volume =       4607.516273 Ang**3

siesta: Pressure (static):
siesta:                Solid            Molecule  Units
siesta:           0.00000128          0.00000122  Ry/Bohr**3
siesta:           0.00011774          0.00011180  eV/Ang**3
siesta:           0.18863798          0.17912582  kBar
(Free)E+ p_basis*V_orbitals  =       -3978.547296
(Free)Eharris+ p_basis*V_orbitals  =       -3978.547296
     spin moment: S , {S} =    0.00000  -0.00000   0.00000  -0.00000

siesta: Electric dipole (a.u.)  =   -1.311242    2.272604   -0.000249
siesta: Electric dipole (Debye) =   -3.332848    5.776387   -0.000633

cite: Please see "AT.bib" for an exhaustive BiBTeX file.
cite: Please clearly indicate Siesta version in published work: v4.1.5-1-g384057250
cite: This calculation has made use of the following articles
cite: which are encouraged to be cited in a published work.
        Primary SIESTA paper
          DOI: www.doi.org/10.1088/0953-8984/14/11/302
        Spin-orbit coupling (on-site approximation)
          DOI: www.doi.org/10.1088/0953-8984/19/19/489001


WARNING: alloc-realloc-dealloc name mismatch
         Name: atomlist isa
         Size:              -120. Bytes
         Node:     0
         Subsequent mismatches will not be reported
>> End of run:  17-OCT-2023  10:21:16
Job completed
