Siesta Version  : v4.1.5-1-g384057250
Architecture    : gcc
Compiler version: GNU Fortran (Ubuntu 11.4.0-1ubuntu1~22.04) 11.4.0
Compiler flags  : mpifort -O2 -fPIC -ftree-vectorize -fallow-argument-mismatch
PP flags        : -DFC_HAVE_ABORT -DMPI -DSIESTA__FLOOK -DSIESTA__METIS -DSIESTA__MUMPS -DCDF -DNCDF -DNCDF_4 -DNCDF_PARALLEL -DSIESTA__MRRR -DSIESTA__ELPA
Libraries       : libncdf.a libfdict.a  -lflookall -ldl -lnetcdff -lnetcdf -lhdf5_hl -lhdf5 -lhdf5_fortran -lz -lscalapack-openmpi -lopenblas -lmetis -lzmumps -lcmumps -ldmumps -lmumps_common -lpord -lsmumps -lesmumps -lscotch -lscotcherr -fopenmp -lelpa
PARALLEL version
NetCDF support
NetCDF-4 support
NetCDF-4 MPI-IO support
METIS ordering support
Lua support

* Running on 8 nodes in parallel
>> Start of run:   1-FEB-2024  20:36:59

                           ***********************       
                           *  WELCOME TO SIESTA  *       
                           ***********************       

reinit: Reading from standard input
reinit: Dumped input in INPUT_TMP.90147
************************** Dump of input data file ****************************
# mpirun -np 4 siesta-4.1.5 < AT.fdf > AT.out &
SystemLabel      AT
NumberOfAtoms    30
NumberOfSpecies  4
%block ChemicalSpeciesLabel
    1    1  H
    2    7  N
    3   14  Si
    4    8  O
%endblock ChemicalSpeciesLabel
############################################
# This overrides Defaults.fdf configuration
############################################
MD.TypeOfRun                Verlet # CG, Verlet
MD.Steps                    0
MaxSCFIterations            200
SCF.MustConverge            F
AtomicCoordinatesFormat NotScaledCartesianAng
%block AtomicCoordinatesAndAtomicSpecies
    2.28494382 -5.19529124 0.0  1  1  H
    1.37433094 -4.6647107 0.0  2  2  N
    -0.21830245 -5.49458215 0.0  3  3  Si
    -0.17484108 -6.98516892 0.0  1  4  H
    -1.66171682 -4.58600741 0.0  2  5  N
    -1.09026419 -2.87456374 0.0  3  6  Si
    -1.53038332 -0.70765692 0.0  3  7  Si
    -3.14415959 -0.09186471 0.0  2  8  N
    -3.40268075 0.95848335 0.0  1  9  H
    -3.95073599 -0.76720972 0.0  1  10  H
    -0.17836637 0.41349951 0.0  2  11  N
    1.49520211 -0.0473996 0.0  3  12  Si
    2.45603905 1.10727302 0.0  1  13  H
    2.30451743 -1.58574382 0.0  2  14  N
    1.10725559 -2.84610319 0.0  3  15  Si
    0.09819135095376308 10.932585036637573 0.0  1  16  H
    -0.7105193290462369 10.240379156637573 0.0  2  17  N
    -2.3671091690462367 10.953499256637572 0.0  3  18  Si
    -2.2702439990462366 12.464224466637571 0.0  1  19  H
    -4.093265519046237 9.610451126637571 0.0  3  20  Si
    -6.447719769046238 9.602464196637573 0.0  3  21  Si
    -7.010137889046238 10.336953846637572 -1.20183078  1  22  H
    -6.747533519046238 8.123373066637573 -0.08618332  1  23  H
    -7.0102503490462365 10.167296656637571 1.28814761  1  24  H
    -3.163874879046237 7.539879896637572 0.0  3  25  Si
    -4.113343239046237 6.2513437666375715 0.0  4  26  O
    -1.3729300090462369 7.366144426637572 0.0  2  27  N
    -1.0419386490462368 6.333787446637572 0.0  1  28  H
    -0.06447178904623696 8.560690846637572 0.0  3  29  Si
    1.501465140953763 8.293443996637572 0.0  4  30  O
%endblock AtomicCoordinatesAndAtomicSpecies
#############
# Unit Cell
#############
LatticeConstant 1.0 Ang
%block LatticeVectors
    30.00000    0.000000    0.000000
    0.000000    45.00000    0.000000
    0.000000    0.000000    10.00000
%endblock LatticeVectors
%include ../../../../Defaults.fdf
************************** End of input data file *****************************

reinit: -----------------------------------------------------------------------
reinit: System Name: 
reinit: -----------------------------------------------------------------------
reinit: System Label: AT
reinit: -----------------------------------------------------------------------

initatom: Reading input for the pseudopotentials and atomic orbitals ----------
Species number:   1 Atomic number:    1 Label: H
Species number:   2 Atomic number:    7 Label: N
Species number:   3 Atomic number:   14 Label: Si
Species number:   4 Atomic number:    8 Label: O

Ground state valence configuration:   1s01
Reading pseudopotential information in formatted form from H.psf

Pseudopotential generated from a relativistic atomic calculation

Valence configuration for pseudopotential generation:
1s( 1.00) rc: 0.01
2p( 0.00) rc: 0.60
3d( 0.00) rc: 1.99
4f( 0.00) rc: 2.49
Ground state valence configuration:   2s02  2p03
Reading pseudopotential information in formatted form from N.psf

Pseudopotential generated from a relativistic atomic calculation

Valence configuration for pseudopotential generation:
2s( 2.00) rc: 0.94
2p( 3.00) rc: 0.59
3d( 0.00) rc: 3.46
4f( 0.00) rc: 2.47
Ground state valence configuration:   3s02  3p02
Reading pseudopotential information in formatted form from Si.psf

Pseudopotential generated from a relativistic atomic calculation

Valence configuration for pseudopotential generation:
3s( 2.00) rc: 1.67
3p( 2.00) rc: 2.04
3d( 0.00) rc: 2.89
4f( 0.00) rc: 2.49
Ground state valence configuration:   2s02  2p04
Reading pseudopotential information in formatted form from O.psf

Pseudopotential generated from a relativistic atomic calculation

Valence configuration for pseudopotential generation:
2s( 2.00) rc: 0.45
2p( 4.00) rc: 0.92
3d( 0.00) rc: 2.24
4f( 0.00) rc: 0.25
For H, standard SIESTA heuristics set lmxkb to 2
 (one more than the basis l, including polarization orbitals).
Use PS.lmax or PS.KBprojectors blocks to override.
For N, standard SIESTA heuristics set lmxkb to 3
 (one more than the basis l, including polarization orbitals).
Use PS.lmax or PS.KBprojectors blocks to override.
For Si, standard SIESTA heuristics set lmxkb to 3
 (one more than the basis l, including polarization orbitals).
Use PS.lmax or PS.KBprojectors blocks to override.
For O, standard SIESTA heuristics set lmxkb to 3
 (one more than the basis l, including polarization orbitals).
Use PS.lmax or PS.KBprojectors blocks to override.

<basis_specs>
===============================================================================
H                    Z=   1    Mass=  1.0100        Charge= 0.17977+309
Lmxo=0 Lmxkb= 2    BasisType=split      Semic=F
L=0  Nsemic=0  Cnfigmx=1
          i=1  nzeta=2  polorb=1  (1s)
            splnorm:   0.62000    
               vcte:    0.0000    
               rinn:    0.0000    
               qcoe:    0.0000    
               qyuk:    0.0000    
               qwid:   0.10000E-01
                rcs:    0.0000      0.0000    
            lambdas:    1.0000      1.0000    
-------------------------------------------------------------------------------
L=0  Nkbl=1  erefs: 0.17977+309
L=1  Nkbl=1  erefs: 0.17977+309
L=2  Nkbl=1  erefs: 0.17977+309
===============================================================================
</basis_specs>

atom: Called for H                     (Z =   1)

read_vps: Pseudopotential generation method:
read_vps: ATM4.2.7  Troullier-Martins                       
Valence charge for ps generation:    1.00000

xc_check: Exchange-correlation functional:
xc_check: GGA Perdew, Burke & Ernzerhof 1996
V l=0 = -2*Zval/r beyond r=  0.0098
V l=1 = -2*Zval/r beyond r=  0.5817
V l=2 = -2*Zval/r beyond r=  1.9372
All V_l potentials equal beyond r=  1.9372
This should be close to max(r_c) in ps generation
All pots = -2*Zval/r beyond r=  1.9372

VLOCAL1: 99.0% of the norm of Vloc inside     11.567 Ry
VLOCAL1: 99.9% of the norm of Vloc inside     26.362 Ry
atom: Maximum radius for 4*pi*r*r*local-pseudopot. charge    2.25106
atom: Maximum radius for r*vlocal+2*Zval:    1.91306
GHOST: No ghost state for L =  0
GHOST: No ghost state for L =  1
GHOST: No ghost state for L =  2

KBgen: Kleinman-Bylander projectors: 
   l= 0   rc=  2.036604   el= -0.477180   Ekb= -6.081590   kbcos= -0.277285
   l= 1   rc=  2.195416   el=  0.001076   Ekb= -0.926943   kbcos= -0.034643
   l= 2   rc=  2.251056   el=  0.002010   Ekb= -0.130941   kbcos= -0.009788

KBgen: Total number of Kleinman-Bylander projectors:    9
atom: -------------------------------------------------------------------------

atom: SANKEY-TYPE ORBITALS:
atom: Selected multiple-zeta basis: split     

SPLIT: Orbitals with angular momentum L= 0

SPLIT: Basis orbitals for state 1s

SPLIT: PAO cut-off radius determined from an
SPLIT: energy shift=  0.002000 Ry

   izeta = 1
                 lambda =    1.000000
                     rc =    6.518340
                 energy =   -0.475305
                kinetic =    0.912139
    potential(screened) =   -1.387444
       potential(ionic) =   -1.907295

   izeta = 2
                 rmatch =    2.141150
              splitnorm =    0.620000
                 energy =    0.566467
                kinetic =    3.772856
    potential(screened) =   -3.206389
       potential(ionic) =   -3.759093

POLgen: Perturbative polarization orbital with L=  1

POLgen: Polarization orbital for state 1s

   izeta = 1
                     rc =    6.518340
                 energy =    0.533861
                kinetic =    1.121086
    potential(screened) =   -0.587225
       potential(ionic) =   -1.053027
atom: Total number of Sankey-type orbitals:  5

atm_pop: Valence configuration (for local Pseudopot. screening):
 1s( 1.00)                                                            
Vna: chval, zval:    1.00000   1.00000

Vna:  Cut-off radius for the neutral-atom potential:   6.518340

atom: _________________________________________________________________________

<basis_specs>
===============================================================================
N                    Z=   7    Mass=  14.010        Charge= 0.17977+309
Lmxo=1 Lmxkb= 3    BasisType=split      Semic=F
L=0  Nsemic=0  Cnfigmx=2
          i=1  nzeta=2  polorb=0  (2s)
            splnorm:   0.28000    
               vcte:    0.0000    
               rinn:    0.0000    
               qcoe:    0.0000    
               qyuk:    0.0000    
               qwid:   0.10000E-01
                rcs:    0.0000      0.0000    
            lambdas:    1.0000      1.0000    
L=1  Nsemic=0  Cnfigmx=2
          i=1  nzeta=2  polorb=1  (2p)
            splnorm:   0.28000    
               vcte:    0.0000    
               rinn:    0.0000    
               qcoe:    0.0000    
               qyuk:    0.0000    
               qwid:   0.10000E-01
                rcs:    0.0000      0.0000    
            lambdas:    1.0000      1.0000    
-------------------------------------------------------------------------------
L=0  Nkbl=1  erefs: 0.17977+309
L=1  Nkbl=1  erefs: 0.17977+309
L=2  Nkbl=1  erefs: 0.17977+309
L=3  Nkbl=1  erefs: 0.17977+309
===============================================================================
</basis_specs>

atom: Called for N                     (Z =   7)

read_vps: Pseudopotential generation method:
read_vps: ATM4.2.7  Troullier-Martins                       
Valence charge for ps generation:    5.00000

xc_check: Exchange-correlation functional:
xc_check: GGA Perdew, Burke & Ernzerhof 1996
V l=0 = -2*Zval/r beyond r=  1.2889
V l=1 = -2*Zval/r beyond r=  1.2889
V l=2 = -2*Zval/r beyond r=  3.4178
V l=3 = -2*Zval/r beyond r=  2.4084
All V_l potentials equal beyond r=  3.3753
This should be close to max(r_c) in ps generation
All pots = -2*Zval/r beyond r=  3.4178

VLOCAL1: 99.0% of the norm of Vloc inside      3.810 Ry
VLOCAL1: 99.9% of the norm of Vloc inside      8.683 Ry
atom: Maximum radius for 4*pi*r*r*local-pseudopot. charge    4.02088
atom: Maximum radius for r*vlocal+2*Zval:    3.54838
GHOST: No ghost state for L =  0
GHOST: No ghost state for L =  1
GHOST: No ghost state for L =  2
GHOST: No ghost state for L =  3

KBgen: Kleinman-Bylander projectors: 
   l= 0   rc=  3.417763   el= -1.365098   Ekb= -4.433130   kbcos= -0.707855
   l= 1   rc=  3.375302   el= -0.521201   Ekb=-13.264039   kbcos= -0.535594
   l= 2   rc=  3.872880   el=  0.001991   Ekb= -0.641094   kbcos= -0.062456
   l= 3   rc=  3.970931   el=  0.003093   Ekb= -0.474517   kbcos= -0.018236

KBgen: Total number of Kleinman-Bylander projectors:   16
atom: -------------------------------------------------------------------------

atom: SANKEY-TYPE ORBITALS:
atom: Selected multiple-zeta basis: split     

SPLIT: Orbitals with angular momentum L= 0

SPLIT: Basis orbitals for state 2s

SPLIT: PAO cut-off radius determined from an
SPLIT: energy shift=  0.002000 Ry

   izeta = 1
                 lambda =    1.000000
                     rc =    4.730425
                 energy =   -1.363399
                kinetic =    1.245246
    potential(screened) =   -2.608645
       potential(ionic) =   -8.121105

   izeta = 2
                 rmatch =    2.531849
              splitnorm =    0.280000
                 energy =   -0.959908
                kinetic =    2.409435
    potential(screened) =   -3.369343
       potential(ionic) =   -9.427975

SPLIT: Orbitals with angular momentum L= 1

SPLIT: Basis orbitals for state 2p

SPLIT: PAO cut-off radius determined from an
SPLIT: energy shift=  0.002000 Ry

   izeta = 1
                 lambda =    1.000000
                     rc =    5.924108
                 energy =   -0.519262
                kinetic =    3.672940
    potential(screened) =   -4.192202
       potential(ionic) =   -9.518354

   izeta = 2
                 rmatch =    2.531849
              splitnorm =    0.280000
                 energy =   -0.104258
                kinetic =    6.807538
    potential(screened) =   -6.911796
       potential(ionic) =  -13.149920

POLgen: Perturbative polarization orbital with L=  2

POLgen: Polarization orbital for state 2p

   izeta = 1
                     rc =    5.924108
                 energy =    1.427508
                kinetic =    2.872379
    potential(screened) =   -1.444871
       potential(ionic) =   -5.563644
atom: Total number of Sankey-type orbitals: 13

atm_pop: Valence configuration (for local Pseudopot. screening):
 2s( 2.00)                                                            
 2p( 3.00)                                                            
Vna: chval, zval:    5.00000   5.00000

Vna:  Cut-off radius for the neutral-atom potential:   5.924108

atom: _________________________________________________________________________

<basis_specs>
===============================================================================
Si                   Z=  14    Mass=  28.090        Charge= 0.17977+309
Lmxo=1 Lmxkb= 3    BasisType=split      Semic=F
L=0  Nsemic=0  Cnfigmx=3
          i=1  nzeta=2  polorb=0  (3s)
            splnorm:   0.28000    
               vcte:    0.0000    
               rinn:    0.0000    
               qcoe:    0.0000    
               qyuk:    0.0000    
               qwid:   0.10000E-01
                rcs:    0.0000      0.0000    
            lambdas:    1.0000      1.0000    
L=1  Nsemic=0  Cnfigmx=3
          i=1  nzeta=2  polorb=1  (3p)
            splnorm:   0.28000    
               vcte:    0.0000    
               rinn:    0.0000    
               qcoe:    0.0000    
               qyuk:    0.0000    
               qwid:   0.10000E-01
                rcs:    0.0000      0.0000    
            lambdas:    1.0000      1.0000    
-------------------------------------------------------------------------------
L=0  Nkbl=1  erefs: 0.17977+309
L=1  Nkbl=1  erefs: 0.17977+309
L=2  Nkbl=1  erefs: 0.17977+309
L=3  Nkbl=1  erefs: 0.17977+309
===============================================================================
</basis_specs>

atom: Called for Si                    (Z =  14)

read_vps: Pseudopotential generation method:
read_vps: ATM4.2.7  Troullier-Martins                       
Valence charge for ps generation:    4.00000

xc_check: Exchange-correlation functional:
xc_check: GGA Perdew, Burke & Ernzerhof 1996
V l=0 = -2*Zval/r beyond r=  2.7826
V l=1 = -2*Zval/r beyond r=  2.7826
V l=2 = -2*Zval/r beyond r=  2.9253
V l=3 = -2*Zval/r beyond r=  2.7826
All V_l potentials equal beyond r=  2.8530
This should be close to max(r_c) in ps generation
All pots = -2*Zval/r beyond r=  2.9253

VLOCAL1: 99.0% of the norm of Vloc inside      5.333 Ry
VLOCAL1: 99.9% of the norm of Vloc inside     12.154 Ry
atom: Maximum radius for 4*pi*r*r*local-pseudopot. charge    3.39869
atom: Maximum radius for r*vlocal+2*Zval:    2.96205
GHOST: No ghost state for L =  0
GHOST: No ghost state for L =  1
GHOST: No ghost state for L =  2
GHOST: No ghost state for L =  3

KBgen: Kleinman-Bylander projectors: 
   l= 0   rc=  3.075247   el= -0.794092   Ekb=  5.879390   kbcos=  0.167461
   l= 1   rc=  3.153101   el= -0.300068   Ekb=  2.642817   kbcos=  0.058301
   l= 2   rc=  3.273594   el=  0.001958   Ekb= -1.185135   kbcos= -0.104411
   l= 3   rc=  3.232927   el=  0.003046   Ekb= -0.497174   kbcos= -0.015889

KBgen: Total number of Kleinman-Bylander projectors:   16
atom: -------------------------------------------------------------------------

atom: SANKEY-TYPE ORBITALS:
atom: Selected multiple-zeta basis: split     

SPLIT: Orbitals with angular momentum L= 0

SPLIT: Basis orbitals for state 3s

SPLIT: PAO cut-off radius determined from an
SPLIT: energy shift=  0.002000 Ry

   izeta = 1
                 lambda =    1.000000
                     rc =    6.429618
                 energy =   -0.792283
                kinetic =    0.525293
    potential(screened) =   -1.317576
       potential(ionic) =   -3.744923

   izeta = 2
                 rmatch =    3.998416
              splitnorm =    0.280000
                 energy =   -0.583081
                kinetic =    1.069570
    potential(screened) =   -1.652651
       potential(ionic) =   -4.235185

SPLIT: Orbitals with angular momentum L= 1

SPLIT: Basis orbitals for state 3p

SPLIT: PAO cut-off radius determined from an
SPLIT: energy shift=  0.002000 Ry

   izeta = 1
                 lambda =    1.000000
                     rc =    8.464845
                 energy =   -0.298236
                kinetic =    0.785360
    potential(screened) =   -1.083596
       potential(ionic) =   -3.273779

   izeta = 2
                 rmatch =    4.587816
              splitnorm =    0.280000
                 energy =   -0.131871
                kinetic =    1.403687
    potential(screened) =   -1.535557
       potential(ionic) =   -4.015310

POLgen: Perturbative polarization orbital with L=  2

POLgen: Polarization orbital for state 3p

   izeta = 1
                     rc =    8.464845
                 energy =    0.321949
                kinetic =    1.055677
    potential(screened) =   -0.733728
       potential(ionic) =   -2.672950
atom: Total number of Sankey-type orbitals: 13

atm_pop: Valence configuration (for local Pseudopot. screening):
 3s( 2.00)                                                            
 3p( 2.00)                                                            
Vna: chval, zval:    4.00000   4.00000

Vna:  Cut-off radius for the neutral-atom potential:   8.464845

atom: _________________________________________________________________________

<basis_specs>
===============================================================================
O                    Z=   8    Mass=  16.000        Charge= 0.17977+309
Lmxo=1 Lmxkb= 3    BasisType=split      Semic=F
L=0  Nsemic=0  Cnfigmx=2
          i=1  nzeta=2  polorb=0  (2s)
            splnorm:   0.28000    
               vcte:    0.0000    
               rinn:    0.0000    
               qcoe:    0.0000    
               qyuk:    0.0000    
               qwid:   0.10000E-01
                rcs:    0.0000      0.0000    
            lambdas:    1.0000      1.0000    
L=1  Nsemic=0  Cnfigmx=2
          i=1  nzeta=2  polorb=1  (2p)
            splnorm:   0.28000    
               vcte:    0.0000    
               rinn:    0.0000    
               qcoe:    0.0000    
               qyuk:    0.0000    
               qwid:   0.10000E-01
                rcs:    0.0000      0.0000    
            lambdas:    1.0000      1.0000    
-------------------------------------------------------------------------------
L=0  Nkbl=1  erefs: 0.17977+309
L=1  Nkbl=1  erefs: 0.17977+309
L=2  Nkbl=1  erefs: 0.17977+309
L=3  Nkbl=1  erefs: 0.17977+309
===============================================================================
</basis_specs>

atom: Called for O                     (Z =   8)

read_vps: Pseudopotential generation method:
read_vps: ATM4.2.7  Troullier-Martins                       
Valence charge for ps generation:    6.00000

xc_check: Exchange-correlation functional:
xc_check: GGA Perdew, Burke & Ernzerhof 1996
V l=0 = -2*Zval/r beyond r=  1.1000
V l=1 = -2*Zval/r beyond r=  1.1000
V l=2 = -2*Zval/r beyond r=  2.2154
V l=3 = -2*Zval/r beyond r=  1.1000
All V_l potentials equal beyond r=  2.2154
This should be close to max(r_c) in ps generation
All pots = -2*Zval/r beyond r=  2.2154

VLOCAL1: 99.0% of the norm of Vloc inside      8.845 Ry
VLOCAL1: 99.9% of the norm of Vloc inside     20.157 Ry
atom: Maximum radius for 4*pi*r*r*local-pseudopot. charge    2.67231
atom: Maximum radius for r*vlocal+2*Zval:    2.32897
GHOST: No ghost state for L =  0
GHOST: No ghost state for L =  1
GHOST: No ghost state for L =  2
GHOST: No ghost state for L =  3

KBgen: Kleinman-Bylander projectors: 
   l= 0   rc=  2.243238   el= -1.759686   Ekb=**********   kbcos= -0.171774
   l= 1   rc=  2.328968   el= -0.663873   Ekb=-14.506792   kbcos= -0.519897
   l= 2   rc=  2.573941   el=  0.002031   Ekb= -1.137373   kbcos= -0.019581
   l= 3   rc=  2.606321   el=  0.003153   Ekb= -1.013546   kbcos= -0.003122

KBgen: Total number of Kleinman-Bylander projectors:   16
atom: -------------------------------------------------------------------------

atom: SANKEY-TYPE ORBITALS:
atom: Selected multiple-zeta basis: split     

SPLIT: Orbitals with angular momentum L= 0

SPLIT: Basis orbitals for state 2s

SPLIT: PAO cut-off radius determined from an
SPLIT: energy shift=  0.002000 Ry

   izeta = 1
                 lambda =    1.000000
                     rc =    4.243912
                 energy =   -1.758270
                kinetic =    3.286084
    potential(screened) =   -5.044353
       potential(ionic) =  -12.921184

   izeta = 2
                 rmatch =    2.187845
              splitnorm =    0.280000
                 energy =   -0.885018
                kinetic =    8.134434
    potential(screened) =   -9.019452
       potential(ionic) =  -17.710645

SPLIT: Orbitals with angular momentum L= 1

SPLIT: Basis orbitals for state 2p

SPLIT: PAO cut-off radius determined from an
SPLIT: energy shift=  0.002000 Ry

   izeta = 1
                 lambda =    1.000000
                     rc =    5.314825
                 energy =   -0.661986
                kinetic =    4.917472
    potential(screened) =   -5.579458
       potential(ionic) =  -13.236259

   izeta = 2
                 rmatch =    2.160663
              splitnorm =    0.280000
                 energy =   -0.068760
                kinetic =    9.183374
    potential(screened) =   -9.252135
       potential(ionic) =  -18.274251

POLgen: Perturbative polarization orbital with L=  2

POLgen: Polarization orbital for state 2p

   izeta = 1
                     rc =    5.314825
                 energy =    1.970580
                kinetic =    3.886128
    potential(screened) =   -1.915547
       potential(ionic) =   -7.749584
atom: Total number of Sankey-type orbitals: 13

atm_pop: Valence configuration (for local Pseudopot. screening):
 2s( 2.00)                                                            
 2p( 4.00)                                                            
Vna: chval, zval:    6.00000   6.00000

Vna:  Cut-off radius for the neutral-atom potential:   5.314825

atom: _________________________________________________________________________

prinput: Basis input ----------------------------------------------------------

PAO.BasisType split     

%block ChemicalSpeciesLabel
    1    1 H                       # Species index, atomic number, species label
    2    7 N                       # Species index, atomic number, species label
    3   14 Si                      # Species index, atomic number, species label
    4    8 O                       # Species index, atomic number, species label
%endblock ChemicalSpeciesLabel

%block PAO.Basis                 # Define Basis set
H                     1                    # Species label, number of l-shells
 n=1   0   2 P   1                   # n, l, Nzeta, Polarization, NzetaPol
   6.518      2.141   
   1.000      1.000   
N                     2                    # Species label, number of l-shells
 n=2   0   2                         # n, l, Nzeta 
   4.730      2.532   
   1.000      1.000   
 n=2   1   2 P   1                   # n, l, Nzeta, Polarization, NzetaPol
   5.924      2.532   
   1.000      1.000   
Si                    2                    # Species label, number of l-shells
 n=3   0   2                         # n, l, Nzeta 
   6.430      3.998   
   1.000      1.000   
 n=3   1   2 P   1                   # n, l, Nzeta, Polarization, NzetaPol
   8.465      4.588   
   1.000      1.000   
O                     2                    # Species label, number of l-shells
 n=2   0   2                         # n, l, Nzeta 
   4.244      2.188   
   1.000      1.000   
 n=2   1   2 P   1                   # n, l, Nzeta, Polarization, NzetaPol
   5.315      2.161   
   1.000      1.000   
%endblock PAO.Basis

prinput: ----------------------------------------------------------------------

Dumping basis to NetCDF file H.ion.nc
Dumping basis to NetCDF file N.ion.nc
Dumping basis to NetCDF file Si.ion.nc
Dumping basis to NetCDF file O.ion.nc
coor:   Atomic-coordinates input format  =     Cartesian coordinates
coor:                                          (in Angstroms)

siesta: Atomic coordinates (Bohr) and species
siesta:      4.31792  -9.81768   0.00000  1        1
siesta:      2.59711  -8.81503   0.00000  2        2
siesta:     -0.41253 -10.38326   0.00000  3        3
siesta:     -0.33040 -13.20006   0.00000  1        4
siesta:     -3.14019  -8.66630   0.00000  2        5
siesta:     -2.06030  -5.43214   0.00000  3        6
siesta:     -2.89201  -1.33728   0.00000  3        7
siesta:     -5.94160  -0.17360   0.00000  2        8
siesta:     -6.43014   1.81127   0.00000  1        9
siesta:     -7.46581  -1.44982   0.00000  1       10
siesta:     -0.33706   0.78140   0.00000  2       11
siesta:      2.82552  -0.08957   0.00000  3       12
siesta:      4.64124   2.09244   0.00000  1       13
siesta:      4.35491  -2.99662   0.00000  2       14
siesta:      2.09241  -5.37836   0.00000  3       15
siesta:      0.18555  20.65960   0.00000  1       16
siesta:     -1.34269  19.35152   0.00000  2       17
siesta:     -4.47319  20.69912   0.00000  3       18
siesta:     -4.29014  23.55398   0.00000  1       19
siesta:     -7.73515  18.16113   0.00000  3       20
siesta:    -12.18443  18.14603   0.00000  3       21
siesta:    -13.24725  19.53402  -2.27113  1       22
siesta:    -12.75100  15.35096  -0.16286  1       23
siesta:    -13.24746  19.21341   2.43425  1       24
siesta:     -5.97886  14.24831   0.00000  3       25
siesta:     -7.77310  11.81333   0.00000  4       26
siesta:     -2.59446  13.92000   0.00000  2       27
siesta:     -1.96898  11.96913   0.00000  1       28
siesta:     -0.12183  16.17737   0.00000  3       29
siesta:      2.83736  15.67234   0.00000  4       30

siesta: System type = molecule  

initatomlists: Number of atoms, orbitals, and projectors:     30   302   403

siesta: ******************** Simulation parameters ****************************
siesta:
siesta: The following are some of the parameters of the simulation.
siesta: A complete list of the parameters used, including default values,
siesta: can be found in file out.fdf
siesta:
redata: Spin configuration                          = spin-orbit
redata: Number of spin components                   = 8
redata: Time-Reversal Symmetry                      = F
redata: Spin spiral                                 = F
############################################################
This spin-orbit implementation uses a local approximation.
From 4.2 and onwards the full non-local approximation is implemented
You are strongly advised to use >=4.2 versions!
############################################################
redata: Long output                                 =   F
redata: Number of Atomic Species                    =        4
redata: Charge density info will appear in .RHO file
redata: Write Mulliken Pop.                         = NO
redata: Matel table size (NRTAB)                    =     1024
redata: Mesh Cutoff                                 =   340.0000 Ry
redata: Net charge of the system                    =     0.0000 |e|
redata: Min. number of SCF Iter                     =        1
redata: Max. number of SCF Iter                     =      200
redata: SCF mix quantity                            = Hamiltonian
redata: Mix DM or H after convergence               =   F
redata: Recompute H after scf cycle                 =   F
redata: Mix DM in first SCF step                    =   T
redata: Write Pulay info on disk                    =   F
redata: New DM Occupancy tolerance                  = 0.000000000001
redata: No kicks to SCF
redata: DM Mixing Weight for Kicks                  =     0.5000
redata: Require Harris convergence for SCF          =   F
redata: Harris energy tolerance for SCF             =     0.000100 eV
redata: Require DM convergence for SCF              =   T
redata: DM tolerance for SCF                        =     0.000008
redata: Require EDM convergence for SCF             =   F
redata: EDM tolerance for SCF                       =     0.001000 eV
redata: Require H convergence for SCF               =   T
redata: Hamiltonian tolerance for SCF               =     0.000001 eV
redata: Require (free) Energy convergence for SCF   =   F
redata: (free) Energy tolerance for SCF             =     0.000100 eV
redata: Using Saved Data (generic)                  =   F
redata: Use continuation files for DM               =   T
redata: Neglect nonoverlap interactions             =   F
redata: Method of Calculation                       = Diagonalization
redata: Electronic Temperature                      =   299.9978 K
redata: Fix the spin of the system                  =   F
redata: Dynamics option                             = Verlet MD run
redata: Initial MD time step                        =        1
redata:   Final MD time step                        =        1
redata: Length of MD time step                      =     0.5000 fs
redata: Initial Temperature of MD run               =     0.0000 K
redata: Perform a MD quench                         =   F
mix.SCF: Pulay mixing                            = Pulay
mix.SCF:    Variant                              = stable
mix.SCF:    History steps                        = 6
mix.SCF:    Linear mixing weight                 =     0.250000
mix.SCF:    Mixing weight                        =     0.250000
mix.SCF:    SVD condition                        = 0.1000E-07
mix.SCF:    Restart steps                        = 24
mix.SCF:    Restart save steps                   = 3
mix.SCF: Spin-component mixing                   all
redata: Save all siesta data in one NC              =   F
redata: ***********************************************************************

%block SCF.Mixers
  Pulay
%endblock SCF.Mixers

%block SCF.Mixer.Pulay
  # Mixing method
  method pulay
  variant stable

  # Mixing options
  weight 0.2500
  weight.linear 0.2500
  history 6
  restart 24
  restart.save 3
%endblock SCF.Mixer.Pulay

Size of DM history Fstack: 3
Total number of electrons:    98.000000
Total ionic charge:    98.000000

* ProcessorY, Blocksize:    2  24


* Orbital distribution balance (max,min):    48    24


Time-reversal symmetry not used.

siesta: k-grid: Number of k-points =     1
siesta: k-grid: Cutoff (effective) =     5.000 Ang
siesta: k-grid: Supercell and displacements
siesta: k-grid:    1   0   0      0.000
siesta: k-grid:    0   1   0      0.000
siesta: k-grid:    0   0   1      0.000

diag: Algorithm                                     = ELPA-1stage
diag: Parallel over k                               =   F
diag: Use parallel 2D distribution                  =   T
diag: Parallel block-size                           = 24
diag: Parallel distribution                         =     2 x     4
diag: Used triangular part                          = Lower
diag: Absolute tolerance                            =  0.100E-15
diag: Orthogonalization factor                      =  0.100E-05
diag: Memory factor                                 =  1.0000


ts: **************************************************************
ts: Save H and S matrices                           =    F
ts: Save DM and EDM matrices                        =    F
ts: Only save the overlap matrix S                  =    F
ts: **************************************************************

************************ Begin: TS CHECKS AND WARNINGS ************************
************************ End: TS CHECKS AND WARNINGS **************************


                     ====================================
                        Begin MD step =      1
                     ====================================

outcoor: Atomic coordinates (Ang):                          
    2.28494382   -5.19529124    0.00000000   1       1  H
    1.37433094   -4.66471070    0.00000000   2       2  N
   -0.21830245   -5.49458215    0.00000000   3       3  Si
   -0.17484108   -6.98516892    0.00000000   1       4  H
   -1.66171682   -4.58600741    0.00000000   2       5  N
   -1.09026419   -2.87456374    0.00000000   3       6  Si
   -1.53038332   -0.70765692    0.00000000   3       7  Si
   -3.14415959   -0.09186471    0.00000000   2       8  N
   -3.40268075    0.95848335    0.00000000   1       9  H
   -3.95073599   -0.76720972    0.00000000   1      10  H
   -0.17836637    0.41349951    0.00000000   2      11  N
    1.49520211   -0.04739960    0.00000000   3      12  Si
    2.45603905    1.10727302    0.00000000   1      13  H
    2.30451743   -1.58574382    0.00000000   2      14  N
    1.10725559   -2.84610319    0.00000000   3      15  Si
    0.09819135   10.93258504    0.00000000   1      16  H
   -0.71051933   10.24037916    0.00000000   2      17  N
   -2.36710917   10.95349926    0.00000000   3      18  Si
   -2.27024400   12.46422447    0.00000000   1      19  H
   -4.09326552    9.61045113    0.00000000   3      20  Si
   -6.44771977    9.60246420    0.00000000   3      21  Si
   -7.01013789   10.33695385   -1.20183078   1      22  H
   -6.74753352    8.12337307   -0.08618332   1      23  H
   -7.01025035   10.16729666    1.28814761   1      24  H
   -3.16387488    7.53987990    0.00000000   3      25  Si
   -4.11334324    6.25134377    0.00000000   4      26  O
   -1.37293001    7.36614443    0.00000000   2      27  N
   -1.04193865    6.33378745    0.00000000   1      28  H
   -0.06447179    8.56069085    0.00000000   3      29  Si
    1.50146514    8.29344400    0.00000000   4      30  O

outcell: Unit cell vectors (Ang):
       30.000000    0.000000    0.000000
        0.000000   45.000000    0.000000
        0.000000    0.000000   10.000000

outcell: Cell vector modules (Ang)   :   30.000000   45.000000   10.000000
outcell: Cell angles (23,13,12) (deg):     90.0000     90.0000     90.0000
outcell: Cell volume (Ang**3)        :  13500.0000
<dSpData1D:S at geom step 1
  <sparsity:sparsity for geom step 1
    nrows_g=302 nrows=48 sparsity=.0767 nnzs=6994, refcount: 8>
  <dData1D:(new from dSpData1D) n=6994, refcount: 1>
refcount: 1>
new_DM -- step:     1
Initializing Density Matrix...

Attempting to read DM from file... Failed...
DM filled with atomic data:
<dSpData2D:DM initialized from atoms
  <sparsity:sparsity for geom step 1
    nrows_g=302 nrows=48 sparsity=.0767 nnzs=6994, refcount: 9>
  <dData2D:DM n=6994 m=8, refcount: 1>
refcount: 1>
     spin moment: S , {S} =   56.00000   0.00000   0.00000  56.00000
No. of atoms with KB's overlaping orbs in proc 0. Max # of overlaps:      27     134

Initializing spin-orbit part of the Hamiltonian
  Adding spin-orbit effects for H 
  Adding spin-orbit effects for N 
  Adding spin-orbit effects for Si
  Adding spin-orbit effects for O 


New grid distribution:   1
           1       1:  180    1:  125    1:   15
           2       1:  180    1:  125   16:   30
           3       1:  180    1:  125   31:   45
           4       1:  180    1:  125   46:   60
           5       1:  180  126:  250    1:   15
           6       1:  180  126:  250   16:   30
           7       1:  180  126:  250   31:   45
           8       1:  180  126:  250   46:   60

InitMesh: MESH =   360 x   500 x   120 =    21600000
InitMesh: (bp) =   180 x   250 x    60 =     2700000
InitMesh: Mesh cutoff (required, used) =   340.000   341.206 Ry
ExtMesh (bp) on 0 =   288 x   225 x   123 =     7970400
New grid distribution:   2
           1       1:  158    1:   45    1:   60
           2       1:  151  233:  250    1:   60
           3       1:  158   46:   62    1:   60
           4     159:  180   46:   62    1:   60
           5       1:  151   63:  232    1:   60
           6     152:  180   63:  231    1:   60
           7     159:  180    1:   45    1:   60
           8     152:  180  232:  250    1:   60
New grid distribution:   3
           1       1:  143    1:   40    1:   60
           2       1:  146  221:  250    1:   60
           3       1:  143   41:   62    1:   60
           4     144:  180   37:   62    1:   60
           5       1:  146   63:  220    1:   60
           6     147:  180   63:  216    1:   60
           7     144:  180    1:   36    1:   60
           8     147:  180  217:  250    1:   60
Setting up quadratic distribution...
ExtMesh (bp) on 0 =   266 x   145 x   168 =     6479760
PhiOnMesh: Number of (b)points on node 0 =               426600
PhiOnMesh: nlist on node 0 =              1734028

stepf: Fermi-Dirac step function

siesta: Program's energy decomposition (eV):
siesta: Ebs     =      -625.284603
siesta: Eions   =      3553.971015
siesta: Ena     =       374.984508
siesta: Ekin    =      3171.182037
siesta: Enl     =     -2984.575407
siesta: Eso     =        -0.003883
siesta: Edftu   =         0.000000
siesta: DEna    =       129.720446
siesta: DUscf   =        75.681237
siesta: DUext   =         0.000000
siesta: Exc     =     -1168.625378
siesta: eta*DQ  =         0.000000
siesta: Emadel  =         0.000000
siesta: Emeta   =         0.000000
siesta: Emolmec =         0.000000
siesta: Ekinion =         0.000000
siesta: Eharris =     -3884.521598
siesta: Etot    =     -3955.607455
siesta: FreeEng =     -3955.610752

        iscf     Eharris(eV)        E_KS(eV)     FreeEng(eV)     dDmax    Ef(eV) dHmax(eV)
   scf:    1    -3884.521598    -3955.607455    -3955.610752  0.970528 -4.935198 21.602299
     spin moment: S , {S} =    2.02339  -0.00000  -0.00000   2.02339
timer: Routine,Calls,Time,% = IterSCF        1      17.576  30.25
   scf:    2    -3995.218928    -3988.387121    -3988.387129  0.465983 -4.249755 11.910169
     spin moment: S , {S} =    2.00009   0.00000  -0.00000   2.00009
   scf:    3    -3956.096136    -3984.997110    -3985.028573  0.422561 -4.200819 12.581425
     spin moment: S , {S} =    1.99660  -0.00000  -0.00001   1.99660
   scf:    4    -4002.395677    -3997.228568    -3997.228568  0.211036 -3.862929  6.200908
     spin moment: S , {S} =    0.00010  -0.00000   0.00000   0.00010
   scf:    5    -3998.644214    -3998.008699    -3998.008699  0.038076 -3.741714  4.033179
     spin moment: S , {S} =    0.00006  -0.00000   0.00000   0.00006
   scf:    6    -3998.814772    -3998.410702    -3998.410702  0.027103 -3.718456  1.880626
     spin moment: S , {S} =    0.00003  -0.00000   0.00000   0.00003
   scf:    7    -3998.796017    -3998.597685    -3998.597685  0.022434 -3.791670  0.774784
     spin moment: S , {S} =    0.00001  -0.00000   0.00000   0.00001
   scf:    8    -3998.727912    -3998.660651    -3998.660651  0.012354 -3.815038  0.520374
     spin moment: S , {S} =    0.00000  -0.00000   0.00000   0.00000
   scf:    9    -3998.711429    -3998.684905    -3998.684905  0.007221 -3.832470  0.413078
     spin moment: S , {S} =    0.00000  -0.00000   0.00000   0.00000
   scf:   10    -3998.746682    -3998.705022    -3998.705023  0.025221 -3.865028  0.227174
     spin moment: S , {S} =    0.00000  -0.00000  -0.00000  -0.00000
   scf:   11    -3998.711069    -3998.708222    -3998.708223  0.004262 -3.849192  0.085082
     spin moment: S , {S} =    0.00000  -0.00000  -0.00000  -0.00000
   scf:   12    -3998.709461    -3998.708874    -3998.708875  0.001173 -3.845796  0.049249
     spin moment: S , {S} =    0.00000   0.00000  -0.00000   0.00000
   scf:   13    -3998.709897    -3998.709376    -3998.709377  0.001101 -3.843486  0.026743
     spin moment: S , {S} =    0.00000   0.00000  -0.00000   0.00000
   scf:   14    -3998.709836    -3998.709597    -3998.709598  0.000843 -3.842400  0.016775
     spin moment: S , {S} =    0.00000   0.00000  -0.00000   0.00000
   scf:   15    -3998.709801    -3998.709693    -3998.709694  0.000590 -3.842015  0.009637
     spin moment: S , {S} =    0.00000   0.00000  -0.00000   0.00000
   scf:   16    -3998.709776    -3998.709731    -3998.709732  0.000453 -3.841957  0.003946
     spin moment: S , {S} =    0.00000   0.00000  -0.00000   0.00000
   scf:   17    -3998.709744    -3998.709737    -3998.709738  0.000151 -3.842124  0.002267
     spin moment: S , {S} =    0.00000   0.00000   0.00000   0.00000
   scf:   18    -3998.709744    -3998.709740    -3998.709741  0.000131 -3.842248  0.001274
     spin moment: S , {S} =    0.00000   0.00000   0.00000   0.00000
   scf:   19    -3998.709742    -3998.709741    -3998.709742  0.000080 -3.842286  0.000918
     spin moment: S , {S} =    0.00000   0.00000   0.00000   0.00000
   scf:   20    -3998.709742    -3998.709742    -3998.709743  0.000037 -3.842310  0.000619
     spin moment: S , {S} =    0.00000   0.00000   0.00000   0.00000
   scf:   21    -3998.709742    -3998.709742    -3998.709743  0.000034 -3.842320  0.000449
     spin moment: S , {S} =    0.00000   0.00000   0.00000   0.00000
   scf:   22    -3998.709742    -3998.709742    -3998.709743  0.000042 -3.842337  0.000219
     spin moment: S , {S} =    0.00000   0.00000   0.00000   0.00000
   scf:   23    -3998.709742    -3998.709742    -3998.709743  0.000020 -3.842340  0.000163
     spin moment: S , {S} =    0.00000   0.00000   0.00000   0.00000
   scf:   24    -3998.709742    -3998.709742    -3998.709743  0.000017 -3.842340  0.000085
     spin moment: S , {S} =    0.00000   0.00000   0.00000   0.00000
mix: Pulay -- resetting history
   scf:   25    -3998.709742    -3998.709742    -3998.709743  0.000013 -3.842336  0.000041
     spin moment: S , {S} =    0.00000   0.00000   0.00000   0.00000
   scf:   26    -3998.709742    -3998.709742    -3998.709743  0.000005 -3.842334  0.000025
     spin moment: S , {S} =    0.00000   0.00000   0.00000   0.00000
   scf:   27    -3998.709742    -3998.709742    -3998.709743  0.000003 -3.842333  0.000015
     spin moment: S , {S} =    0.00000   0.00000   0.00000   0.00000
   scf:   28    -3998.709742    -3998.709742    -3998.709743  0.000003 -3.842333  0.000008
     spin moment: S , {S} =    0.00000   0.00000   0.00000   0.00000
   scf:   29    -3998.709742    -3998.709742    -3998.709743  0.000001 -3.842334  0.000006
     spin moment: S , {S} =    0.00000   0.00000   0.00000   0.00000
   scf:   30    -3998.709742    -3998.709742    -3998.709743  0.000001 -3.842334  0.000003
     spin moment: S , {S} =    0.00000  -0.00000   0.00000   0.00000
   scf:   31    -3998.709742    -3998.709742    -3998.709743  0.000000 -3.842334  0.000003
     spin moment: S , {S} =    0.00000  -0.00000   0.00000   0.00000
   scf:   32    -3998.709742    -3998.709742    -3998.709743  0.000000 -3.842333  0.000002
     spin moment: S , {S} =    0.00000  -0.00000   0.00000   0.00000
   scf:   33    -3998.709742    -3998.709742    -3998.709743  0.000000 -3.842333  0.000001
     spin moment: S , {S} =    0.00000  -0.00000   0.00000   0.00000

SCF Convergence by DM+H criterion
max |DM_out - DM_in|         :     0.0000001541
max |H_out - H_in|      (eV) :     0.0000008346
SCF cycle converged after 33 iterations

Using DM_out to compute the final energy and forces
No. of atoms with KB's overlaping orbs in proc 0. Max # of overlaps:      27     134

siesta: E_KS(eV) =            -3998.7097

siesta: E_KS - E_eggbox =     -3998.7097
     spin moment: S , {S} =    0.00000  -0.00000   0.00000   0.00000

siesta: Atomic forces (eV/Ang):
     1    0.143089   -0.027440   -0.000000
     2   -0.034971    0.043522    0.000000
     3   -0.030993   -0.017824   -0.000000
     4    0.068500   -0.134427   -0.000000
     5    0.054177    0.005302   -0.000000
     6   -0.192023    0.018482    0.000000
     7    1.065957   -0.040164   -0.000000
     8   -0.651417    1.414995    0.000000
     9    0.168197   -1.010040   -0.000001
    10   -0.111000    0.135063    0.000000
    11   -0.190127   -0.373660    0.000000
    12   -0.280777    0.047524   -0.000000
    13   -0.123008   -0.051488    0.000000
    14    0.031977   -0.117062   -0.000000
    15    0.110071    0.095823   -0.000000
    16   -0.104959   -0.069986   -0.000949
    17    0.038549   -0.094633   -0.000793
    18   -0.149950    0.038390    0.005206
    19    0.089870   -0.119918   -0.001429
    20    0.122681    0.079150   -0.001068
    21    0.056392   -0.026290   -0.006956
    22    0.083114    0.028130    0.132889
    23    0.010939   -0.030518   -0.005630
    24    0.078881    0.054053   -0.103699
    25   -0.650679   -0.410545    0.001040
    26    2.813671   -1.468906    0.000515
    27    0.356239   -0.448956   -0.000553
    28   -0.169192    0.706014   -0.000072
    29    0.145000    0.173765   -0.000223
    30   -0.681626   -2.500306    0.000260
----------------------------------------
   Tot    2.066583   -4.101951    0.018539
----------------------------------------
   Max    2.813671
   Res    0.510733    sqrt( Sum f_i^2 / 3N )
----------------------------------------
   Max    2.813671    constrained

Stress tensor Voigt[x,y,z,yz,xz,xy] (kbar):        0.11        0.31       -0.01       -0.01        0.00        0.12
(Free)E + p*V (eV/cell)    -3999.8655
Target enthalpy (eV/cell)    -3998.7097

siesta: Stress tensor (static) (eV/Ang**3):
         0.000070    0.000077    0.000000
         0.000077    0.000192   -0.000004
         0.000000   -0.000004   -0.000005

siesta: Pressure (static):         -0.13716614  kBar

siesta: Stress tensor (total) (eV/Ang**3):
         0.000070    0.000077    0.000000
         0.000077    0.000192   -0.000004
         0.000000   -0.000004   -0.000005

siesta: Pressure (total):         -0.13716614  kBar

siesta: Temp_ion =       0.000 K

siesta: Eigenvalues (eV):
ik =     1
  -22.8443  -22.8443  -22.3178  -22.3178  -21.7173  -21.7173  -21.2694  -21.2694  -21.0179  -21.0179
  -20.9336  -20.9336  -19.3947  -19.3947  -19.2307  -19.2307  -18.6080  -18.6080  -15.0111  -15.0111
  -14.0991  -14.0991  -13.6444  -13.6444  -13.5607  -13.5607  -13.0647  -13.0647  -12.8859  -12.8859
  -12.5300  -12.5300  -12.1544  -12.1544  -11.8990  -11.8990  -11.6067  -11.6067  -11.4774  -11.4774
  -10.9819  -10.9819  -10.6054  -10.6054  -10.1991  -10.1991   -9.5346   -9.5346   -9.3164   -9.3164
   -9.1534   -9.1534   -9.0873   -9.0873   -9.0122   -9.0122   -8.7906   -8.7906   -8.5856   -8.5856
   -8.3819   -8.3819   -8.2335   -8.2335   -8.1289   -8.1289   -7.9939   -7.9939   -7.9157   -7.9157
   -7.7093   -7.7093   -7.3905   -7.3905   -7.2984   -7.2984   -7.2559   -7.2559   -6.8364   -6.8364
   -6.8296   -6.8296   -6.7078   -6.7078   -6.4044   -6.4044   -6.2660   -6.2660   -6.1644   -6.1644
   -5.8021   -5.8021   -5.6906   -5.6906   -5.5410   -5.5410   -4.2100   -4.2100   -3.4747   -3.4747
   -2.6877   -2.6877   -2.1915   -2.1915   -2.1677   -2.1677   -2.1075   -2.1075   -1.9765   -1.9765
   -1.9392   -1.9392   -1.7064   -1.7064   -1.6164   -1.6164   -1.5839   -1.5839   -1.3973   -1.3973
   -1.1438   -1.1438   -0.5668   -0.5668   -0.3062   -0.3062   -0.1968   -0.1968   -0.1716   -0.1716
   -0.0079   -0.0079    0.0626    0.0626    0.2602    0.2602    0.5381    0.5381    0.5801    0.5801
    0.6462    0.6462    0.7593    0.7593    1.2255    1.2255    1.2824    1.2824    1.3087    1.3087
    1.4597    1.4597    1.5803    1.5803    1.9299    1.9299    1.9679    1.9679    2.1867    2.1867
    2.4475    2.4475    2.7622    2.7622    2.8120    2.8120    2.8195    2.8195    2.8555    2.8555
    3.0865    3.0865    3.1224    3.1224    3.1574    3.1574    3.2628    3.2628    3.3277    3.3277
    3.6897    3.6897    3.9249    3.9249    4.2199    4.2199    4.2254    4.2254    4.2466    4.2466
    4.3815    4.3815    4.6981    4.6981    4.7025    4.7025    4.8144    4.8144    5.0789    5.0789
    5.0826    5.0826    5.2270    5.2270    5.5669    5.5669    5.7173    5.7173    5.7637    5.7637
    5.9024    5.9024    6.0717    6.0717    6.1726    6.1726    6.2290    6.2290    6.3335    6.3335
    6.6044    6.6044    6.6339    6.6339    6.8319    6.8319    7.0539    7.0539    7.2281    7.2281
    7.2708    7.2708    7.4929    7.4929    7.6502    7.6502    7.8594    7.8594    7.9873    7.9873
    8.0023    8.0023    8.1781    8.1781    8.3792    8.3792    8.3893    8.3893    8.6997    8.6997
    8.9467    8.9467    8.9859    8.9859    9.0315    9.0315    9.3022    9.3022    9.6212    9.6212
    9.6763    9.6763    9.8081    9.8081    9.8520    9.8520    9.9388    9.9388    9.9484    9.9484
   10.1799   10.1799   10.4740   10.4740   10.6616   10.6616   10.9526   10.9526   10.9987   10.9987
   11.3060   11.3060   11.4363   11.4363   11.6346   11.6346   11.6884   11.6884   11.7140   11.7140
   11.9379   11.9379   12.3255   12.3255   12.3462   12.3462   12.4169   12.4169   12.6368   12.6368
   12.9481   12.9481   12.9561   12.9561   13.0567   13.0567   13.2926   13.2926   13.4024   13.4024
   13.4832   13.4832   13.7506   13.7506   14.5092   14.5092   14.6636   14.6636   14.7566   14.7566
   14.8263   14.8263   14.9562   14.9562   15.1544   15.1544   16.1105   16.1105   16.5623   16.5623
   16.8129   16.8129   16.9303   16.9303   17.0287   17.0287   17.1891   17.1891   17.4604   17.4604
   18.2480   18.2480   18.2598   18.2598   18.5890   18.5890   18.7656   18.7656   18.8564   18.8564
   18.9040   18.9040   19.5491   19.5491   19.8988   19.8988   20.0269   20.0269   20.2572   20.2572
   20.7389   20.7389   21.1138   21.1138   21.2033   21.2033   21.7026   21.7026   22.2870   22.2870
   22.3314   22.3314   22.8953   22.8953   22.9987   22.9987   23.2060   23.2060   23.8433   23.8433
   24.5957   24.5957   24.8333   24.8333   24.8627   24.8627   25.8158   25.8158   25.9419   25.9419
   26.1582   26.1582   26.5633   26.5633   26.6170   26.6170   27.7768   27.7768   28.0548   28.0548
   28.4384   28.4384   28.5185   28.5185   29.2532   29.2532   29.5226   29.5226   30.4892   30.4892
   30.8125   30.8125   30.8649   30.8649   30.9619   30.9619   31.4070   31.4070   31.6610   31.6610
   31.7841   31.7841   32.0525   32.0525   32.1877   32.1877   33.4047   33.4047   33.5074   33.5074
   33.7563   33.7563   34.0812   34.0812   34.5208   34.5208   34.9127   34.9127   34.9304   34.9304
   35.5082   35.5082   36.0250   36.0250   36.1756   36.1756   37.2018   37.2018   37.5708   37.5708
   37.6023   37.6023   37.8400   37.8400   38.1628   38.1628   38.4674   38.4674   38.4998   38.4998
   39.1521   39.1521   40.2751   40.2751   40.3103   40.3103   40.7768   40.7768   41.2314   41.2314
   41.7400   41.7400   41.8970   41.8970   41.9498   41.9498   43.3360   43.3360   43.5020   43.5020
   43.9403   43.9403   44.6011   44.6011   44.8993   44.8993   44.9487   44.9487   45.2029   45.2029
   45.6373   45.6373   45.8014   45.8014   46.0134   46.0134   46.6360   46.6360   47.0539   47.0539
   47.1299   47.1299   47.4594   47.4594   48.6585   48.6585   48.8310   48.8310   49.3857   49.3857
   49.7314   49.7314   50.2432   50.2432   50.3310   50.3310   50.3433   50.3433   50.4818   50.4818
   51.7666   51.7666   52.6810   52.6810   52.7753   52.7753   53.9913   53.9913   54.3934   54.3934
   54.8741   54.8741   54.9178   54.9178   56.1000   56.1000   56.1314   56.1314   56.2427   56.2427
   56.9622   56.9622   57.7891   57.7891   58.0192   58.0192   58.4176   58.4176   59.7066   59.7066
   60.0858   60.0858   61.2543   61.2543   61.7573   61.7573   62.8704   62.8704   63.3865   63.3865
   65.3132   65.3132   65.4818   65.4818   67.0954   67.0954   67.3324   67.3324   68.4694   68.4694
   68.4828   68.4828   70.6164   70.6164   72.0304   72.0304   76.5651   76.5651   88.6902   88.6902
   91.9100   91.9100   93.0978   93.0978   95.1243   95.1243   96.5258   96.5258  100.2097  100.2097
  100.8391  100.8391  102.6125  102.6125  114.3484  114.3484  118.3862  118.3862  123.3091  123.3091
  132.5041  132.5041  138.8370  138.8370
siesta: Fermi energy =      -3.842333 eV

siesta: Program's energy decomposition (eV):
siesta: Ebs     =     -1110.587889
siesta: Eions   =      3553.971015
siesta: Ena     =       374.984508
siesta: Ekin    =      2743.011042
siesta: Enl     =     -2522.677134
siesta: Eso     =        -0.004664
siesta: Edftu   =         0.000000
siesta: DEna    =        36.863613
siesta: DUscf   =        13.897421
siesta: DUext   =         0.000000
siesta: Exc     =     -1090.813513
siesta: eta*DQ  =         0.000000
siesta: Emadel  =         0.000000
siesta: Emeta   =         0.000000
siesta: Emolmec =         0.000000
siesta: Ekinion =         0.000000
siesta: Eharris =     -3998.709742
siesta: Etot    =     -3998.709742
siesta: FreeEng =     -3998.709743

siesta: Final energy (eV):
siesta:  Band Struct. =   -1110.587889
siesta:       Kinetic =    2743.011042
siesta:       Hartree =   12229.893377
siesta:       Edftu   =       0.000000
siesta:       Eso     =      -0.004664
siesta:    Ext. field =       0.000000
siesta:   Exch.-corr. =   -1090.813513
siesta:  Ion-electron =  -26897.710163
siesta:       Ion-ion =    9016.914179
siesta:       Ekinion =       0.000000
siesta:         Total =   -3998.709742
siesta:         Fermi =      -3.842333

siesta: Atomic forces (eV/Ang):
siesta:      1    0.143089   -0.027440   -0.000000
siesta:      2   -0.034971    0.043522    0.000000
siesta:      3   -0.030993   -0.017824   -0.000000
siesta:      4    0.068500   -0.134427   -0.000000
siesta:      5    0.054177    0.005302   -0.000000
siesta:      6   -0.192023    0.018482    0.000000
siesta:      7    1.065957   -0.040164   -0.000000
siesta:      8   -0.651417    1.414995    0.000000
siesta:      9    0.168197   -1.010040   -0.000001
siesta:     10   -0.111000    0.135063    0.000000
siesta:     11   -0.190127   -0.373660    0.000000
siesta:     12   -0.280777    0.047524   -0.000000
siesta:     13   -0.123008   -0.051488    0.000000
siesta:     14    0.031977   -0.117062   -0.000000
siesta:     15    0.110071    0.095823   -0.000000
siesta:     16   -0.104959   -0.069986   -0.000949
siesta:     17    0.038549   -0.094633   -0.000793
siesta:     18   -0.149950    0.038390    0.005206
siesta:     19    0.089870   -0.119918   -0.001429
siesta:     20    0.122681    0.079150   -0.001068
siesta:     21    0.056392   -0.026290   -0.006956
siesta:     22    0.083114    0.028130    0.132889
siesta:     23    0.010939   -0.030518   -0.005630
siesta:     24    0.078881    0.054053   -0.103699
siesta:     25   -0.650679   -0.410545    0.001040
siesta:     26    2.813671   -1.468906    0.000515
siesta:     27    0.356239   -0.448956   -0.000553
siesta:     28   -0.169192    0.706014   -0.000072
siesta:     29    0.145000    0.173765   -0.000223
siesta:     30   -0.681626   -2.500306    0.000260
siesta: ----------------------------------------
siesta:    Tot    2.066583   -4.101951    0.018539

siesta: Stress tensor (static) (eV/Ang**3):
siesta:     0.000070    0.000077    0.000000
siesta:     0.000077    0.000192   -0.000004
siesta:     0.000000   -0.000004   -0.000005

siesta: Cell volume =      13500.000000 Ang**3

siesta: Pressure (static):
siesta:                Solid            Molecule  Units
siesta:          -0.00000093          0.00000661  Ry/Bohr**3
siesta:          -0.00008561          0.00060703  eV/Ang**3
siesta:          -0.13716614          0.97257914  kBar
(Free)E+ p_basis*V_orbitals  =       -3977.581658
(Free)Eharris+ p_basis*V_orbitals  =       -3977.581658
     spin moment: S , {S} =    0.00000  -0.00000   0.00000   0.00000

siesta: Electric dipole (a.u.)  =   -1.163827    1.567819   -0.001846
siesta: Electric dipole (Debye) =   -2.958154    3.985001   -0.004692

cite: Please see "AT.bib" for an exhaustive BiBTeX file.
cite: Please clearly indicate Siesta version in published work: v4.1.5-1-g384057250
cite: This calculation has made use of the following articles
cite: which are encouraged to be cited in a published work.
        Primary SIESTA paper
          DOI: www.doi.org/10.1088/0953-8984/14/11/302
        Spin-orbit coupling (on-site approximation)
          DOI: www.doi.org/10.1088/0953-8984/19/19/489001


WARNING: alloc-realloc-dealloc name mismatch
         Name: atomlist isa
         Size:              -120. Bytes
         Node:     0
         Subsequent mismatches will not be reported
>> End of run:   1-FEB-2024  20:43:21
Job completed
