Siesta Version  : v4.1.5-1-g384057250
Architecture    : gcc
Compiler version: GNU Fortran (Ubuntu 11.3.0-1ubuntu1~22.04) 11.3.0
Compiler flags  : mpifort -O2 -fPIC -ftree-vectorize -fallow-argument-mismatch
PP flags        : -DFC_HAVE_ABORT -DMPI -DSIESTA__FLOOK -DSIESTA__METIS -DSIESTA__MUMPS -DCDF -DNCDF -DNCDF_4 -DNCDF_PARALLEL -DSIESTA__MRRR -DSIESTA__ELPA
Libraries       : libncdf.a libfdict.a  -lflookall -ldl -lnetcdff -lnetcdf -lhdf5_hl -lhdf5 -lhdf5_fortran -lz -lscalapack-openmpi -lopenblas -lmetis -lzmumps -lcmumps -ldmumps -lmumps_common -lpord -lsmumps -lesmumps -lscotch -lscotcherr -fopenmp -lelpa
PARALLEL version
NetCDF support
NetCDF-4 support
NetCDF-4 MPI-IO support
METIS ordering support
Lua support

* Running on 4 nodes in parallel
>> Start of run:  22-MAY-2023  17:55:57

                           ***********************       
                           *  WELCOME TO SIESTA  *       
                           ***********************       

reinit: Reading from standard input
reinit: Dumped input in INPUT_TMP.10061
************************** Dump of input data file ****************************
SystemLabel      GC
NumberOfAtoms    29
NumberOfSpecies  4
%block ChemicalSpeciesLabel
    1    8  O
    2    7  N
    3   14  Si
    4    1  H
%endblock ChemicalSpeciesLabel
# Single point calculation
MD.TypeOfRun                CG
MD.Steps                    0
SCF.MustConverge            F # In case it does not. There can be 2 very close atoms
AtomicCoordinatesFormat NotScaledCartesianAng
%block AtomicCoordinatesAndAtomicSpecies
0.854927710    3.902811360    0.000000000       1
-3.151486600   0.823854130    0.000000000       2
1.928518680    1.174000900    0.000000000       2
0.979899500    -1.830275890   0.000000000       2
-2.159258930   -2.028004800   0.000000000       2
3.785319770    -1.112700660   0.000000000       2
-1.345933810   0.976250250    0.000000000       3
-0.599439880   -1.096077170   0.000000000       3
0.453182890    2.350510230    0.000000000       3
2.133302030    -0.576510800   0.000000000       3
-3.516065660   -0.842056510   0.000000000       3
2.824527830    1.754723110    0.000000000       4
-4.877551690   -1.469214660   0.000000000       4
3.994952020    -2.143204000   0.000000000       4
4.620903610    -0.483666060   0.000000000       4
-2.279085180   -3.081514090   0.000000000       4
6.234426795    6.035768689    -0.000000000      3
8.103386285    7.295412319    -0.000000000      3
7.644453905    3.294030469    -0.000000000      3
9.712046625    5.800621689    -0.000000000      3
6.293956745    4.350816229    -0.000000000      2
4.604427595    6.665828919    -0.000000000      2
9.288342775    4.085120879    -0.000000000      2
8.383749985    8.765634839    -0.000000000      4
11.207458005   6.019474229    -0.000000000      4
4.359968605    7.684294869    -0.000000000      4
3.777686415    6.008980789    -0.000000000      4
7.703729665    1.711588439    -0.000000000      1
10.059998365   3.358153519    -0.000000000      4
%endblock AtomicCoordinatesAndAtomicSpecies
%include ../../../Defaults.fdf
************************** End of input data file *****************************

reinit: -----------------------------------------------------------------------
reinit: System Name: 
reinit: -----------------------------------------------------------------------
reinit: System Label: GC
reinit: -----------------------------------------------------------------------

initatom: Reading input for the pseudopotentials and atomic orbitals ----------
Species number:   1 Atomic number:    8 Label: O
Species number:   2 Atomic number:    7 Label: N
Species number:   3 Atomic number:   14 Label: Si
Species number:   4 Atomic number:    1 Label: H

Ground state valence configuration:   2s02  2p04
Reading pseudopotential information in formatted form from O.psf

Pseudopotential generated from a relativistic atomic calculation

Valence configuration for pseudopotential generation:
2s( 2.00) rc: 0.45
2p( 4.00) rc: 0.92
3d( 0.00) rc: 2.24
4f( 0.00) rc: 0.25
Ground state valence configuration:   2s02  2p03
Reading pseudopotential information in formatted form from N.psf

Pseudopotential generated from a relativistic atomic calculation

Valence configuration for pseudopotential generation:
2s( 2.00) rc: 0.94
2p( 3.00) rc: 0.59
3d( 0.00) rc: 3.46
4f( 0.00) rc: 2.47
Ground state valence configuration:   3s02  3p02
Reading pseudopotential information in formatted form from Si.psf

Pseudopotential generated from a relativistic atomic calculation

Valence configuration for pseudopotential generation:
3s( 2.00) rc: 1.67
3p( 2.00) rc: 2.04
3d( 0.00) rc: 2.89
4f( 0.00) rc: 2.49
Ground state valence configuration:   1s01
Reading pseudopotential information in formatted form from H.psf

Pseudopotential generated from a relativistic atomic calculation

Valence configuration for pseudopotential generation:
1s( 1.00) rc: 0.01
2p( 0.00) rc: 0.60
3d( 0.00) rc: 1.99
4f( 0.00) rc: 2.49
For O, standard SIESTA heuristics set lmxkb to 3
 (one more than the basis l, including polarization orbitals).
Use PS.lmax or PS.KBprojectors blocks to override.
For N, standard SIESTA heuristics set lmxkb to 3
 (one more than the basis l, including polarization orbitals).
Use PS.lmax or PS.KBprojectors blocks to override.
For Si, standard SIESTA heuristics set lmxkb to 3
 (one more than the basis l, including polarization orbitals).
Use PS.lmax or PS.KBprojectors blocks to override.
For H, standard SIESTA heuristics set lmxkb to 2
 (one more than the basis l, including polarization orbitals).
Use PS.lmax or PS.KBprojectors blocks to override.

<basis_specs>
===============================================================================
O                    Z=   8    Mass=  16.000        Charge= 0.17977+309
Lmxo=1 Lmxkb= 3    BasisType=split      Semic=F
L=0  Nsemic=0  Cnfigmx=2
          i=1  nzeta=2  polorb=0  (2s)
            splnorm:   0.28000    
               vcte:    0.0000    
               rinn:    0.0000    
               qcoe:    0.0000    
               qyuk:    0.0000    
               qwid:   0.10000E-01
                rcs:    0.0000      0.0000    
            lambdas:    1.0000      1.0000    
L=1  Nsemic=0  Cnfigmx=2
          i=1  nzeta=2  polorb=1  (2p)
            splnorm:   0.28000    
               vcte:    0.0000    
               rinn:    0.0000    
               qcoe:    0.0000    
               qyuk:    0.0000    
               qwid:   0.10000E-01
                rcs:    0.0000      0.0000    
            lambdas:    1.0000      1.0000    
-------------------------------------------------------------------------------
L=0  Nkbl=1  erefs: 0.17977+309
L=1  Nkbl=1  erefs: 0.17977+309
L=2  Nkbl=1  erefs: 0.17977+309
L=3  Nkbl=1  erefs: 0.17977+309
===============================================================================
</basis_specs>

atom: Called for O                     (Z =   8)

read_vps: Pseudopotential generation method:
read_vps: ATM4.2.7  Troullier-Martins                       
Valence charge for ps generation:    6.00000

xc_check: Exchange-correlation functional:
xc_check: GGA Perdew, Burke & Ernzerhof 1996
V l=0 = -2*Zval/r beyond r=  1.1000
V l=1 = -2*Zval/r beyond r=  1.1000
V l=2 = -2*Zval/r beyond r=  2.2154
V l=3 = -2*Zval/r beyond r=  1.1000
All V_l potentials equal beyond r=  2.2154
This should be close to max(r_c) in ps generation
All pots = -2*Zval/r beyond r=  2.2154

VLOCAL1: 99.0% of the norm of Vloc inside      8.845 Ry
VLOCAL1: 99.9% of the norm of Vloc inside     20.157 Ry
atom: Maximum radius for 4*pi*r*r*local-pseudopot. charge    2.67231
atom: Maximum radius for r*vlocal+2*Zval:    2.32897
GHOST: No ghost state for L =  0
GHOST: No ghost state for L =  1
GHOST: No ghost state for L =  2
GHOST: No ghost state for L =  3

KBgen: Kleinman-Bylander projectors: 
   l= 0   rc=  2.243238   el= -1.759686   Ekb=**********   kbcos= -0.171774
   l= 1   rc=  2.328968   el= -0.663873   Ekb=-14.506792   kbcos= -0.519897
   l= 2   rc=  2.573941   el=  0.002031   Ekb= -1.137373   kbcos= -0.019581
   l= 3   rc=  2.606321   el=  0.003153   Ekb= -1.013546   kbcos= -0.003122

KBgen: Total number of Kleinman-Bylander projectors:   16
atom: -------------------------------------------------------------------------

atom: SANKEY-TYPE ORBITALS:
atom: Selected multiple-zeta basis: split     

SPLIT: Orbitals with angular momentum L= 0

SPLIT: Basis orbitals for state 2s

SPLIT: PAO cut-off radius determined from an
SPLIT: energy shift=  0.002000 Ry

   izeta = 1
                 lambda =    1.000000
                     rc =    4.243912
                 energy =   -1.758270
                kinetic =    3.286084
    potential(screened) =   -5.044353
       potential(ionic) =  -12.921184

   izeta = 2
                 rmatch =    2.187845
              splitnorm =    0.280000
                 energy =   -0.885018
                kinetic =    8.134434
    potential(screened) =   -9.019452
       potential(ionic) =  -17.710645

SPLIT: Orbitals with angular momentum L= 1

SPLIT: Basis orbitals for state 2p

SPLIT: PAO cut-off radius determined from an
SPLIT: energy shift=  0.002000 Ry

   izeta = 1
                 lambda =    1.000000
                     rc =    5.314825
                 energy =   -0.661986
                kinetic =    4.917472
    potential(screened) =   -5.579458
       potential(ionic) =  -13.236259

   izeta = 2
                 rmatch =    2.160663
              splitnorm =    0.280000
                 energy =   -0.068760
                kinetic =    9.183374
    potential(screened) =   -9.252135
       potential(ionic) =  -18.274251

POLgen: Perturbative polarization orbital with L=  2

POLgen: Polarization orbital for state 2p

   izeta = 1
                     rc =    5.314825
                 energy =    1.970580
                kinetic =    3.886128
    potential(screened) =   -1.915547
       potential(ionic) =   -7.749584
atom: Total number of Sankey-type orbitals: 13

atm_pop: Valence configuration (for local Pseudopot. screening):
 2s( 2.00)                                                            
 2p( 4.00)                                                            
Vna: chval, zval:    6.00000   6.00000

Vna:  Cut-off radius for the neutral-atom potential:   5.314825

atom: _________________________________________________________________________

<basis_specs>
===============================================================================
N                    Z=   7    Mass=  14.010        Charge= 0.17977+309
Lmxo=1 Lmxkb= 3    BasisType=split      Semic=F
L=0  Nsemic=0  Cnfigmx=2
          i=1  nzeta=2  polorb=0  (2s)
            splnorm:   0.28000    
               vcte:    0.0000    
               rinn:    0.0000    
               qcoe:    0.0000    
               qyuk:    0.0000    
               qwid:   0.10000E-01
                rcs:    0.0000      0.0000    
            lambdas:    1.0000      1.0000    
L=1  Nsemic=0  Cnfigmx=2
          i=1  nzeta=2  polorb=1  (2p)
            splnorm:   0.28000    
               vcte:    0.0000    
               rinn:    0.0000    
               qcoe:    0.0000    
               qyuk:    0.0000    
               qwid:   0.10000E-01
                rcs:    0.0000      0.0000    
            lambdas:    1.0000      1.0000    
-------------------------------------------------------------------------------
L=0  Nkbl=1  erefs: 0.17977+309
L=1  Nkbl=1  erefs: 0.17977+309
L=2  Nkbl=1  erefs: 0.17977+309
L=3  Nkbl=1  erefs: 0.17977+309
===============================================================================
</basis_specs>

atom: Called for N                     (Z =   7)

read_vps: Pseudopotential generation method:
read_vps: ATM4.2.7  Troullier-Martins                       
Valence charge for ps generation:    5.00000

xc_check: Exchange-correlation functional:
xc_check: GGA Perdew, Burke & Ernzerhof 1996
V l=0 = -2*Zval/r beyond r=  1.2889
V l=1 = -2*Zval/r beyond r=  1.2889
V l=2 = -2*Zval/r beyond r=  3.4178
V l=3 = -2*Zval/r beyond r=  2.4084
All V_l potentials equal beyond r=  3.3753
This should be close to max(r_c) in ps generation
All pots = -2*Zval/r beyond r=  3.4178

VLOCAL1: 99.0% of the norm of Vloc inside      3.810 Ry
VLOCAL1: 99.9% of the norm of Vloc inside      8.683 Ry
atom: Maximum radius for 4*pi*r*r*local-pseudopot. charge    4.02088
atom: Maximum radius for r*vlocal+2*Zval:    3.54838
GHOST: No ghost state for L =  0
GHOST: No ghost state for L =  1
GHOST: No ghost state for L =  2
GHOST: No ghost state for L =  3

KBgen: Kleinman-Bylander projectors: 
   l= 0   rc=  3.417763   el= -1.365098   Ekb= -4.433130   kbcos= -0.707855
   l= 1   rc=  3.375302   el= -0.521201   Ekb=-13.264039   kbcos= -0.535594
   l= 2   rc=  3.872880   el=  0.001991   Ekb= -0.641094   kbcos= -0.062456
   l= 3   rc=  3.970931   el=  0.003093   Ekb= -0.474517   kbcos= -0.018236

KBgen: Total number of Kleinman-Bylander projectors:   16
atom: -------------------------------------------------------------------------

atom: SANKEY-TYPE ORBITALS:
atom: Selected multiple-zeta basis: split     

SPLIT: Orbitals with angular momentum L= 0

SPLIT: Basis orbitals for state 2s

SPLIT: PAO cut-off radius determined from an
SPLIT: energy shift=  0.002000 Ry

   izeta = 1
                 lambda =    1.000000
                     rc =    4.730425
                 energy =   -1.363399
                kinetic =    1.245246
    potential(screened) =   -2.608645
       potential(ionic) =   -8.121105

   izeta = 2
                 rmatch =    2.531849
              splitnorm =    0.280000
                 energy =   -0.959908
                kinetic =    2.409435
    potential(screened) =   -3.369343
       potential(ionic) =   -9.427975

SPLIT: Orbitals with angular momentum L= 1

SPLIT: Basis orbitals for state 2p

SPLIT: PAO cut-off radius determined from an
SPLIT: energy shift=  0.002000 Ry

   izeta = 1
                 lambda =    1.000000
                     rc =    5.924108
                 energy =   -0.519262
                kinetic =    3.672940
    potential(screened) =   -4.192202
       potential(ionic) =   -9.518354

   izeta = 2
                 rmatch =    2.531849
              splitnorm =    0.280000
                 energy =   -0.104258
                kinetic =    6.807538
    potential(screened) =   -6.911796
       potential(ionic) =  -13.149920

POLgen: Perturbative polarization orbital with L=  2

POLgen: Polarization orbital for state 2p

   izeta = 1
                     rc =    5.924108
                 energy =    1.427508
                kinetic =    2.872379
    potential(screened) =   -1.444871
       potential(ionic) =   -5.563644
atom: Total number of Sankey-type orbitals: 13

atm_pop: Valence configuration (for local Pseudopot. screening):
 2s( 2.00)                                                            
 2p( 3.00)                                                            
Vna: chval, zval:    5.00000   5.00000

Vna:  Cut-off radius for the neutral-atom potential:   5.924108

atom: _________________________________________________________________________

<basis_specs>
===============================================================================
Si                   Z=  14    Mass=  28.090        Charge= 0.17977+309
Lmxo=1 Lmxkb= 3    BasisType=split      Semic=F
L=0  Nsemic=0  Cnfigmx=3
          i=1  nzeta=2  polorb=0  (3s)
            splnorm:   0.28000    
               vcte:    0.0000    
               rinn:    0.0000    
               qcoe:    0.0000    
               qyuk:    0.0000    
               qwid:   0.10000E-01
                rcs:    0.0000      0.0000    
            lambdas:    1.0000      1.0000    
L=1  Nsemic=0  Cnfigmx=3
          i=1  nzeta=2  polorb=1  (3p)
            splnorm:   0.28000    
               vcte:    0.0000    
               rinn:    0.0000    
               qcoe:    0.0000    
               qyuk:    0.0000    
               qwid:   0.10000E-01
                rcs:    0.0000      0.0000    
            lambdas:    1.0000      1.0000    
-------------------------------------------------------------------------------
L=0  Nkbl=1  erefs: 0.17977+309
L=1  Nkbl=1  erefs: 0.17977+309
L=2  Nkbl=1  erefs: 0.17977+309
L=3  Nkbl=1  erefs: 0.17977+309
===============================================================================
</basis_specs>

atom: Called for Si                    (Z =  14)

read_vps: Pseudopotential generation method:
read_vps: ATM4.2.7  Troullier-Martins                       
Valence charge for ps generation:    4.00000

xc_check: Exchange-correlation functional:
xc_check: GGA Perdew, Burke & Ernzerhof 1996
V l=0 = -2*Zval/r beyond r=  2.7826
V l=1 = -2*Zval/r beyond r=  2.7826
V l=2 = -2*Zval/r beyond r=  2.9253
V l=3 = -2*Zval/r beyond r=  2.7826
All V_l potentials equal beyond r=  2.8530
This should be close to max(r_c) in ps generation
All pots = -2*Zval/r beyond r=  2.9253

VLOCAL1: 99.0% of the norm of Vloc inside      5.333 Ry
VLOCAL1: 99.9% of the norm of Vloc inside     12.154 Ry
atom: Maximum radius for 4*pi*r*r*local-pseudopot. charge    3.39869
atom: Maximum radius for r*vlocal+2*Zval:    2.96205
GHOST: No ghost state for L =  0
GHOST: No ghost state for L =  1
GHOST: No ghost state for L =  2
GHOST: No ghost state for L =  3

KBgen: Kleinman-Bylander projectors: 
   l= 0   rc=  3.075247   el= -0.794092   Ekb=  5.879390   kbcos=  0.167461
   l= 1   rc=  3.153101   el= -0.300068   Ekb=  2.642817   kbcos=  0.058301
   l= 2   rc=  3.273594   el=  0.001958   Ekb= -1.185135   kbcos= -0.104411
   l= 3   rc=  3.232927   el=  0.003046   Ekb= -0.497174   kbcos= -0.015889

KBgen: Total number of Kleinman-Bylander projectors:   16
atom: -------------------------------------------------------------------------

atom: SANKEY-TYPE ORBITALS:
atom: Selected multiple-zeta basis: split     

SPLIT: Orbitals with angular momentum L= 0

SPLIT: Basis orbitals for state 3s

SPLIT: PAO cut-off radius determined from an
SPLIT: energy shift=  0.002000 Ry

   izeta = 1
                 lambda =    1.000000
                     rc =    6.429618
                 energy =   -0.792283
                kinetic =    0.525293
    potential(screened) =   -1.317576
       potential(ionic) =   -3.744923

   izeta = 2
                 rmatch =    3.998416
              splitnorm =    0.280000
                 energy =   -0.583081
                kinetic =    1.069570
    potential(screened) =   -1.652651
       potential(ionic) =   -4.235185

SPLIT: Orbitals with angular momentum L= 1

SPLIT: Basis orbitals for state 3p

SPLIT: PAO cut-off radius determined from an
SPLIT: energy shift=  0.002000 Ry

   izeta = 1
                 lambda =    1.000000
                     rc =    8.464845
                 energy =   -0.298236
                kinetic =    0.785360
    potential(screened) =   -1.083596
       potential(ionic) =   -3.273779

   izeta = 2
                 rmatch =    4.587816
              splitnorm =    0.280000
                 energy =   -0.131871
                kinetic =    1.403687
    potential(screened) =   -1.535557
       potential(ionic) =   -4.015310

POLgen: Perturbative polarization orbital with L=  2

POLgen: Polarization orbital for state 3p

   izeta = 1
                     rc =    8.464845
                 energy =    0.321949
                kinetic =    1.055677
    potential(screened) =   -0.733728
       potential(ionic) =   -2.672950
atom: Total number of Sankey-type orbitals: 13

atm_pop: Valence configuration (for local Pseudopot. screening):
 3s( 2.00)                                                            
 3p( 2.00)                                                            
Vna: chval, zval:    4.00000   4.00000

Vna:  Cut-off radius for the neutral-atom potential:   8.464845

atom: _________________________________________________________________________

<basis_specs>
===============================================================================
H                    Z=   1    Mass=  1.0100        Charge= 0.17977+309
Lmxo=0 Lmxkb= 2    BasisType=split      Semic=F
L=0  Nsemic=0  Cnfigmx=1
          i=1  nzeta=2  polorb=1  (1s)
            splnorm:   0.62000    
               vcte:    0.0000    
               rinn:    0.0000    
               qcoe:    0.0000    
               qyuk:    0.0000    
               qwid:   0.10000E-01
                rcs:    0.0000      0.0000    
            lambdas:    1.0000      1.0000    
-------------------------------------------------------------------------------
L=0  Nkbl=1  erefs: 0.17977+309
L=1  Nkbl=1  erefs: 0.17977+309
L=2  Nkbl=1  erefs: 0.17977+309
===============================================================================
</basis_specs>

atom: Called for H                     (Z =   1)

read_vps: Pseudopotential generation method:
read_vps: ATM4.2.7  Troullier-Martins                       
Valence charge for ps generation:    1.00000

xc_check: Exchange-correlation functional:
xc_check: GGA Perdew, Burke & Ernzerhof 1996
V l=0 = -2*Zval/r beyond r=  0.0098
V l=1 = -2*Zval/r beyond r=  0.5817
V l=2 = -2*Zval/r beyond r=  1.9372
All V_l potentials equal beyond r=  1.9372
This should be close to max(r_c) in ps generation
All pots = -2*Zval/r beyond r=  1.9372

VLOCAL1: 99.0% of the norm of Vloc inside     11.567 Ry
VLOCAL1: 99.9% of the norm of Vloc inside     26.362 Ry
atom: Maximum radius for 4*pi*r*r*local-pseudopot. charge    2.25106
atom: Maximum radius for r*vlocal+2*Zval:    1.91306
GHOST: No ghost state for L =  0
GHOST: No ghost state for L =  1
GHOST: No ghost state for L =  2

KBgen: Kleinman-Bylander projectors: 
   l= 0   rc=  2.036604   el= -0.477180   Ekb= -6.081590   kbcos= -0.277285
   l= 1   rc=  2.195416   el=  0.001076   Ekb= -0.926943   kbcos= -0.034643
   l= 2   rc=  2.251056   el=  0.002010   Ekb= -0.130941   kbcos= -0.009788

KBgen: Total number of Kleinman-Bylander projectors:    9
atom: -------------------------------------------------------------------------

atom: SANKEY-TYPE ORBITALS:
atom: Selected multiple-zeta basis: split     

SPLIT: Orbitals with angular momentum L= 0

SPLIT: Basis orbitals for state 1s

SPLIT: PAO cut-off radius determined from an
SPLIT: energy shift=  0.002000 Ry

   izeta = 1
                 lambda =    1.000000
                     rc =    6.518340
                 energy =   -0.475305
                kinetic =    0.912139
    potential(screened) =   -1.387444
       potential(ionic) =   -1.907295

   izeta = 2
                 rmatch =    2.141150
              splitnorm =    0.620000
                 energy =    0.566467
                kinetic =    3.772856
    potential(screened) =   -3.206389
       potential(ionic) =   -3.759093

POLgen: Perturbative polarization orbital with L=  1

POLgen: Polarization orbital for state 1s

   izeta = 1
                     rc =    6.518340
                 energy =    0.533861
                kinetic =    1.121086
    potential(screened) =   -0.587225
       potential(ionic) =   -1.053027
atom: Total number of Sankey-type orbitals:  5

atm_pop: Valence configuration (for local Pseudopot. screening):
 1s( 1.00)                                                            
Vna: chval, zval:    1.00000   1.00000

Vna:  Cut-off radius for the neutral-atom potential:   6.518340

atom: _________________________________________________________________________

prinput: Basis input ----------------------------------------------------------

PAO.BasisType split     

%block ChemicalSpeciesLabel
    1    8 O                       # Species index, atomic number, species label
    2    7 N                       # Species index, atomic number, species label
    3   14 Si                      # Species index, atomic number, species label
    4    1 H                       # Species index, atomic number, species label
%endblock ChemicalSpeciesLabel

%block PAO.Basis                 # Define Basis set
O                     2                    # Species label, number of l-shells
 n=2   0   2                         # n, l, Nzeta 
   4.244      2.188   
   1.000      1.000   
 n=2   1   2 P   1                   # n, l, Nzeta, Polarization, NzetaPol
   5.315      2.161   
   1.000      1.000   
N                     2                    # Species label, number of l-shells
 n=2   0   2                         # n, l, Nzeta 
   4.730      2.532   
   1.000      1.000   
 n=2   1   2 P   1                   # n, l, Nzeta, Polarization, NzetaPol
   5.924      2.532   
   1.000      1.000   
Si                    2                    # Species label, number of l-shells
 n=3   0   2                         # n, l, Nzeta 
   6.430      3.998   
   1.000      1.000   
 n=3   1   2 P   1                   # n, l, Nzeta, Polarization, NzetaPol
   8.465      4.588   
   1.000      1.000   
H                     1                    # Species label, number of l-shells
 n=1   0   2 P   1                   # n, l, Nzeta, Polarization, NzetaPol
   6.518      2.141   
   1.000      1.000   
%endblock PAO.Basis

prinput: ----------------------------------------------------------------------

Dumping basis to NetCDF file O.ion.nc
Dumping basis to NetCDF file N.ion.nc
Dumping basis to NetCDF file Si.ion.nc
Dumping basis to NetCDF file H.ion.nc
coor:   Atomic-coordinates input format  =     Cartesian coordinates
coor:                                          (in Angstroms)

siesta: Atomic coordinates (Bohr) and species
siesta:      1.61558   7.37525   0.00000  1        1
siesta:     -5.95545   1.55686   0.00000  2        2
siesta:      3.64437   2.21854   0.00000  2        3
siesta:      1.85174  -3.45872   0.00000  2        4
siesta:     -4.08041  -3.83238   0.00000  2        5
siesta:      7.15322  -2.10270   0.00000  2        6
siesta:     -2.54345   1.84485   0.00000  3        7
siesta:     -1.13278  -2.07129   0.00000  3        8
siesta:      0.85639   4.44182   0.00000  3        9
siesta:      4.03136  -1.08945   0.00000  3       10
siesta:     -6.64440  -1.59126   0.00000  3       11
siesta:      5.33759   3.31595   0.00000  4       12
siesta:     -9.21724  -2.77641   0.00000  4       13
siesta:      7.54937  -4.05007   0.00000  4       14
siesta:      8.73225  -0.91400   0.00000  4       15
siesta:     -4.30685  -5.82322   0.00000  4       16
siesta:     11.78136  11.40595  -0.00000  3       17
siesta:     15.31319  13.78634  -0.00000  3       18
siesta:     14.44593   6.22482  -0.00000  3       19
siesta:     18.35312  10.96159  -0.00000  3       20
siesta:     11.89386   8.22185  -0.00000  2       21
siesta:      8.70111  12.59660  -0.00000  2       22
siesta:     17.55243   7.71976  -0.00000  2       23
siesta:     15.84300  16.56466  -0.00000  4       24
siesta:     21.17903  11.37516  -0.00000  4       25
siesta:      8.23915  14.52122  -0.00000  4       26
siesta:      7.13880  11.35533  -0.00000  4       27
siesta:     14.55795   3.23443  -0.00000  1       28
siesta:     19.01065   6.34599  -0.00000  4       29

siesta: Automatic unit cell vectors (Ang):
siesta:   25.282093    0.000000    0.000000
siesta:    0.000000   20.620447    0.000000
siesta:    0.000000    0.000000    9.854683

siesta: System type = molecule  

initatomlists: Number of atoms, orbitals, and projectors:     29   297   394

siesta: ******************** Simulation parameters ****************************
siesta:
siesta: The following are some of the parameters of the simulation.
siesta: A complete list of the parameters used, including default values,
siesta: can be found in file out.fdf
siesta:
redata: Spin configuration                          = spin-orbit
redata: Number of spin components                   = 8
redata: Time-Reversal Symmetry                      = F
redata: Spin spiral                                 = F
############################################################
This spin-orbit implementation uses a local approximation.
From 4.2 and onwards the full non-local approximation is implemented
You are strongly advised to use >=4.2 versions!
############################################################
redata: Long output                                 =   F
redata: Number of Atomic Species                    =        4
redata: Charge density info will appear in .RHO file
redata: Write Mulliken Pop.                         = Atomic and Orbital charges
redata: Matel table size (NRTAB)                    =     1024
redata: Mesh Cutoff                                 =   340.0000 Ry
redata: Net charge of the system                    =     0.0000 |e|
redata: Min. number of SCF Iter                     =        1
redata: Max. number of SCF Iter                     =      200
redata: SCF mix quantity                            = Hamiltonian
redata: Mix DM or H after convergence               =   F
redata: Recompute H after scf cycle                 =   F
redata: Mix DM in first SCF step                    =   T
redata: Write Pulay info on disk                    =   F
redata: New DM Occupancy tolerance                  = 0.000000000001
redata: No kicks to SCF
redata: DM Mixing Weight for Kicks                  =     0.5000
redata: Require Harris convergence for SCF          =   F
redata: Harris energy tolerance for SCF             =     0.000100 eV
redata: Require DM convergence for SCF              =   T
redata: DM tolerance for SCF                        =     0.000008
redata: Require EDM convergence for SCF             =   F
redata: EDM tolerance for SCF                       =     0.001000 eV
redata: Require H convergence for SCF               =   T
redata: Hamiltonian tolerance for SCF               =     0.000001 eV
redata: Require (free) Energy convergence for SCF   =   F
redata: (free) Energy tolerance for SCF             =     0.000100 eV
redata: Using Saved Data (generic)                  =   F
redata: Use continuation files for DM               =   F
redata: Neglect nonoverlap interactions             =   F
redata: Method of Calculation                       = Diagonalization
redata: Electronic Temperature                      =   299.9978 K
redata: Fix the spin of the system                  =   F
redata: Dynamics option                             = Single-point calculation
mix.SCF: Pulay mixing                            = Pulay
mix.SCF:    Variant                              = stable
mix.SCF:    History steps                        = 6
mix.SCF:    Linear mixing weight                 =     0.250000
mix.SCF:    Mixing weight                        =     0.250000
mix.SCF:    SVD condition                        = 0.1000E-07
mix.SCF:    Restart steps                        = 24
mix.SCF:    Restart save steps                   = 3
mix.SCF: Spin-component mixing                   all
redata: Save all siesta data in one NC              =   F
redata: ***********************************************************************

%block SCF.Mixers
  Pulay
%endblock SCF.Mixers

%block SCF.Mixer.Pulay
  # Mixing method
  method pulay
  variant stable

  # Mixing options
  weight 0.2500
  weight.linear 0.2500
  history 6
  restart 24
  restart.save 3
%endblock SCF.Mixer.Pulay

DM_history_depth set to one: no extrapolation allowed by default for geometry relaxation
Size of DM history Fstack: 1
Total number of electrons:    98.000000
Total ionic charge:    98.000000

* ProcessorY, Blocksize:    2  24


* Orbital distribution balance (max,min):    81    72


Time-reversal symmetry not used.

siesta: k-grid: Number of k-points =     1
siesta: k-grid: Cutoff (effective) =     4.927 Ang
siesta: k-grid: Supercell and displacements
siesta: k-grid:    1   0   0      0.000
siesta: k-grid:    0   1   0      0.000
siesta: k-grid:    0   0   1      0.000

diag: Algorithm                                     = ELPA-1stage
diag: Parallel over k                               =   F
diag: Use parallel 2D distribution                  =   T
diag: Parallel block-size                           = 24
diag: Parallel distribution                         =     2 x     2
diag: Used triangular part                          = Lower
diag: Absolute tolerance                            =  0.100E-15
diag: Orthogonalization factor                      =  0.100E-05
diag: Memory factor                                 =  1.0000


ts: **************************************************************
ts: Save H and S matrices                           =    F
ts: Save DM and EDM matrices                        =    F
ts: Only save the overlap matrix S                  =    F
ts: **************************************************************

************************ Begin: TS CHECKS AND WARNINGS ************************
************************ End: TS CHECKS AND WARNINGS **************************


                     ====================================
                        Single-point calculation
                     ====================================

outcoor: Atomic coordinates (Ang):                          
    0.85492771    3.90281136    0.00000000   1       1  O
   -3.15148660    0.82385413    0.00000000   2       2  N
    1.92851868    1.17400090    0.00000000   2       3  N
    0.97989950   -1.83027589    0.00000000   2       4  N
   -2.15925893   -2.02800480    0.00000000   2       5  N
    3.78531977   -1.11270066    0.00000000   2       6  N
   -1.34593381    0.97625025    0.00000000   3       7  Si
   -0.59943988   -1.09607717    0.00000000   3       8  Si
    0.45318289    2.35051023    0.00000000   3       9  Si
    2.13330203   -0.57651080    0.00000000   3      10  Si
   -3.51606566   -0.84205651    0.00000000   3      11  Si
    2.82452783    1.75472311    0.00000000   4      12  H
   -4.87755169   -1.46921466    0.00000000   4      13  H
    3.99495202   -2.14320400    0.00000000   4      14  H
    4.62090361   -0.48366606    0.00000000   4      15  H
   -2.27908518   -3.08151409    0.00000000   4      16  H
    6.23442680    6.03576869    0.00000000   3      17  Si
    8.10338628    7.29541232    0.00000000   3      18  Si
    7.64445390    3.29403047    0.00000000   3      19  Si
    9.71204662    5.80062169    0.00000000   3      20  Si
    6.29395675    4.35081623    0.00000000   2      21  N
    4.60442759    6.66582892    0.00000000   2      22  N
    9.28834278    4.08512088    0.00000000   2      23  N
    8.38374998    8.76563484    0.00000000   4      24  H
   11.20745800    6.01947423    0.00000000   4      25  H
    4.35996860    7.68429487    0.00000000   4      26  H
    3.77768641    6.00898079    0.00000000   4      27  H
    7.70372967    1.71158844    0.00000000   1      28  O
   10.05999837    3.35815352    0.00000000   4      29  H

outcell: Unit cell vectors (Ang):
       25.282093    0.000000    0.000000
        0.000000   20.620447    0.000000
        0.000000    0.000000    9.854683

outcell: Cell vector modules (Ang)   :   25.282093   20.620447    9.854683
outcell: Cell angles (23,13,12) (deg):     90.0000     90.0000     90.0000
outcell: Cell volume (Ang**3)        :   5137.5229
<dSpData1D:S at geom step 0
  <sparsity:sparsity for geom step 0
    nrows_g=297 nrows=81 sparsity=.1878 nnzs=16566, refcount: 8>
  <dData1D:(new from dSpData1D) n=16566, refcount: 1>
refcount: 1>
new_DM -- step:     1
Initializing Density Matrix...
DM filled with atomic data:
<dSpData2D:DM initialized from atoms
  <sparsity:sparsity for geom step 0
    nrows_g=297 nrows=81 sparsity=.1878 nnzs=16566, refcount: 9>
  <dData2D:DM n=16566 m=8, refcount: 1>
refcount: 1>
     spin moment: S , {S} =   56.00000   0.00000   0.00000  56.00000
No. of atoms with KB's overlaping orbs in proc 0. Max # of overlaps:      29     162

Initializing spin-orbit part of the Hamiltonian
  Adding spin-orbit effects for O 
  Adding spin-orbit effects for N 
  Adding spin-orbit effects for Si
  Adding spin-orbit effects for H 


New grid distribution:   1
           1       1:  144    1:   60    1:   30
           2       1:  144    1:   60   31:   60
           3       1:  144   61:  120    1:   30
           4       1:  144   61:  120   31:   60

InitMesh: MESH =   288 x   240 x   120 =     8294400
InitMesh: (bp) =   144 x   120 x    60 =     1036800
InitMesh: Mesh cutoff (required, used) =   340.000   358.642 Ry
ExtMesh (bp) on 0 =   248 x   168 x   142 =     5916288
New grid distribution:   2
           1      44:  144    1:   33    1:   60
           2       1:   43    1:   31    1:   60
           3      44:  144   34:  120    1:   60
           4       1:   43   32:  120    1:   60
New grid distribution:   3
           1      49:  144    1:   37    1:   60
           2       1:   48    1:   40    1:   60
           3      49:  144   38:  120    1:   60
           4       1:   48   41:  120    1:   60
Setting up quadratic distribution...
ExtMesh (bp) on 0 =   205 x   141 x   172 =     4971660
PhiOnMesh: Number of (b)points on node 0 =               199980
PhiOnMesh: nlist on node 0 =              2611621

stepf: Fermi-Dirac step function

siesta: Program's energy decomposition (eV):
siesta: Ebs     =      -614.910989
siesta: Eions   =      3585.165840
siesta: Ena     =       384.947627
siesta: Ekin    =      3376.411498
siesta: Enl     =     -3308.181261
siesta: Eso     =        -0.003377
siesta: Edftu   =         0.000000
siesta: DEna    =       154.717767
siesta: DUscf   =        81.904883
siesta: DUext   =         0.000000
siesta: Exc     =     -1205.357857
siesta: eta*DQ  =         0.000000
siesta: Emadel  =         0.000000
siesta: Emeta   =         0.000000
siesta: Emolmec =         0.000000
siesta: Ekinion =         0.000000
siesta: Eharris =     -4021.365325
siesta: Etot    =     -4100.726560
siesta: FreeEng =     -4100.728069

        iscf     Eharris(eV)        E_KS(eV)     FreeEng(eV)     dDmax    Ef(eV) dHmax(eV)
   scf:    1    -4021.365325    -4100.726560    -4100.728069  0.964975 -4.889110 21.555911
     spin moment: S , {S} =    2.00788  -0.00000   0.00000   2.00788
timer: Routine,Calls,Time,% = IterSCF        1      12.976  17.85
   scf:    2    -4148.893576    -4136.786271    -4136.790565  0.460231 -4.224200 11.498741
     spin moment: S , {S} =    1.96822  -0.00000   0.00000   1.96822
   scf:    3    -4110.770459    -4134.612968    -4134.634513  0.432639 -4.335409 11.435467
     spin moment: S , {S} =    2.02663  -0.00000  -0.00000   2.02663
   scf:    4    -4149.858966    -4145.360086    -4145.360087  0.291845 -3.937439  5.980843
     spin moment: S , {S} =    0.00010  -0.00000   0.00000   0.00010
   scf:    5    -4146.618725    -4146.095023    -4146.095023  0.038072 -3.726716  4.121783
     spin moment: S , {S} =    0.00006  -0.00000  -0.00000   0.00006
   scf:    6    -4146.840792    -4146.475177    -4146.475177  0.024007 -3.558184  2.080098
     spin moment: S , {S} =    0.00003   0.00000   0.00000   0.00003
   scf:    7    -4146.831977    -4146.651343    -4146.651343  0.022135 -3.726385  0.885960
     spin moment: S , {S} =    0.00001  -0.00000  -0.00000   0.00001
   scf:    8    -4146.769478    -4146.708595    -4146.708595  0.012283 -3.645107  0.495322
     spin moment: S , {S} =    0.00000   0.00000   0.00000   0.00000
   scf:    9    -4146.748964    -4146.728045    -4146.728045  0.006960 -3.782338  0.342789
     spin moment: S , {S} =    0.00000   0.00000   0.00000   0.00000
   scf:   10    -4146.778059    -4146.747766    -4146.747766  0.019872 -3.806842  0.207672
     spin moment: S , {S} =    0.00000  -0.00000   0.00000  -0.00000
   scf:   11    -4146.751206    -4146.749413    -4146.749413  0.005839 -3.800388  0.053443
     spin moment: S , {S} =    0.00000   0.00000  -0.00000  -0.00000
   scf:   12    -4146.750285    -4146.749862    -4146.749862  0.001182 -3.791844  0.025254
     spin moment: S , {S} =    0.00000   0.00000  -0.00000   0.00000
   scf:   13    -4146.750259    -4146.750055    -4146.750055  0.001468 -3.792855  0.017624
     spin moment: S , {S} =    0.00000   0.00000  -0.00000   0.00000
   scf:   14    -4146.750306    -4146.750173    -4146.750173  0.001373 -3.790673  0.014128
     spin moment: S , {S} =    0.00000  -0.00000   0.00000   0.00000
   scf:   15    -4146.750310    -4146.750236    -4146.750236  0.001220 -3.790482  0.010446
     spin moment: S , {S} =    0.00000  -0.00000   0.00000   0.00000
   scf:   16    -4146.750333    -4146.750277    -4146.750277  0.001269 -3.790537  0.006744
     spin moment: S , {S} =    0.00000  -0.00000   0.00000   0.00000
   scf:   17    -4146.750310    -4146.750292    -4146.750292  0.000759 -3.790568  0.004494
     spin moment: S , {S} =    0.00000   0.00000  -0.00000   0.00000
   scf:   18    -4146.750304    -4146.750297    -4146.750297  0.000466 -3.790569  0.002423
     spin moment: S , {S} =    0.00000   0.00000  -0.00000   0.00000
   scf:   19    -4146.750302    -4146.750299    -4146.750299  0.000299 -3.790597  0.001310
     spin moment: S , {S} =    0.00000   0.00000  -0.00000   0.00000
   scf:   20    -4146.750300    -4146.750299    -4146.750299  0.000152 -3.790594  0.000738
     spin moment: S , {S} =    0.00000   0.00000  -0.00000   0.00000
   scf:   21    -4146.750300    -4146.750300    -4146.750300  0.000132 -3.790607  0.000354
     spin moment: S , {S} =    0.00000   0.00000  -0.00000   0.00000
   scf:   22    -4146.750300    -4146.750300    -4146.750300  0.000057 -3.790612  0.000184
     spin moment: S , {S} =    0.00000   0.00000  -0.00000   0.00000
   scf:   23    -4146.750300    -4146.750300    -4146.750300  0.000014 -3.790617  0.000134
     spin moment: S , {S} =    0.00000  -0.00000  -0.00000   0.00000
   scf:   24    -4146.750300    -4146.750300    -4146.750300  0.000005 -3.790620  0.000103
     spin moment: S , {S} =    0.00000  -0.00000   0.00000   0.00000
mix: Pulay -- resetting history
   scf:   25    -4146.750300    -4146.750300    -4146.750300  0.000005 -3.790621  0.000071
     spin moment: S , {S} =    0.00000  -0.00000  -0.00000  -0.00000
   scf:   26    -4146.750300    -4146.750300    -4146.750300  0.000007 -3.790620  0.000046
     spin moment: S , {S} =    0.00000  -0.00000   0.00000   0.00000
   scf:   27    -4146.750300    -4146.750300    -4146.750300  0.000004 -3.790619  0.000034
     spin moment: S , {S} =    0.00000  -0.00000  -0.00000  -0.00000
   scf:   28    -4146.750300    -4146.750300    -4146.750300  0.000005 -3.790618  0.000015
     spin moment: S , {S} =    0.00000  -0.00000  -0.00000  -0.00000
   scf:   29    -4146.750300    -4146.750300    -4146.750300  0.000001 -3.790618  0.000009
     spin moment: S , {S} =    0.00000  -0.00000  -0.00000  -0.00000
   scf:   30    -4146.750300    -4146.750300    -4146.750300  0.000001 -3.790618  0.000004
     spin moment: S , {S} =    0.00000  -0.00000  -0.00000  -0.00000
   scf:   31    -4146.750300    -4146.750300    -4146.750300  0.000001 -3.790618  0.000001
     spin moment: S , {S} =    0.00000  -0.00000  -0.00000  -0.00000
   scf:   32    -4146.750300    -4146.750300    -4146.750300  0.000000 -3.790618  0.000001
     spin moment: S , {S} =    0.00000  -0.00000   0.00000  -0.00000

SCF Convergence by DM+H criterion
max |DM_out - DM_in|         :     0.0000002416
max |H_out - H_in|      (eV) :     0.0000008784
SCF cycle converged after 32 iterations

Using DM_out to compute the final energy and forces
No. of atoms with KB's overlaping orbs in proc 0. Max # of overlaps:      29     162

siesta: E_KS(eV) =            -4146.7503

siesta: E_KS - E_eggbox =     -4146.7503
     spin moment: S , {S} =    0.00000  -0.00000   0.00000  -0.00000

siesta: Atomic forces (eV/Ang):
     1    4.043655   -1.101500   -0.000000
     2   -0.013626   -0.005616    0.000000
     3   -0.129014    0.076479   -0.000000
     4   -0.127623   -0.047239    0.000000
     5   -0.006744   -0.012713   -0.000000
     6   -0.094874    0.014545   -0.000000
     7   -0.009400    0.020368   -0.000000
     8    0.089042    0.001125   -0.000000
     9    0.105064   -0.122445    0.000000
    10    0.272191    0.012044    0.000000
    11   -0.024304    0.029720    0.000000
    12   -0.106372   -0.077837   -0.000000
    13   -0.000288    0.111084   -0.000000
    14    0.009118    0.012469    0.000000
    15    0.282069    0.133859   -0.000000
    16    0.002118    0.024691    0.000000
    17   -0.209493    0.100776    0.000000
    18    0.032120   -0.028810    0.000000
    19   -0.003313    0.199554    0.000000
    20   -0.019448    0.051491    0.000000
    21    0.069795   -0.169414   -0.000000
    22    0.168668   -0.029616   -0.000000
    23   -0.031550   -0.078282    0.000000
    24   -0.037889    0.093710   -0.000000
    25   -0.036802   -0.004769   -0.000000
    26   -0.023069    0.136515    0.000000
    27   -0.099914    0.121557   -0.000000
    28    2.356319    1.225544   -0.000000
    29    0.100412    0.023670    0.000000
----------------------------------------
   Tot    6.556847    0.710961    0.000000
----------------------------------------
   Max    4.043655
   Res    0.537582    sqrt( Sum f_i^2 / 3N )
----------------------------------------
   Max    4.043655    constrained

Stress tensor Voigt[x,y,z,yz,xz,xy] (kbar):        0.46        0.15       -0.09        0.00       -0.00        0.47
(Free)E + p*V (eV/cell)    -4147.3001
Target enthalpy (eV/cell)    -4146.7503

mulliken: Atomic and Orbital Populations:

Species: O                   

Atom      Orb        Charge      Spin       Svec
----------------------------------------------------------------
    1  1 2s         1.74550   0.00000      0.000  -0.000   0.000
    1  2 2s         0.06571   0.00000     -0.000   0.000   0.000
    1  3 2py        1.43549   0.00000      0.000   0.000   0.000
    1  4 2pz        1.54860   0.00000      0.000  -0.000   0.000
    1  5 2px        1.61979   0.00000     -0.000  -0.000  -0.000
    1  6 2py        0.03860   0.00000      0.000  -0.000   0.000
    1  7 2pz       -0.00503   0.00000      0.000  -0.000   0.000
    1  8 2px        0.00551   0.00000      0.000   0.000   0.000
    1  9 3Pdxy      0.00729   0.00000      0.000   0.000   0.000
    1 10 3Pdyz      0.00929   0.00000     -0.000   0.000  -0.000
    1 11 3Pdz2      0.00165   0.00000      0.000  -0.000   0.000
    1 12 3Pdxz      0.00040   0.00000     -0.000   0.000   0.000
    1 13 3Pdx2-y2   0.00703   0.00000      0.000  -0.000   0.000
    1     Total     6.47984   0.00000      0.000  -0.000   0.000

   28  1 2s         1.73232   0.00000      0.000   0.000   0.000
   28  2 2s         0.07286   0.00000     -0.000  -0.000   0.000
   28  3 2py        1.42737   0.00000     -0.000   0.000   0.000
   28  4 2pz        1.54313   0.00000     -0.000   0.000   0.000
   28  5 2px        1.63412   0.00000      0.000  -0.000  -0.000
   28  6 2py        0.04186   0.00000     -0.000   0.000   0.000
   28  7 2pz       -0.00227   0.00000     -0.000  -0.000   0.000
   28  8 2px        0.01353   0.00000     -0.000   0.000   0.000
   28  9 3Pdxy      0.00696   0.00000     -0.000   0.000   0.000
   28 10 3Pdyz      0.01023   0.00000     -0.000   0.000  -0.000
   28 11 3Pdz2      0.00125   0.00000      0.000   0.000  -0.000
   28 12 3Pdxz     -0.00017   0.00000     -0.000  -0.000  -0.000
   28 13 3Pdx2-y2   0.00773   0.00000      0.000  -0.000   0.000
   28     Total     6.48892   0.00000     -0.000   0.000   0.000

----------------------------------------------------------------
Total              12.96876   0.00000     -0.000   0.000   0.000


Species: N                   

Atom      Orb        Charge      Spin       Svec
----------------------------------------------------------------
    2  1 2s         1.54950   0.00000      0.000  -0.000  -0.000
    2  2 2s         0.08440   0.00000     -0.000   0.000   0.000
    2  3 2py        1.03209   0.00000     -0.000   0.000  -0.000
    2  4 2pz        1.22393   0.00000     -0.000  -0.000  -0.000
    2  5 2px        1.00602   0.00000     -0.000  -0.000  -0.000
    2  6 2py        0.19262   0.00000      0.000   0.000   0.000
    2  7 2pz        0.05454   0.00000     -0.000   0.000   0.000
    2  8 2px        0.19066   0.00000      0.000   0.000   0.000
    2  9 3Pdxy      0.00841   0.00000     -0.000  -0.000   0.000
    2 10 3Pdyz      0.01082   0.00000      0.000  -0.000   0.000
    2 11 3Pdz2      0.00195   0.00000     -0.000  -0.000   0.000
    2 12 3Pdxz      0.00754   0.00000      0.000   0.000   0.000
    2 13 3Pdx2-y2   0.00891   0.00000     -0.000   0.000  -0.000
    2     Total     5.37139   0.00000     -0.000  -0.000  -0.000

    3  1 2s         1.40578   0.00000     -0.000   0.000  -0.000
    3  2 2s         0.11505   0.00000      0.000  -0.000   0.000
    3  3 2py        0.94026   0.00000      0.000  -0.000  -0.000
    3  4 2pz        1.53886   0.00000      0.000  -0.000  -0.000
    3  5 2px        1.09912   0.00000      0.000  -0.000   0.000
    3  6 2py        0.24805   0.00000     -0.000   0.000   0.000
    3  7 2pz        0.00829   0.00000      0.000   0.000   0.000
    3  8 2px        0.16866   0.00000     -0.000   0.000   0.000
    3  9 3Pdxy      0.00423   0.00000      0.000  -0.000   0.000
    3 10 3Pdyz      0.00412   0.00000      0.000  -0.000  -0.000
    3 11 3Pdz2      0.00081   0.00000     -0.000   0.000   0.000
    3 12 3Pdxz      0.00264   0.00000     -0.000  -0.000  -0.000
    3 13 3Pdx2-y2   0.00299   0.00000     -0.000   0.000  -0.000
    3     Total     5.53885   0.00000      0.000  -0.000  -0.000

    4  1 2s         1.46895   0.00000      0.000   0.000   0.000
    4  2 2s         0.11671   0.00000     -0.000  -0.000   0.000
    4  3 2py        1.10461   0.00000     -0.000   0.000   0.000
    4  4 2pz        1.29280   0.00000      0.000   0.000   0.000
    4  5 2px        0.84189   0.00000     -0.000  -0.000  -0.000
    4  6 2py        0.15577   0.00000      0.000   0.000   0.000
    4  7 2pz        0.05357   0.00000      0.000   0.000   0.000
    4  8 2px        0.28652   0.00000      0.000   0.000   0.000
    4  9 3Pdxy      0.00855   0.00000      0.000  -0.000   0.000
    4 10 3Pdyz      0.01079   0.00000      0.000   0.000  -0.000
    4 11 3Pdz2      0.00132   0.00000     -0.000  -0.000  -0.000
    4 12 3Pdxz      0.00492   0.00000      0.000   0.000  -0.000
    4 13 3Pdx2-y2   0.00852   0.00000      0.000   0.000  -0.000
    4     Total     5.35492   0.00000     -0.000   0.000   0.000

    5  1 2s         1.37352   0.00000     -0.000   0.000  -0.000
    5  2 2s         0.12898   0.00000      0.000  -0.000   0.000
    5  3 2py        1.02683   0.00000     -0.000   0.000  -0.000
    5  4 2pz        1.50097   0.00000     -0.000   0.000  -0.000
    5  5 2px        1.05897   0.00000      0.000   0.000  -0.000
    5  6 2py        0.20339   0.00000      0.000  -0.000   0.000
    5  7 2pz        0.01355   0.00000      0.000   0.000   0.000
    5  8 2px        0.20250   0.00000     -0.000  -0.000   0.000
    5  9 3Pdxy      0.00369   0.00000      0.000   0.000  -0.000
    5 10 3Pdyz      0.00249   0.00000      0.000   0.000   0.000
    5 11 3Pdz2      0.00137   0.00000     -0.000  -0.000   0.000
    5 12 3Pdxz      0.00683   0.00000      0.000  -0.000   0.000
    5 13 3Pdx2-y2   0.00571   0.00000      0.000  -0.000   0.000
    5     Total     5.52880   0.00000     -0.000   0.000  -0.000

    6  1 2s         1.26622   0.00000     -0.000  -0.000  -0.000
    6  2 2s         0.18034   0.00000      0.000   0.000   0.000
    6  3 2py        1.08259   0.00000      0.000   0.000  -0.000
    6  4 2pz        1.57296   0.00000      0.000   0.000  -0.000
    6  5 2px        0.97397   0.00000     -0.000   0.000  -0.000
    6  6 2py        0.18694   0.00000     -0.000  -0.000   0.000
    6  7 2pz        0.02929   0.00000     -0.000  -0.000   0.000
    6  8 2px        0.25232   0.00000     -0.000  -0.000   0.000
    6  9 3Pdxy      0.00251   0.00000      0.000   0.000   0.000
    6 10 3Pdyz      0.00011   0.00000     -0.000   0.000  -0.000
    6 11 3Pdz2      0.00163   0.00000     -0.000   0.000   0.000
    6 12 3Pdxz      0.00292   0.00000      0.000   0.000  -0.000
    6 13 3Pdx2-y2   0.00305   0.00000     -0.000  -0.000   0.000
    6     Total     5.55484   0.00000     -0.000   0.000  -0.000

   21  1 2s         1.40914   0.00000      0.000   0.000  -0.000
   21  2 2s         0.13329   0.00000     -0.000  -0.000   0.000
   21  3 2py        0.87266   0.00000      0.000   0.000  -0.000
   21  4 2pz        1.29568   0.00000      0.000   0.000   0.000
   21  5 2px        1.15761   0.00000      0.000   0.000  -0.000
   21  6 2py        0.28047   0.00000     -0.000  -0.000   0.000
   21  7 2pz        0.04972   0.00000     -0.000   0.000   0.000
   21  8 2px        0.16437   0.00000     -0.000  -0.000   0.000
   21  9 3Pdxy      0.00643   0.00000      0.000   0.000   0.000
   21 10 3Pdyz      0.00513   0.00000     -0.000   0.000  -0.000
   21 11 3Pdz2     -0.00004   0.00000      0.000   0.000   0.000
   21 12 3Pdxz      0.00582   0.00000     -0.000   0.000   0.000
   21 13 3Pdx2-y2   0.00559   0.00000     -0.000  -0.000  -0.000
   21     Total     5.38586   0.00000      0.000   0.000   0.000

   22  1 2s         1.28547   0.00000      0.000   0.000   0.000
   22  2 2s         0.17192   0.00000     -0.000  -0.000  -0.000
   22  3 2py        1.07188   0.00000     -0.000  -0.000  -0.000
   22  4 2pz        1.55527   0.00000     -0.000  -0.000  -0.000
   22  5 2px        1.00450   0.00000      0.000   0.000  -0.000
   22  6 2py        0.19297   0.00000      0.000  -0.000   0.000
   22  7 2pz        0.02787   0.00000      0.000  -0.000   0.000
   22  8 2px        0.23251   0.00000     -0.000  -0.000   0.000
   22  9 3Pdxy      0.00338   0.00000     -0.000   0.000   0.000
   22 10 3Pdyz      0.00012   0.00000      0.000   0.000  -0.000
   22 11 3Pdz2      0.00253   0.00000     -0.000  -0.000   0.000
   22 12 3Pdxz      0.00285   0.00000     -0.000   0.000  -0.000
   22 13 3Pdx2-y2   0.00336   0.00000      0.000   0.000  -0.000
   22     Total     5.55463   0.00000      0.000  -0.000  -0.000

   23  1 2s         1.39709   0.00000      0.000   0.000  -0.000
   23  2 2s         0.11765   0.00000     -0.000  -0.000  -0.000
   23  3 2py        0.99680   0.00000      0.000   0.000  -0.000
   23  4 2pz        1.52041   0.00000      0.000  -0.000  -0.000
   23  5 2px        1.07468   0.00000      0.000   0.000  -0.000
   23  6 2py        0.22112   0.00000     -0.000  -0.000   0.000
   23  7 2pz        0.00536   0.00000     -0.000   0.000   0.000
   23  8 2px        0.19223   0.00000     -0.000  -0.000   0.000
   23  9 3Pdxy      0.00525   0.00000      0.000   0.000   0.000
   23 10 3Pdyz      0.00451   0.00000      0.000   0.000  -0.000
   23 11 3Pdz2      0.00055   0.00000      0.000   0.000   0.000
   23 12 3Pdxz      0.00230   0.00000      0.000   0.000  -0.000
   23 13 3Pdx2-y2   0.00118   0.00000     -0.000   0.000  -0.000
   23     Total     5.53914   0.00000      0.000  -0.000  -0.000

----------------------------------------------------------------
Total              56.79721   0.00000      0.000   0.000  -0.000


Species: Si                  

Atom      Orb        Charge      Spin       Svec
----------------------------------------------------------------
    7  1 3s         0.68905   0.00000     -0.000   0.000   0.000
    7  2 3s         0.35766   0.00000      0.000  -0.000   0.000
    7  3 3py        0.47572   0.00000     -0.000  -0.000   0.000
    7  4 3pz        0.70228   0.00000     -0.000   0.000   0.000
    7  5 3px        0.13675   0.00000     -0.000   0.000   0.000
    7  6 3py        0.27094   0.00000      0.000   0.000   0.000
    7  7 3pz        0.25761   0.00000      0.000   0.000   0.000
    7  8 3px        0.42182   0.00000      0.000  -0.000   0.000
    7  9 3Pdxy      0.24265   0.00000      0.000  -0.000   0.000
    7 10 3Pdyz      0.03027   0.00000     -0.000   0.000   0.000
    7 11 3Pdz2      0.01206   0.00000      0.000   0.000   0.000
    7 12 3Pdxz      0.13843   0.00000      0.000  -0.000  -0.000
    7 13 3Pdx2-y2   0.11315   0.00000      0.000   0.000   0.000
    7     Total     3.84839   0.00000     -0.000   0.000   0.000

    8  1 3s         0.64797   0.00000      0.000  -0.000  -0.000
    8  2 3s         0.37137   0.00000     -0.000   0.000   0.000
    8  3 3py        0.38724   0.00000      0.000  -0.000  -0.000
    8  4 3pz        0.52368   0.00000      0.000   0.000  -0.000
    8  5 3px       -0.03111   0.00000      0.000  -0.000  -0.000
    8  6 3py        0.30451   0.00000     -0.000   0.000   0.000
    8  7 3pz        0.20270   0.00000      0.000  -0.000   0.000
    8  8 3px        0.52022   0.00000     -0.000   0.000   0.000
    8  9 3Pdxy      0.25903   0.00000      0.000  -0.000   0.000
    8 10 3Pdyz      0.11046   0.00000      0.000   0.000  -0.000
    8 11 3Pdz2      0.01324   0.00000     -0.000   0.000   0.000
    8 12 3Pdxz      0.15622   0.00000      0.000  -0.000   0.000
    8 13 3Pdx2-y2   0.18813   0.00000      0.000  -0.000  -0.000
    8     Total     3.65366   0.00000      0.000  -0.000  -0.000

    9  1 3s         0.62950   0.00000     -0.000  -0.000   0.000
    9  2 3s         0.35588   0.00000      0.000  -0.000  -0.000
    9  3 3py        0.08602   0.00000     -0.000   0.000   0.000
    9  4 3pz        0.48323   0.00000     -0.000   0.000  -0.000
    9  5 3px        0.37266   0.00000     -0.000   0.000  -0.000
    9  6 3py        0.43818   0.00000      0.000  -0.000  -0.000
    9  7 3pz        0.18376   0.00000      0.000  -0.000  -0.000
    9  8 3px        0.26753   0.00000      0.000  -0.000   0.000
    9  9 3Pdxy      0.31330   0.00000      0.000  -0.000   0.000
    9 10 3Pdyz      0.19233   0.00000     -0.000  -0.000  -0.000
    9 11 3Pdz2      0.01604   0.00000     -0.000  -0.000  -0.000
    9 12 3Pdxz      0.08889   0.00000      0.000  -0.000  -0.000
    9 13 3Pdx2-y2   0.15551   0.00000      0.000   0.000  -0.000
    9     Total     3.58282   0.00000     -0.000  -0.000  -0.000

   10  1 3s         0.48230   0.00000      0.000   0.000   0.000
   10  2 3s         0.38027   0.00000     -0.000  -0.000   0.000
   10  3 3py        0.23865   0.00000     -0.000  -0.000   0.000
   10  4 3pz        0.40893   0.00000     -0.000  -0.000   0.000
   10  5 3px        0.10256   0.00000     -0.000  -0.000  -0.000
   10  6 3py        0.33592   0.00000      0.000   0.000   0.000
   10  7 3pz        0.22096   0.00000     -0.000   0.000   0.000
   10  8 3px        0.42302   0.00000      0.000   0.000   0.000
   10  9 3Pdxy      0.16303   0.00000     -0.000  -0.000  -0.000
   10 10 3Pdyz      0.14823   0.00000     -0.000   0.000   0.000
   10 11 3Pdz2      0.01123   0.00000      0.000   0.000  -0.000
   10 12 3Pdxz      0.17032   0.00000     -0.000  -0.000   0.000
   10 13 3Pdx2-y2   0.32110   0.00000     -0.000   0.000  -0.000
   10     Total     3.40653   0.00000      0.000  -0.000   0.000

   11  1 3s         0.55852   0.00000     -0.000   0.000   0.000
   11  2 3s         0.38193   0.00000      0.000  -0.000  -0.000
   11  3 3py        0.30446   0.00000     -0.000   0.000   0.000
   11  4 3pz        0.54422   0.00000      0.000   0.000   0.000
   11  5 3px        0.13889   0.00000     -0.000  -0.000   0.000
   11  6 3py        0.30285   0.00000      0.000  -0.000   0.000
   11  7 3pz        0.17667   0.00000     -0.000  -0.000   0.000
   11  8 3px        0.43164   0.00000      0.000   0.000   0.000
   11  9 3Pdxy      0.24382   0.00000     -0.000  -0.000   0.000
   11 10 3Pdyz      0.12486   0.00000     -0.000  -0.000   0.000
   11 11 3Pdz2      0.00940   0.00000      0.000   0.000   0.000
   11 12 3Pdxz      0.05276   0.00000      0.000   0.000   0.000
   11 13 3Pdx2-y2   0.18387   0.00000      0.000   0.000   0.000
   11     Total     3.45388   0.00000     -0.000   0.000   0.000

   17  1 3s         0.64744   0.00000      0.000   0.000   0.000
   17  2 3s         0.35839   0.00000     -0.000   0.000  -0.000
   17  3 3py        0.24848   0.00000     -0.000  -0.000   0.000
   17  4 3pz        0.42540   0.00000     -0.000  -0.000   0.000
   17  5 3px        0.22809   0.00000     -0.000   0.000   0.000
   17  6 3py        0.37041   0.00000     -0.000   0.000  -0.000
   17  7 3pz        0.21344   0.00000      0.000   0.000   0.000
   17  8 3px        0.37732   0.00000      0.000   0.000  -0.000
   17  9 3Pdxy      0.29501   0.00000     -0.000   0.000  -0.000
   17 10 3Pdyz      0.13911   0.00000     -0.000  -0.000   0.000
   17 11 3Pdz2      0.00971   0.00000      0.000  -0.000   0.000
   17 12 3Pdxz      0.14779   0.00000      0.000   0.000   0.000
   17 13 3Pdx2-y2   0.16989   0.00000     -0.000  -0.000  -0.000
   17     Total     3.63048   0.00000     -0.000   0.000   0.000

   18  1 3s         0.74618   0.00000     -0.000  -0.000   0.000
   18  2 3s         0.33838   0.00000      0.000   0.000   0.000
   18  3 3py        0.08782   0.00000     -0.000   0.000   0.000
   18  4 3pz        0.82904   0.00000      0.000  -0.000   0.000
   18  5 3px        0.54561   0.00000     -0.000  -0.000   0.000
   18  6 3py        0.51433   0.00000      0.000  -0.000   0.000
   18  7 3pz        0.19748   0.00000     -0.000   0.000   0.000
   18  8 3px        0.25237   0.00000      0.000  -0.000   0.000
   18  9 3Pdxy      0.10878   0.00000      0.000   0.000  -0.000
   18 10 3Pdyz      0.02774   0.00000      0.000   0.000  -0.000
   18 11 3Pdz2      0.00936   0.00000     -0.000   0.000  -0.000
   18 12 3Pdxz      0.02927   0.00000      0.000  -0.000   0.000
   18 13 3Pdx2-y2   0.10627   0.00000     -0.000   0.000   0.000
   18     Total     3.79263   0.00000     -0.000  -0.000   0.000

   19  1 3s         0.45559   0.00000      0.000  -0.000  -0.000
   19  2 3s         0.36477   0.00000      0.000   0.000  -0.000
   19  3 3py        0.08067   0.00000     -0.000   0.000  -0.000
   19  4 3pz        0.41927   0.00000      0.000  -0.000  -0.000
   19  5 3px        0.34931   0.00000     -0.000  -0.000   0.000
   19  6 3py        0.46959   0.00000      0.000  -0.000  -0.000
   19  7 3pz        0.18663   0.00000      0.000   0.000  -0.000
   19  8 3px        0.24218   0.00000      0.000   0.000  -0.000
   19  9 3Pdxy      0.34880   0.00000     -0.000   0.000   0.000
   19 10 3Pdyz      0.19052   0.00000      0.000   0.000  -0.000
   19 11 3Pdz2      0.01584   0.00000      0.000   0.000  -0.000
   19 12 3Pdxz      0.08559   0.00000      0.000  -0.000   0.000
   19 13 3Pdx2-y2   0.22999   0.00000     -0.000  -0.000  -0.000
   19     Total     3.43875   0.00000      0.000  -0.000  -0.000

   20  1 3s         0.67333   0.00000     -0.000  -0.000  -0.000
   20  2 3s         0.37974   0.00000      0.000   0.000   0.000
   20  3 3py        0.33747   0.00000     -0.000   0.000  -0.000
   20  4 3pz        0.58143   0.00000     -0.000   0.000  -0.000
   20  5 3px        0.13849   0.00000      0.000  -0.000   0.000
   20  6 3py        0.29018   0.00000      0.000  -0.000   0.000
   20  7 3pz        0.16324   0.00000      0.000   0.000  -0.000
   20  8 3px        0.49928   0.00000     -0.000  -0.000   0.000
   20  9 3Pdxy      0.10263   0.00000     -0.000   0.000  -0.000
   20 10 3Pdyz      0.13480   0.00000     -0.000   0.000  -0.000
   20 11 3Pdz2      0.00733   0.00000     -0.000  -0.000   0.000
   20 12 3Pdxz      0.02685   0.00000      0.000  -0.000  -0.000
   20 13 3Pdx2-y2   0.17098   0.00000      0.000   0.000   0.000
   20     Total     3.50576   0.00000     -0.000  -0.000  -0.000

----------------------------------------------------------------
Total              89.11011   0.00000     -0.000  -0.000   0.000


Species: H                   

Atom      Orb        Charge      Spin       Svec
----------------------------------------------------------------
   12  1 1s         0.48771   0.00000     -0.000  -0.000  -0.000
   12  2 1s         0.18617   0.00000      0.000   0.000   0.000
   12  3 2Ppy       0.02871   0.00000     -0.000  -0.000  -0.000
   12  4 2Ppz       0.03484   0.00000      0.000   0.000  -0.000
   12  5 2Ppx       0.02338   0.00000      0.000  -0.000  -0.000
   12     Total     0.76081   0.00000      0.000   0.000  -0.000

   13  1 1s         1.02060   0.00000      0.000  -0.000  -0.000
   13  2 1s         0.09459   0.00000     -0.000   0.000   0.000
   13  3 2Ppy       0.01983   0.00000      0.000  -0.000   0.000
   13  4 2Ppz       0.02018   0.00000     -0.000   0.000   0.000
   13  5 2Ppx       0.03318   0.00000      0.000  -0.000   0.000
   13     Total     1.18839   0.00000      0.000  -0.000  -0.000

   14  1 1s         0.46488   0.00000      0.000   0.000  -0.000
   14  2 1s         0.19972   0.00000      0.000   0.000   0.000
   14  3 2Ppy       0.01837   0.00000      0.000   0.000  -0.000
   14  4 2Ppz       0.04715   0.00000     -0.000   0.000  -0.000
   14  5 2Ppx       0.01738   0.00000     -0.000  -0.000  -0.000
   14     Total     0.74749   0.00000      0.000   0.000  -0.000

   15  1 1s         0.46004   0.00000     -0.000   0.000  -0.000
   15  2 1s         0.20020   0.00000     -0.000   0.000   0.000
   15  3 2Ppy       0.00533   0.00000     -0.000  -0.000   0.000
   15  4 2Ppz       0.04628   0.00000     -0.000  -0.000  -0.000
   15  5 2Ppx       0.02874   0.00000      0.000   0.000  -0.000
   15     Total     0.74059   0.00000     -0.000   0.000   0.000

   16  1 1s         0.50796   0.00000     -0.000   0.000  -0.000
   16  2 1s         0.18773   0.00000      0.000  -0.000   0.000
   16  3 2Ppy       0.03005   0.00000     -0.000  -0.000  -0.000
   16  4 2Ppz       0.03951   0.00000     -0.000   0.000  -0.000
   16  5 2Ppx       0.02320   0.00000      0.000   0.000  -0.000
   16     Total     0.78845   0.00000     -0.000   0.000  -0.000

   24  1 1s         1.05760   0.00000     -0.000   0.000  -0.000
   24  2 1s         0.07619   0.00000      0.000   0.000   0.000
   24  3 2Ppy       0.03151   0.00000      0.000  -0.000   0.000
   24  4 2Ppz       0.03131   0.00000      0.000   0.000   0.000
   24  5 2Ppx       0.01753   0.00000      0.000  -0.000  -0.000
   24     Total     1.21413   0.00000      0.000   0.000  -0.000

   25  1 1s         1.04763   0.00000      0.000  -0.000  -0.000
   25  2 1s         0.08409   0.00000     -0.000   0.000   0.000
   25  3 2Ppy       0.01170   0.00000      0.000   0.000  -0.000
   25  4 2Ppz       0.01791   0.00000     -0.000  -0.000  -0.000
   25  5 2Ppx       0.03641   0.00000      0.000  -0.000   0.000
   25     Total     1.19774   0.00000      0.000  -0.000  -0.000

   26  1 1s         0.47578   0.00000      0.000   0.000  -0.000
   26  2 1s         0.19886   0.00000     -0.000   0.000   0.000
   26  3 2Ppy       0.01883   0.00000      0.000   0.000   0.000
   26  4 2Ppz       0.05137   0.00000      0.000  -0.000   0.000
   26  5 2Ppx       0.01612   0.00000     -0.000  -0.000  -0.000
   26     Total     0.76095   0.00000      0.000  -0.000  -0.000

   27  1 1s         0.46036   0.00000      0.000   0.000   0.000
   27  2 1s         0.19775   0.00000     -0.000   0.000   0.000
   27  3 2Ppy       0.00644   0.00000     -0.000  -0.000   0.000
   27  4 2Ppz       0.04159   0.00000     -0.000   0.000   0.000
   27  5 2Ppx       0.03007   0.00000      0.000   0.000  -0.000
   27     Total     0.73621   0.00000      0.000   0.000   0.000

   29  1 1s         0.48343   0.00000     -0.000   0.000  -0.000
   29  2 1s         0.18835   0.00000      0.000   0.000   0.000
   29  3 2Ppy       0.02515   0.00000      0.000  -0.000  -0.000
   29  4 2Ppz       0.03428   0.00000     -0.000   0.000  -0.000
   29  5 2Ppx       0.02390   0.00000      0.000  -0.000  -0.000
   29     Total     0.75512   0.00000     -0.000   0.000  -0.000

----------------------------------------------------------------
Total              98.00000   0.00000     -0.000   0.000  -0.000


siesta: Eigenvalues (eV):
ik =     1
  -22.1028  -22.1028  -21.8983  -21.8983  -21.6093  -21.6093  -21.4229  -21.4229  -21.2906  -21.2906
  -21.1114  -21.1114  -20.7348  -20.7348  -19.8053  -19.8053  -19.5086  -19.5086  -19.3626  -19.3626
  -14.7262  -14.7262  -13.8635  -13.8635  -13.2927  -13.2927  -13.1480  -13.1480  -13.0391  -13.0391
  -12.7805  -12.7805  -12.7050  -12.7050  -12.3896  -12.3896  -12.3044  -12.3044  -11.9614  -11.9614
  -11.3515  -11.3515  -10.7792  -10.7792  -10.7083  -10.7083  -10.6199  -10.6199  -10.0918  -10.0918
   -9.5801   -9.5801   -9.1409   -9.1409   -8.9571   -8.9571   -8.7485   -8.7485   -8.6289   -8.6289
   -8.5658   -8.5658   -8.4259   -8.4259   -8.1527   -8.1527   -7.7871   -7.7871   -7.7754   -7.7754
   -7.6741   -7.6741   -7.4263   -7.4263   -7.2199   -7.2199   -6.8135   -6.8135   -6.7540   -6.7540
   -6.5765   -6.5765   -6.5281   -6.5281   -6.2678   -6.2678   -6.1979   -6.1979   -6.1792   -6.1792
   -6.0287   -6.0287   -5.9023   -5.9023   -5.4693   -5.4693   -4.3630   -4.3630   -3.2201   -3.2201
   -2.3881   -2.3881   -2.2821   -2.2821   -2.2518   -2.2518   -1.9594   -1.9594   -1.8761   -1.8761
   -1.8201   -1.8201   -1.7789   -1.7789   -1.6016   -1.6016   -1.4343   -1.4343   -1.2356   -1.2356
   -0.9853   -0.9853   -0.7471   -0.7471   -0.4420   -0.4420   -0.2214   -0.2214    0.2826    0.2826
    0.3446    0.3446    0.3855    0.3855    0.6858    0.6858    0.7242    0.7242    0.9150    0.9150
    1.1914    1.1914    1.3078    1.3078    1.4056    1.4056    1.4455    1.4455    1.5539    1.5539
    1.7745    1.7745    1.9324    1.9324    2.2693    2.2693    2.5017    2.5017    2.6514    2.6514
    2.7121    2.7121    2.9555    2.9555    3.0105    3.0105    3.2200    3.2200    3.3381    3.3381
    3.4769    3.4769    3.7726    3.7726    3.9418    3.9418    4.1244    4.1244    4.3697    4.3697
    4.4916    4.4916    4.5239    4.5239    4.5925    4.5925    4.7413    4.7413    4.8231    4.8231
    4.8283    4.8283    5.1857    5.1857    5.2606    5.2606    5.5719    5.5719    5.6165    5.6165
    5.6672    5.6672    5.7772    5.7772    5.9584    5.9584    6.0741    6.0741    6.2215    6.2215
    6.2290    6.2290    6.3515    6.3515    6.5761    6.5761    6.6427    6.6427    6.8517    6.8517
    7.1481    7.1481    7.1513    7.1513    7.3028    7.3028    7.5741    7.5741    7.7264    7.7264
    7.8557    7.8557    8.0501    8.0501    8.1015    8.1015    8.2227    8.2227    8.3527    8.3527
    8.6001    8.6001    8.7125    8.7125    8.7724    8.7724    8.9422    8.9422    9.1960    9.1960
    9.2143    9.2143    9.3520    9.3520    9.7403    9.7403    9.7638    9.7638    9.7757    9.7757
    9.8556    9.8556   10.1772   10.1772   10.3690   10.3690   10.8371   10.8371   10.9097   10.9097
   10.9736   10.9736   11.0512   11.0512   11.2958   11.2958   11.7433   11.7433   12.0215   12.0215
   12.0766   12.0766   12.1087   12.1087   12.1547   12.1547   12.3623   12.3623   12.4917   12.4917
   12.7708   12.7708   12.8322   12.8322   13.4497   13.4497   13.5872   13.5872   13.7999   13.7999
   13.9064   13.9064   14.0175   14.0175   14.1483   14.1483   14.2671   14.2671   14.6923   14.6923
   15.0039   15.0039   15.5123   15.5123   15.8506   15.8506   16.2293   16.2293   16.7505   16.7505
   16.9434   16.9434   17.3577   17.3577   18.0214   18.0214   18.3283   18.3283   18.4893   18.4893
   18.4960   18.4960   19.2846   19.2846   19.4864   19.4864   20.1539   20.1539   20.2028   20.2028
   21.0137   21.0137   21.1889   21.1889   21.8302   21.8302   22.3030   22.3030   22.5689   22.5689
   23.0295   23.0295   23.2348   23.2348   23.5771   23.5771   23.9000   23.9000   23.9706   23.9706
   24.7669   24.7669   24.8456   24.8456   26.2260   26.2260   26.9428   26.9428   28.5983   28.5983
   28.8667   28.8667   29.1571   29.1571   29.4956   29.4956   30.0300   30.0300   30.0583   30.0583
   30.2442   30.2442   30.3861   30.3861   30.6343   30.6343   30.9872   30.9872   31.0747   31.0747
   31.1704   31.1704   31.5095   31.5095   31.7405   31.7405   32.0930   32.0930   32.2598   32.2598
   33.3674   33.3674   34.2561   34.2561   34.3349   34.3349   34.4845   34.4845   34.6992   34.6992
   34.9810   34.9810   35.1932   35.1932   35.3116   35.3116   35.4717   35.4717   35.8273   35.8273
   36.7901   36.7901   36.9350   36.9350   37.3654   37.3654   37.5015   37.5015   37.9474   37.9474
   38.1274   38.1274   38.6310   38.6310   39.2859   39.2859   39.3722   39.3722   40.0035   40.0035
   40.2138   40.2138   40.7335   40.7335   40.7584   40.7584   40.8407   40.8407   41.3526   41.3526
   41.5821   41.5821   42.0469   42.0469   42.9499   42.9499   43.0446   43.0446   43.2420   43.2420
   43.4370   43.4370   43.7848   43.7848   44.0028   44.0028   44.1341   44.1341   44.3001   44.3001
   44.7283   44.7283   44.8672   44.8672   45.0182   45.0182   45.4846   45.4846   46.2087   46.2087
   46.6766   46.6766   47.1296   47.1296   47.4089   47.4089   48.9977   48.9977   49.2514   49.2514
   49.7846   49.7846   50.4264   50.4264   50.9791   50.9791   51.0703   51.0703   51.2669   51.2669
   51.6535   51.6535   51.6974   51.6974   52.4321   52.4321   53.3139   53.3139   54.6214   54.6214
   54.7299   54.7299   55.2238   55.2238   55.4591   55.4591   55.8225   55.8225   55.9731   55.9731
   56.3771   56.3771   56.8284   56.8284   57.0053   57.0053   58.3197   58.3197   59.1073   59.1073
   59.7641   59.7641   60.3317   60.3317   60.4503   60.4503   61.2378   61.2378   61.7407   61.7407
   61.9577   61.9577   62.4434   62.4434   62.9614   62.9614   64.4364   64.4364   66.4077   66.4077
   67.2688   67.2688   67.4992   67.4992   68.9263   68.9263   68.9745   68.9745   70.7100   70.7100
   73.6036   73.6036   81.4420   81.4420   90.2675   90.2675   91.7037   91.7037   93.4961   93.4961
   98.3543   98.3543   99.5782   99.5782  100.7848  100.7848  103.3997  103.3997  103.7340  103.7340
  110.5583  110.5583  111.7888  111.7888  123.9060  123.9060  126.2446  126.2446  131.1717  131.1717
  139.9931  139.9931  141.4036  141.4036
siesta: Fermi energy =      -3.790618 eV

siesta: Program's energy decomposition (eV):
siesta: Ebs     =     -1135.541802
siesta: Eions   =      3585.165840
siesta: Ena     =       384.947627
siesta: Ekin    =      2907.679304
siesta: Enl     =     -2795.248073
siesta: Eso     =        -0.004254
siesta: Edftu   =         0.000000
siesta: DEna    =        47.527487
siesta: DUscf   =        14.290562
siesta: DUext   =         0.000000
siesta: Exc     =     -1120.777113
siesta: eta*DQ  =         0.000000
siesta: Emadel  =         0.000000
siesta: Emeta   =         0.000000
siesta: Emolmec =         0.000000
siesta: Ekinion =         0.000000
siesta: Eharris =     -4146.750300
siesta: Etot    =     -4146.750300
siesta: FreeEng =     -4146.750300

siesta: Final energy (eV):
siesta:  Band Struct. =   -1135.541802
siesta:       Kinetic =    2907.679304
siesta:       Hartree =    8379.008980
siesta:       Edftu   =       0.000000
siesta:       Eso     =      -0.004254
siesta:    Ext. field =       0.000000
siesta:   Exch.-corr. =   -1120.777113
siesta:  Ion-electron =  -19346.340843
siesta:       Ion-ion =    5033.683626
siesta:       Ekinion =       0.000000
siesta:         Total =   -4146.750300
siesta:         Fermi =      -3.790618

siesta: Atomic forces (eV/Ang):
siesta:      1    4.043655   -1.101500   -0.000000
siesta:      2   -0.013626   -0.005616    0.000000
siesta:      3   -0.129014    0.076479   -0.000000
siesta:      4   -0.127623   -0.047239    0.000000
siesta:      5   -0.006744   -0.012713   -0.000000
siesta:      6   -0.094874    0.014545   -0.000000
siesta:      7   -0.009400    0.020368   -0.000000
siesta:      8    0.089042    0.001125   -0.000000
siesta:      9    0.105064   -0.122445    0.000000
siesta:     10    0.272191    0.012044    0.000000
siesta:     11   -0.024304    0.029720    0.000000
siesta:     12   -0.106372   -0.077837   -0.000000
siesta:     13   -0.000288    0.111084   -0.000000
siesta:     14    0.009118    0.012469    0.000000
siesta:     15    0.282069    0.133859   -0.000000
siesta:     16    0.002118    0.024691    0.000000
siesta:     17   -0.209493    0.100776    0.000000
siesta:     18    0.032120   -0.028810    0.000000
siesta:     19   -0.003313    0.199554    0.000000
siesta:     20   -0.019448    0.051491    0.000000
siesta:     21    0.069795   -0.169414   -0.000000
siesta:     22    0.168668   -0.029616   -0.000000
siesta:     23   -0.031550   -0.078282    0.000000
siesta:     24   -0.037889    0.093710   -0.000000
siesta:     25   -0.036802   -0.004769   -0.000000
siesta:     26   -0.023069    0.136515    0.000000
siesta:     27   -0.099914    0.121557   -0.000000
siesta:     28    2.356319    1.225544   -0.000000
siesta:     29    0.100412    0.023670    0.000000
siesta: ----------------------------------------
siesta:    Tot    6.556847    0.710961    0.000000

siesta: Stress tensor (static) (eV/Ang**3):
siesta:     0.000284    0.000290    0.000000
siesta:     0.000290    0.000094    0.000000
siesta:    -0.000000    0.000000   -0.000057

siesta: Cell volume =       5137.522903 Ang**3

siesta: Pressure (static):
siesta:                Solid            Molecule  Units
siesta:          -0.00000117          0.00000055  Ry/Bohr**3
siesta:          -0.00010702          0.00005012  eV/Ang**3
siesta:          -0.17147176          0.08030642  kBar
(Free)E+ p_basis*V_orbitals  =       -4126.899882
(Free)Eharris+ p_basis*V_orbitals  =       -4126.899882
     spin moment: S , {S} =    0.00000  -0.00000   0.00000  -0.00000

siesta: Electric dipole (a.u.)  =    1.449638    0.040364   -0.000000
siesta: Electric dipole (Debye) =    3.684615    0.102594   -0.000000

cite: Please see "GC.bib" for an exhaustive BiBTeX file.
cite: Please clearly indicate Siesta version in published work: v4.1.5-1-g384057250
cite: This calculation has made use of the following articles
cite: which are encouraged to be cited in a published work.
        Primary SIESTA paper
          DOI: www.doi.org/10.1088/0953-8984/14/11/302
        Spin-orbit coupling (on-site approximation)
          DOI: www.doi.org/10.1088/0953-8984/19/19/489001


WARNING: alloc-realloc-dealloc name mismatch
         Name: atomlist isa
         Size:              -116. Bytes
         Node:     0
         Subsequent mismatches will not be reported
>> End of run:  22-MAY-2023  18:00:57
Job completed
