Siesta Version  : v4.1.5-1-g384057250
Architecture    : gcc
Compiler version: GNU Fortran (Ubuntu 11.4.0-1ubuntu1~22.04) 11.4.0
Compiler flags  : mpifort -O2 -fPIC -ftree-vectorize -fallow-argument-mismatch
PP flags        : -DFC_HAVE_ABORT -DMPI -DSIESTA__FLOOK -DSIESTA__METIS -DSIESTA__MUMPS -DCDF -DNCDF -DNCDF_4 -DNCDF_PARALLEL -DSIESTA__MRRR -DSIESTA__ELPA
Libraries       : libncdf.a libfdict.a  -lflookall -ldl -lnetcdff -lnetcdf -lhdf5_hl -lhdf5 -lhdf5_fortran -lz -lscalapack-openmpi -lopenblas -lmetis -lzmumps -lcmumps -ldmumps -lmumps_common -lpord -lsmumps -lesmumps -lscotch -lscotcherr -fopenmp -lelpa
PARALLEL version
NetCDF support
NetCDF-4 support
NetCDF-4 MPI-IO support
METIS ordering support
Lua support

* Running on 8 nodes in parallel
>> Start of run:  18-FEB-2024  21:10:27

                           ***********************       
                           *  WELCOME TO SIESTA  *       
                           ***********************       

reinit: Reading from standard input
reinit: Dumped input in INPUT_TMP.51749
************************** Dump of input data file ****************************
# mpirun -np 4 siesta-4.1.5 < GC.fdf > GC.out &
SystemLabel      GC
NumberOfAtoms    29
NumberOfSpecies  4
%block ChemicalSpeciesLabel
    1    1  H
    2    7  N
    3   14  Si
    4    8  O
%endblock ChemicalSpeciesLabel
############################################
# This overrides Defaults.fdf configuration
############################################
MD.TypeOfRun                Verlet # CG, Verlet
MD.Steps                    0
MaxSCFIterations            200
SCF.MustConverge            T
AtomicCoordinatesFormat NotScaledCartesianAng
%block AtomicCoordinatesAndAtomicSpecies
    1.03711479    3.59345352   -0.00000000   1       1  H
    0.33062806    2.80341734   -0.00000000   2       2  N
   -1.39965885    3.24478125    0.00000000   3       3  Si
   -1.55543853    4.73477351    0.00000000   1       4  H
   -2.92298047    1.68587373   -0.00000000   3       5  Si
   -4.40616810    1.92870409   -0.00000000   1       6  H
   -1.72458961   -0.22740243   -0.00000000   3       7  Si
   -2.49061507   -1.76011917   -0.00000000   2       8  N
   -1.90036852   -2.71733220    0.00000000   1       9  H
   -3.54223739   -1.84057940   -0.00000000   1      10  H
   -0.00838955   -0.17222812    0.00000000   2      11  N
    1.06663307    1.15811072   -0.00000000   3      12  Si
    2.67530639    1.13930046   -0.00000000   4      13  O
    5.61644830   -7.44953905    0.00000000   1      14  H
    4.58206954   -7.23203760    0.00000000   2      15  N
    3.29666389   -8.49263600    0.00000000   3      16  Si
    3.80117524   -9.90371886   -0.00000000   1      17  H
    1.65934232   -8.01362137    0.00000000   2      18  N
    1.68097912   -6.20463398   -0.00000000   3      19  Si
    0.54543521   -4.28636135    0.00000000   3      20  Si
   -1.03431493   -3.94450034    0.00000000   4      21  O
    1.73226934   -2.87719605    0.00000000   2      22  N
    1.20957366   -1.92961761   -0.00000000   1      23  H
    3.50853448   -2.77677601    0.00000000   3      24  Si
    4.13684451   -1.17938608    0.00000000   2      25  N
    3.54296161   -0.26248101    0.00000000   1      26  H
    5.18364407   -1.05231197   -0.00000000   1      27  H
    4.63288658   -4.07521596   -0.00000000   2      28  N
    3.79410501   -5.58634043    0.00000000   3      29  Si
%endblock AtomicCoordinatesAndAtomicSpecies
#############
# Unit Cell
#############
LatticeConstant 1.0 Ang
%block LatticeVectors
    18.663680   0.000000     0.000000
    0.000000    23.664587    0.000000
    0.000000    0.000000     9.854683
%endblock LatticeVectors
%include ../../../Defaults.fdf
************************** End of input data file *****************************

reinit: -----------------------------------------------------------------------
reinit: System Name: 
reinit: -----------------------------------------------------------------------
reinit: System Label: GC
reinit: -----------------------------------------------------------------------

initatom: Reading input for the pseudopotentials and atomic orbitals ----------
Species number:   1 Atomic number:    1 Label: H
Species number:   2 Atomic number:    7 Label: N
Species number:   3 Atomic number:   14 Label: Si
Species number:   4 Atomic number:    8 Label: O

Ground state valence configuration:   1s01
Reading pseudopotential information in formatted form from H.psf

Pseudopotential generated from a relativistic atomic calculation

Valence configuration for pseudopotential generation:
1s( 1.00) rc: 0.01
2p( 0.00) rc: 0.60
3d( 0.00) rc: 1.99
4f( 0.00) rc: 2.49
Ground state valence configuration:   2s02  2p03
Reading pseudopotential information in formatted form from N.psf

Pseudopotential generated from a relativistic atomic calculation

Valence configuration for pseudopotential generation:
2s( 2.00) rc: 0.94
2p( 3.00) rc: 0.59
3d( 0.00) rc: 3.46
4f( 0.00) rc: 2.47
Ground state valence configuration:   3s02  3p02
Reading pseudopotential information in formatted form from Si.psf

Pseudopotential generated from a relativistic atomic calculation

Valence configuration for pseudopotential generation:
3s( 2.00) rc: 1.67
3p( 2.00) rc: 2.04
3d( 0.00) rc: 2.89
4f( 0.00) rc: 2.49
Ground state valence configuration:   2s02  2p04
Reading pseudopotential information in formatted form from O.psf

Pseudopotential generated from a relativistic atomic calculation

Valence configuration for pseudopotential generation:
2s( 2.00) rc: 0.45
2p( 4.00) rc: 0.92
3d( 0.00) rc: 2.24
4f( 0.00) rc: 0.25
For H, standard SIESTA heuristics set lmxkb to 2
 (one more than the basis l, including polarization orbitals).
Use PS.lmax or PS.KBprojectors blocks to override.
For N, standard SIESTA heuristics set lmxkb to 3
 (one more than the basis l, including polarization orbitals).
Use PS.lmax or PS.KBprojectors blocks to override.
For Si, standard SIESTA heuristics set lmxkb to 3
 (one more than the basis l, including polarization orbitals).
Use PS.lmax or PS.KBprojectors blocks to override.
For O, standard SIESTA heuristics set lmxkb to 3
 (one more than the basis l, including polarization orbitals).
Use PS.lmax or PS.KBprojectors blocks to override.

<basis_specs>
===============================================================================
H                    Z=   1    Mass=  1.0100        Charge= 0.17977+309
Lmxo=0 Lmxkb= 2    BasisType=split      Semic=F
L=0  Nsemic=0  Cnfigmx=1
          i=1  nzeta=2  polorb=1  (1s)
            splnorm:   0.62000    
               vcte:    0.0000    
               rinn:    0.0000    
               qcoe:    0.0000    
               qyuk:    0.0000    
               qwid:   0.10000E-01
                rcs:    0.0000      0.0000    
            lambdas:    1.0000      1.0000    
-------------------------------------------------------------------------------
L=0  Nkbl=1  erefs: 0.17977+309
L=1  Nkbl=1  erefs: 0.17977+309
L=2  Nkbl=1  erefs: 0.17977+309
===============================================================================
</basis_specs>

atom: Called for H                     (Z =   1)

read_vps: Pseudopotential generation method:
read_vps: ATM4.2.7  Troullier-Martins                       
Valence charge for ps generation:    1.00000

xc_check: Exchange-correlation functional:
xc_check: GGA Perdew, Burke & Ernzerhof 1996
V l=0 = -2*Zval/r beyond r=  0.0098
V l=1 = -2*Zval/r beyond r=  0.5817
V l=2 = -2*Zval/r beyond r=  1.9372
All V_l potentials equal beyond r=  1.9372
This should be close to max(r_c) in ps generation
All pots = -2*Zval/r beyond r=  1.9372

VLOCAL1: 99.0% of the norm of Vloc inside     11.567 Ry
VLOCAL1: 99.9% of the norm of Vloc inside     26.362 Ry
atom: Maximum radius for 4*pi*r*r*local-pseudopot. charge    2.25106
atom: Maximum radius for r*vlocal+2*Zval:    1.91306
GHOST: No ghost state for L =  0
GHOST: No ghost state for L =  1
GHOST: No ghost state for L =  2

KBgen: Kleinman-Bylander projectors: 
   l= 0   rc=  2.036604   el= -0.477180   Ekb= -6.081590   kbcos= -0.277285
   l= 1   rc=  2.195416   el=  0.001076   Ekb= -0.926943   kbcos= -0.034643
   l= 2   rc=  2.251056   el=  0.002010   Ekb= -0.130941   kbcos= -0.009788

KBgen: Total number of Kleinman-Bylander projectors:    9
atom: -------------------------------------------------------------------------

atom: SANKEY-TYPE ORBITALS:
atom: Selected multiple-zeta basis: split     

SPLIT: Orbitals with angular momentum L= 0

SPLIT: Basis orbitals for state 1s

SPLIT: PAO cut-off radius determined from an
SPLIT: energy shift=  0.002000 Ry

   izeta = 1
                 lambda =    1.000000
                     rc =    6.518340
                 energy =   -0.475305
                kinetic =    0.912139
    potential(screened) =   -1.387444
       potential(ionic) =   -1.907295

   izeta = 2
                 rmatch =    2.141150
              splitnorm =    0.620000
                 energy =    0.566467
                kinetic =    3.772856
    potential(screened) =   -3.206389
       potential(ionic) =   -3.759093

POLgen: Perturbative polarization orbital with L=  1

POLgen: Polarization orbital for state 1s

   izeta = 1
                     rc =    6.518340
                 energy =    0.533861
                kinetic =    1.121086
    potential(screened) =   -0.587225
       potential(ionic) =   -1.053027
atom: Total number of Sankey-type orbitals:  5

atm_pop: Valence configuration (for local Pseudopot. screening):
 1s( 1.00)                                                            
Vna: chval, zval:    1.00000   1.00000

Vna:  Cut-off radius for the neutral-atom potential:   6.518340

atom: _________________________________________________________________________

<basis_specs>
===============================================================================
N                    Z=   7    Mass=  14.010        Charge= 0.17977+309
Lmxo=1 Lmxkb= 3    BasisType=split      Semic=F
L=0  Nsemic=0  Cnfigmx=2
          i=1  nzeta=2  polorb=0  (2s)
            splnorm:   0.28000    
               vcte:    0.0000    
               rinn:    0.0000    
               qcoe:    0.0000    
               qyuk:    0.0000    
               qwid:   0.10000E-01
                rcs:    0.0000      0.0000    
            lambdas:    1.0000      1.0000    
L=1  Nsemic=0  Cnfigmx=2
          i=1  nzeta=2  polorb=1  (2p)
            splnorm:   0.28000    
               vcte:    0.0000    
               rinn:    0.0000    
               qcoe:    0.0000    
               qyuk:    0.0000    
               qwid:   0.10000E-01
                rcs:    0.0000      0.0000    
            lambdas:    1.0000      1.0000    
-------------------------------------------------------------------------------
L=0  Nkbl=1  erefs: 0.17977+309
L=1  Nkbl=1  erefs: 0.17977+309
L=2  Nkbl=1  erefs: 0.17977+309
L=3  Nkbl=1  erefs: 0.17977+309
===============================================================================
</basis_specs>

atom: Called for N                     (Z =   7)

read_vps: Pseudopotential generation method:
read_vps: ATM4.2.7  Troullier-Martins                       
Valence charge for ps generation:    5.00000

xc_check: Exchange-correlation functional:
xc_check: GGA Perdew, Burke & Ernzerhof 1996
V l=0 = -2*Zval/r beyond r=  1.2889
V l=1 = -2*Zval/r beyond r=  1.2889
V l=2 = -2*Zval/r beyond r=  3.4178
V l=3 = -2*Zval/r beyond r=  2.4084
All V_l potentials equal beyond r=  3.3753
This should be close to max(r_c) in ps generation
All pots = -2*Zval/r beyond r=  3.4178

VLOCAL1: 99.0% of the norm of Vloc inside      3.810 Ry
VLOCAL1: 99.9% of the norm of Vloc inside      8.683 Ry
atom: Maximum radius for 4*pi*r*r*local-pseudopot. charge    4.02088
atom: Maximum radius for r*vlocal+2*Zval:    3.54838
GHOST: No ghost state for L =  0
GHOST: No ghost state for L =  1
GHOST: No ghost state for L =  2
GHOST: No ghost state for L =  3

KBgen: Kleinman-Bylander projectors: 
   l= 0   rc=  3.417763   el= -1.365098   Ekb= -4.433130   kbcos= -0.707855
   l= 1   rc=  3.375302   el= -0.521201   Ekb=-13.264039   kbcos= -0.535594
   l= 2   rc=  3.872880   el=  0.001991   Ekb= -0.641094   kbcos= -0.062456
   l= 3   rc=  3.970931   el=  0.003093   Ekb= -0.474517   kbcos= -0.018236

KBgen: Total number of Kleinman-Bylander projectors:   16
atom: -------------------------------------------------------------------------

atom: SANKEY-TYPE ORBITALS:
atom: Selected multiple-zeta basis: split     

SPLIT: Orbitals with angular momentum L= 0

SPLIT: Basis orbitals for state 2s

SPLIT: PAO cut-off radius determined from an
SPLIT: energy shift=  0.002000 Ry

   izeta = 1
                 lambda =    1.000000
                     rc =    4.730425
                 energy =   -1.363399
                kinetic =    1.245246
    potential(screened) =   -2.608645
       potential(ionic) =   -8.121105

   izeta = 2
                 rmatch =    2.531849
              splitnorm =    0.280000
                 energy =   -0.959908
                kinetic =    2.409435
    potential(screened) =   -3.369343
       potential(ionic) =   -9.427975

SPLIT: Orbitals with angular momentum L= 1

SPLIT: Basis orbitals for state 2p

SPLIT: PAO cut-off radius determined from an
SPLIT: energy shift=  0.002000 Ry

   izeta = 1
                 lambda =    1.000000
                     rc =    5.924108
                 energy =   -0.519262
                kinetic =    3.672940
    potential(screened) =   -4.192202
       potential(ionic) =   -9.518354

   izeta = 2
                 rmatch =    2.531849
              splitnorm =    0.280000
                 energy =   -0.104258
                kinetic =    6.807538
    potential(screened) =   -6.911796
       potential(ionic) =  -13.149920

POLgen: Perturbative polarization orbital with L=  2

POLgen: Polarization orbital for state 2p

   izeta = 1
                     rc =    5.924108
                 energy =    1.427508
                kinetic =    2.872379
    potential(screened) =   -1.444871
       potential(ionic) =   -5.563644
atom: Total number of Sankey-type orbitals: 13

atm_pop: Valence configuration (for local Pseudopot. screening):
 2s( 2.00)                                                            
 2p( 3.00)                                                            
Vna: chval, zval:    5.00000   5.00000

Vna:  Cut-off radius for the neutral-atom potential:   5.924108

atom: _________________________________________________________________________

<basis_specs>
===============================================================================
Si                   Z=  14    Mass=  28.090        Charge= 0.17977+309
Lmxo=1 Lmxkb= 3    BasisType=split      Semic=F
L=0  Nsemic=0  Cnfigmx=3
          i=1  nzeta=2  polorb=0  (3s)
            splnorm:   0.28000    
               vcte:    0.0000    
               rinn:    0.0000    
               qcoe:    0.0000    
               qyuk:    0.0000    
               qwid:   0.10000E-01
                rcs:    0.0000      0.0000    
            lambdas:    1.0000      1.0000    
L=1  Nsemic=0  Cnfigmx=3
          i=1  nzeta=2  polorb=1  (3p)
            splnorm:   0.28000    
               vcte:    0.0000    
               rinn:    0.0000    
               qcoe:    0.0000    
               qyuk:    0.0000    
               qwid:   0.10000E-01
                rcs:    0.0000      0.0000    
            lambdas:    1.0000      1.0000    
-------------------------------------------------------------------------------
L=0  Nkbl=1  erefs: 0.17977+309
L=1  Nkbl=1  erefs: 0.17977+309
L=2  Nkbl=1  erefs: 0.17977+309
L=3  Nkbl=1  erefs: 0.17977+309
===============================================================================
</basis_specs>

atom: Called for Si                    (Z =  14)

read_vps: Pseudopotential generation method:
read_vps: ATM4.2.7  Troullier-Martins                       
Valence charge for ps generation:    4.00000

xc_check: Exchange-correlation functional:
xc_check: GGA Perdew, Burke & Ernzerhof 1996
V l=0 = -2*Zval/r beyond r=  2.7826
V l=1 = -2*Zval/r beyond r=  2.7826
V l=2 = -2*Zval/r beyond r=  2.9253
V l=3 = -2*Zval/r beyond r=  2.7826
All V_l potentials equal beyond r=  2.8530
This should be close to max(r_c) in ps generation
All pots = -2*Zval/r beyond r=  2.9253

VLOCAL1: 99.0% of the norm of Vloc inside      5.333 Ry
VLOCAL1: 99.9% of the norm of Vloc inside     12.154 Ry
atom: Maximum radius for 4*pi*r*r*local-pseudopot. charge    3.39869
atom: Maximum radius for r*vlocal+2*Zval:    2.96205
GHOST: No ghost state for L =  0
GHOST: No ghost state for L =  1
GHOST: No ghost state for L =  2
GHOST: No ghost state for L =  3

KBgen: Kleinman-Bylander projectors: 
   l= 0   rc=  3.075247   el= -0.794092   Ekb=  5.879390   kbcos=  0.167461
   l= 1   rc=  3.153101   el= -0.300068   Ekb=  2.642817   kbcos=  0.058301
   l= 2   rc=  3.273594   el=  0.001958   Ekb= -1.185135   kbcos= -0.104411
   l= 3   rc=  3.232927   el=  0.003046   Ekb= -0.497174   kbcos= -0.015889

KBgen: Total number of Kleinman-Bylander projectors:   16
atom: -------------------------------------------------------------------------

atom: SANKEY-TYPE ORBITALS:
atom: Selected multiple-zeta basis: split     

SPLIT: Orbitals with angular momentum L= 0

SPLIT: Basis orbitals for state 3s

SPLIT: PAO cut-off radius determined from an
SPLIT: energy shift=  0.002000 Ry

   izeta = 1
                 lambda =    1.000000
                     rc =    6.429618
                 energy =   -0.792283
                kinetic =    0.525293
    potential(screened) =   -1.317576
       potential(ionic) =   -3.744923

   izeta = 2
                 rmatch =    3.998416
              splitnorm =    0.280000
                 energy =   -0.583081
                kinetic =    1.069570
    potential(screened) =   -1.652651
       potential(ionic) =   -4.235185

SPLIT: Orbitals with angular momentum L= 1

SPLIT: Basis orbitals for state 3p

SPLIT: PAO cut-off radius determined from an
SPLIT: energy shift=  0.002000 Ry

   izeta = 1
                 lambda =    1.000000
                     rc =    8.464845
                 energy =   -0.298236
                kinetic =    0.785360
    potential(screened) =   -1.083596
       potential(ionic) =   -3.273779

   izeta = 2
                 rmatch =    4.587816
              splitnorm =    0.280000
                 energy =   -0.131871
                kinetic =    1.403687
    potential(screened) =   -1.535557
       potential(ionic) =   -4.015310

POLgen: Perturbative polarization orbital with L=  2

POLgen: Polarization orbital for state 3p

   izeta = 1
                     rc =    8.464845
                 energy =    0.321949
                kinetic =    1.055677
    potential(screened) =   -0.733728
       potential(ionic) =   -2.672950
atom: Total number of Sankey-type orbitals: 13

atm_pop: Valence configuration (for local Pseudopot. screening):
 3s( 2.00)                                                            
 3p( 2.00)                                                            
Vna: chval, zval:    4.00000   4.00000

Vna:  Cut-off radius for the neutral-atom potential:   8.464845

atom: _________________________________________________________________________

<basis_specs>
===============================================================================
O                    Z=   8    Mass=  16.000        Charge= 0.17977+309
Lmxo=1 Lmxkb= 3    BasisType=split      Semic=F
L=0  Nsemic=0  Cnfigmx=2
          i=1  nzeta=2  polorb=0  (2s)
            splnorm:   0.28000    
               vcte:    0.0000    
               rinn:    0.0000    
               qcoe:    0.0000    
               qyuk:    0.0000    
               qwid:   0.10000E-01
                rcs:    0.0000      0.0000    
            lambdas:    1.0000      1.0000    
L=1  Nsemic=0  Cnfigmx=2
          i=1  nzeta=2  polorb=1  (2p)
            splnorm:   0.28000    
               vcte:    0.0000    
               rinn:    0.0000    
               qcoe:    0.0000    
               qyuk:    0.0000    
               qwid:   0.10000E-01
                rcs:    0.0000      0.0000    
            lambdas:    1.0000      1.0000    
-------------------------------------------------------------------------------
L=0  Nkbl=1  erefs: 0.17977+309
L=1  Nkbl=1  erefs: 0.17977+309
L=2  Nkbl=1  erefs: 0.17977+309
L=3  Nkbl=1  erefs: 0.17977+309
===============================================================================
</basis_specs>

atom: Called for O                     (Z =   8)

read_vps: Pseudopotential generation method:
read_vps: ATM4.2.7  Troullier-Martins                       
Valence charge for ps generation:    6.00000

xc_check: Exchange-correlation functional:
xc_check: GGA Perdew, Burke & Ernzerhof 1996
V l=0 = -2*Zval/r beyond r=  1.1000
V l=1 = -2*Zval/r beyond r=  1.1000
V l=2 = -2*Zval/r beyond r=  2.2154
V l=3 = -2*Zval/r beyond r=  1.1000
All V_l potentials equal beyond r=  2.2154
This should be close to max(r_c) in ps generation
All pots = -2*Zval/r beyond r=  2.2154

VLOCAL1: 99.0% of the norm of Vloc inside      8.845 Ry
VLOCAL1: 99.9% of the norm of Vloc inside     20.157 Ry
atom: Maximum radius for 4*pi*r*r*local-pseudopot. charge    2.67231
atom: Maximum radius for r*vlocal+2*Zval:    2.32897
GHOST: No ghost state for L =  0
GHOST: No ghost state for L =  1
GHOST: No ghost state for L =  2
GHOST: No ghost state for L =  3

KBgen: Kleinman-Bylander projectors: 
   l= 0   rc=  2.243238   el= -1.759686   Ekb=**********   kbcos= -0.171774
   l= 1   rc=  2.328968   el= -0.663873   Ekb=-14.506792   kbcos= -0.519897
   l= 2   rc=  2.573941   el=  0.002031   Ekb= -1.137373   kbcos= -0.019581
   l= 3   rc=  2.606321   el=  0.003153   Ekb= -1.013546   kbcos= -0.003122

KBgen: Total number of Kleinman-Bylander projectors:   16
atom: -------------------------------------------------------------------------

atom: SANKEY-TYPE ORBITALS:
atom: Selected multiple-zeta basis: split     

SPLIT: Orbitals with angular momentum L= 0

SPLIT: Basis orbitals for state 2s

SPLIT: PAO cut-off radius determined from an
SPLIT: energy shift=  0.002000 Ry

   izeta = 1
                 lambda =    1.000000
                     rc =    4.243912
                 energy =   -1.758270
                kinetic =    3.286084
    potential(screened) =   -5.044353
       potential(ionic) =  -12.921184

   izeta = 2
                 rmatch =    2.187845
              splitnorm =    0.280000
                 energy =   -0.885018
                kinetic =    8.134434
    potential(screened) =   -9.019452
       potential(ionic) =  -17.710645

SPLIT: Orbitals with angular momentum L= 1

SPLIT: Basis orbitals for state 2p

SPLIT: PAO cut-off radius determined from an
SPLIT: energy shift=  0.002000 Ry

   izeta = 1
                 lambda =    1.000000
                     rc =    5.314825
                 energy =   -0.661986
                kinetic =    4.917472
    potential(screened) =   -5.579458
       potential(ionic) =  -13.236259

   izeta = 2
                 rmatch =    2.160663
              splitnorm =    0.280000
                 energy =   -0.068760
                kinetic =    9.183374
    potential(screened) =   -9.252135
       potential(ionic) =  -18.274251

POLgen: Perturbative polarization orbital with L=  2

POLgen: Polarization orbital for state 2p

   izeta = 1
                     rc =    5.314825
                 energy =    1.970580
                kinetic =    3.886128
    potential(screened) =   -1.915547
       potential(ionic) =   -7.749584
atom: Total number of Sankey-type orbitals: 13

atm_pop: Valence configuration (for local Pseudopot. screening):
 2s( 2.00)                                                            
 2p( 4.00)                                                            
Vna: chval, zval:    6.00000   6.00000

Vna:  Cut-off radius for the neutral-atom potential:   5.314825

atom: _________________________________________________________________________

prinput: Basis input ----------------------------------------------------------

PAO.BasisType split     

%block ChemicalSpeciesLabel
    1    1 H                       # Species index, atomic number, species label
    2    7 N                       # Species index, atomic number, species label
    3   14 Si                      # Species index, atomic number, species label
    4    8 O                       # Species index, atomic number, species label
%endblock ChemicalSpeciesLabel

%block PAO.Basis                 # Define Basis set
H                     1                    # Species label, number of l-shells
 n=1   0   2 P   1                   # n, l, Nzeta, Polarization, NzetaPol
   6.518      2.141   
   1.000      1.000   
N                     2                    # Species label, number of l-shells
 n=2   0   2                         # n, l, Nzeta 
   4.730      2.532   
   1.000      1.000   
 n=2   1   2 P   1                   # n, l, Nzeta, Polarization, NzetaPol
   5.924      2.532   
   1.000      1.000   
Si                    2                    # Species label, number of l-shells
 n=3   0   2                         # n, l, Nzeta 
   6.430      3.998   
   1.000      1.000   
 n=3   1   2 P   1                   # n, l, Nzeta, Polarization, NzetaPol
   8.465      4.588   
   1.000      1.000   
O                     2                    # Species label, number of l-shells
 n=2   0   2                         # n, l, Nzeta 
   4.244      2.188   
   1.000      1.000   
 n=2   1   2 P   1                   # n, l, Nzeta, Polarization, NzetaPol
   5.315      2.161   
   1.000      1.000   
%endblock PAO.Basis

prinput: ----------------------------------------------------------------------

Dumping basis to NetCDF file H.ion.nc
Dumping basis to NetCDF file N.ion.nc
Dumping basis to NetCDF file Si.ion.nc
Dumping basis to NetCDF file O.ion.nc
coor:   Atomic-coordinates input format  =     Cartesian coordinates
coor:                                          (in Angstroms)

siesta: Atomic coordinates (Bohr) and species
siesta:      1.95986   6.79065  -0.00000  1        1
siesta:      0.62480   5.29769  -0.00000  2        2
siesta:     -2.64497   6.13175   0.00000  3        3
siesta:     -2.93935   8.94743   0.00000  1        4
siesta:     -5.52363   3.18584  -0.00000  3        5
siesta:     -8.32645   3.64472  -0.00000  1        6
siesta:     -3.25900  -0.42973  -0.00000  3        7
siesta:     -4.70658  -3.32614  -0.00000  2        8
siesta:     -3.59118  -5.13502   0.00000  1        9
siesta:     -6.69386  -3.47819  -0.00000  1       10
siesta:     -0.01585  -0.32546   0.00000  2       11
siesta:      2.01565   2.18851  -0.00000  3       12
siesta:      5.05560   2.15297  -0.00000  4       13
siesta:     10.61355 -14.07759   0.00000  1       14
siesta:      8.65886 -13.66658   0.00000  2       15
siesta:      6.22979 -16.04876   0.00000  3       16
siesta:      7.18318 -18.71532  -0.00000  1       17
siesta:      3.13570 -15.14356   0.00000  2       18
siesta:      3.17659 -11.72506  -0.00000  3       19
siesta:      1.03072  -8.10005   0.00000  3       20
siesta:     -1.95457  -7.45403   0.00000  4       21
siesta:      3.27352  -5.43711   0.00000  2       22
siesta:      2.28576  -3.64645  -0.00000  1       23
siesta:      6.63017  -5.24735   0.00000  3       24
siesta:      7.81751  -2.22872   0.00000  2       25
siesta:      6.69523  -0.49602   0.00000  1       26
siesta:      9.79567  -1.98858  -0.00000  1       27
siesta:      8.75489  -7.70105  -0.00000  2       28
siesta:      7.16982 -10.55666   0.00000  3       29

siesta: System type = molecule  

initatomlists: Number of atoms, orbitals, and projectors:     29   297   394

siesta: ******************** Simulation parameters ****************************
siesta:
siesta: The following are some of the parameters of the simulation.
siesta: A complete list of the parameters used, including default values,
siesta: can be found in file out.fdf
siesta:
redata: Spin configuration                          = spin-orbit
redata: Number of spin components                   = 8
redata: Time-Reversal Symmetry                      = F
redata: Spin spiral                                 = F
############################################################
This spin-orbit implementation uses a local approximation.
From 4.2 and onwards the full non-local approximation is implemented
You are strongly advised to use >=4.2 versions!
############################################################
redata: Long output                                 =   F
redata: Number of Atomic Species                    =        4
redata: Charge density info will appear in .RHO file
redata: Write Mulliken Pop.                         = NO
redata: Matel table size (NRTAB)                    =     1024
redata: Mesh Cutoff                                 =   340.0000 Ry
redata: Net charge of the system                    =     0.0000 |e|
redata: Min. number of SCF Iter                     =        1
redata: Max. number of SCF Iter                     =      200
redata: SCF convergence failure will abort job
redata: SCF mix quantity                            = Hamiltonian
redata: Mix DM or H after convergence               =   F
redata: Recompute H after scf cycle                 =   F
redata: Mix DM in first SCF step                    =   T
redata: Write Pulay info on disk                    =   F
redata: New DM Occupancy tolerance                  = 0.000000000001
redata: No kicks to SCF
redata: DM Mixing Weight for Kicks                  =     0.5000
redata: Require Harris convergence for SCF          =   F
redata: Harris energy tolerance for SCF             =     0.000100 eV
redata: Require DM convergence for SCF              =   T
redata: DM tolerance for SCF                        =     0.000008
redata: Require EDM convergence for SCF             =   F
redata: EDM tolerance for SCF                       =     0.001000 eV
redata: Require H convergence for SCF               =   T
redata: Hamiltonian tolerance for SCF               =     0.000001 eV
redata: Require (free) Energy convergence for SCF   =   F
redata: (free) Energy tolerance for SCF             =     0.000100 eV
redata: Using Saved Data (generic)                  =   F
redata: Use continuation files for DM               =   T
redata: Neglect nonoverlap interactions             =   F
redata: Method of Calculation                       = Diagonalization
redata: Electronic Temperature                      =   299.9978 K
redata: Fix the spin of the system                  =   F
redata: Dynamics option                             = Verlet MD run
redata: Initial MD time step                        =        1
redata:   Final MD time step                        =        1
redata: Length of MD time step                      =     0.5000 fs
redata: Initial Temperature of MD run               =     0.0000 K
redata: Perform a MD quench                         =   F
mix.SCF: Pulay mixing                            = Pulay
mix.SCF:    Variant                              = stable
mix.SCF:    History steps                        = 6
mix.SCF:    Linear mixing weight                 =     0.250000
mix.SCF:    Mixing weight                        =     0.250000
mix.SCF:    SVD condition                        = 0.1000E-07
mix.SCF:    Restart steps                        = 24
mix.SCF:    Restart save steps                   = 3
mix.SCF: Spin-component mixing                   all
redata: Save all siesta data in one NC              =   F
redata: ***********************************************************************

%block SCF.Mixers
  Pulay
%endblock SCF.Mixers

%block SCF.Mixer.Pulay
  # Mixing method
  method pulay
  variant stable

  # Mixing options
  weight 0.2500
  weight.linear 0.2500
  history 6
  restart 24
  restart.save 3
%endblock SCF.Mixer.Pulay

Size of DM history Fstack: 3
Total number of electrons:    98.000000
Total ionic charge:    98.000000

* ProcessorY, Blocksize:    2  24


* Orbital distribution balance (max,min):    48    24


Time-reversal symmetry not used.

siesta: k-grid: Number of k-points =     1
siesta: k-grid: Cutoff (effective) =     4.927 Ang
siesta: k-grid: Supercell and displacements
siesta: k-grid:    1   0   0      0.000
siesta: k-grid:    0   1   0      0.000
siesta: k-grid:    0   0   1      0.000

diag: Algorithm                                     = ELPA-1stage
diag: Parallel over k                               =   F
diag: Use parallel 2D distribution                  =   T
diag: Parallel block-size                           = 24
diag: Parallel distribution                         =     2 x     4
diag: Used triangular part                          = Lower
diag: Absolute tolerance                            =  0.100E-15
diag: Orthogonalization factor                      =  0.100E-05
diag: Memory factor                                 =  1.0000


ts: **************************************************************
ts: Save H and S matrices                           =    F
ts: Save DM and EDM matrices                        =    F
ts: Only save the overlap matrix S                  =    F
ts: **************************************************************

************************ Begin: TS CHECKS AND WARNINGS ************************
************************ End: TS CHECKS AND WARNINGS **************************


                     ====================================
                        Begin MD step =      1
                     ====================================

outcoor: Atomic coordinates (Ang):                          
    1.03711479    3.59345352    0.00000000   1       1  H
    0.33062806    2.80341734    0.00000000   2       2  N
   -1.39965885    3.24478125    0.00000000   3       3  Si
   -1.55543853    4.73477351    0.00000000   1       4  H
   -2.92298047    1.68587373    0.00000000   3       5  Si
   -4.40616810    1.92870409    0.00000000   1       6  H
   -1.72458961   -0.22740243    0.00000000   3       7  Si
   -2.49061507   -1.76011917    0.00000000   2       8  N
   -1.90036852   -2.71733220    0.00000000   1       9  H
   -3.54223739   -1.84057940    0.00000000   1      10  H
   -0.00838955   -0.17222812    0.00000000   2      11  N
    1.06663307    1.15811072    0.00000000   3      12  Si
    2.67530639    1.13930046    0.00000000   4      13  O
    5.61644830   -7.44953905    0.00000000   1      14  H
    4.58206954   -7.23203760    0.00000000   2      15  N
    3.29666389   -8.49263600    0.00000000   3      16  Si
    3.80117524   -9.90371886    0.00000000   1      17  H
    1.65934232   -8.01362137    0.00000000   2      18  N
    1.68097912   -6.20463398    0.00000000   3      19  Si
    0.54543521   -4.28636135    0.00000000   3      20  Si
   -1.03431493   -3.94450034    0.00000000   4      21  O
    1.73226934   -2.87719605    0.00000000   2      22  N
    1.20957366   -1.92961761    0.00000000   1      23  H
    3.50853448   -2.77677601    0.00000000   3      24  Si
    4.13684451   -1.17938608    0.00000000   2      25  N
    3.54296161   -0.26248101    0.00000000   1      26  H
    5.18364407   -1.05231197    0.00000000   1      27  H
    4.63288658   -4.07521596    0.00000000   2      28  N
    3.79410501   -5.58634043    0.00000000   3      29  Si

outcell: Unit cell vectors (Ang):
       18.663680    0.000000    0.000000
        0.000000   23.664587    0.000000
        0.000000    0.000000    9.854683

outcell: Cell vector modules (Ang)   :   18.663680   23.664587    9.854683
outcell: Cell angles (23,13,12) (deg):     90.0000     90.0000     90.0000
outcell: Cell volume (Ang**3)        :   4352.5009
<dSpData1D:S at geom step 1
  <sparsity:sparsity for geom step 1
    nrows_g=297 nrows=48 sparsity=.1344 nnzs=11853, refcount: 8>
  <dData1D:(new from dSpData1D) n=11853, refcount: 1>
refcount: 1>
new_DM -- step:     1
Initializing Density Matrix...

Attempting to read DM from file... Failed...
DM filled with atomic data:
<dSpData2D:DM initialized from atoms
  <sparsity:sparsity for geom step 1
    nrows_g=297 nrows=48 sparsity=.1344 nnzs=11853, refcount: 9>
  <dData2D:DM n=11853 m=8, refcount: 1>
refcount: 1>
     spin moment: S , {S} =   56.00000   0.00000   0.00000  56.00000
No. of atoms with KB's overlaping orbs in proc 0. Max # of overlaps:      27     214

Initializing spin-orbit part of the Hamiltonian
  Adding spin-orbit effects for H 
  Adding spin-orbit effects for N 
  Adding spin-orbit effects for Si
  Adding spin-orbit effects for O 


New grid distribution:   1
           1       1:  108    1:   68    1:   15
           2       1:  108    1:   68   16:   30
           3       1:  108    1:   68   31:   45
           4       1:  108    1:   68   46:   60
           5       1:  108   69:  135    1:   15
           6       1:  108   69:  135   16:   30
           7       1:  108   69:  135   31:   45
           8       1:  108   69:  135   46:   60

InitMesh: MESH =   216 x   270 x   120 =     6998400
InitMesh: (bp) =   108 x   135 x    60 =      874800
InitMesh: Mesh cutoff (required, used) =   340.000   359.775 Ry
ExtMesh (bp) on 0 =   212 x   172 x   127 =     4630928
New grid distribution:   2
           1      24:  108   19:  103    1:   60
           2      24:  108    1:   18    1:   60
           3       1:   23   78:  103    1:   60
           4       1:   22  121:  135    1:   60
           5       1:   23    1:   77    1:   60
           6      23:  108  104:  121    1:   60
           7      23:  108  122:  135    1:   60
           8       1:   22  104:  120    1:   60
New grid distribution:   3
           1      36:  108   20:   88    1:   60
           2       1:   35   33:   88    1:   60
           3      36:  108    1:   19    1:   60
           4       1:   34   89:  111    1:   60
           5      35:  108   89:  116    1:   60
           6      35:  108  117:  135    1:   60
           7       1:   35    1:   32    1:   60
           8       1:   34  112:  135    1:   60
Setting up quadratic distribution...
ExtMesh (bp) on 0 =   189 x   189 x   172 =     6144012
PhiOnMesh: Number of (b)points on node 0 =               433500
PhiOnMesh: nlist on node 0 =              1832616

stepf: Fermi-Dirac step function

siesta: Program's energy decomposition (eV):
siesta: Ebs     =      -616.448622
siesta: Eions   =      3585.165840
siesta: Ena     =       381.486884
siesta: Ekin    =      3363.300927
siesta: Enl     =     -3293.089551
siesta: Eso     =        -0.003452
siesta: Edftu   =         0.000000
siesta: DEna    =       154.711181
siesta: DUscf   =        77.695697
siesta: DUext   =         0.000000
siesta: Exc     =     -1203.815190
siesta: eta*DQ  =         0.000000
siesta: Emadel  =         0.000000
siesta: Emeta   =         0.000000
siesta: Emolmec =         0.000000
siesta: Ekinion =         0.000000
siesta: Eharris =     -4029.259240
siesta: Etot    =     -4104.879344
siesta: FreeEng =     -4104.880373

        iscf     Eharris(eV)        E_KS(eV)     FreeEng(eV)     dDmax    Ef(eV) dHmax(eV)
   scf:    1    -4029.259240    -4104.879344    -4104.880373  0.955930 -4.906478 19.747167
     spin moment: S , {S} =    2.00573  -0.00000  -0.00000   2.00573
timer: Routine,Calls,Time,% = IterSCF        1      14.964  16.03
   scf:    2    -4150.738189    -4138.903175    -4138.905842  0.468157 -4.190676 11.103461
     spin moment: S , {S} =    1.98422   0.00000   0.00000   1.98422
   scf:    3    -4112.495938    -4136.185272    -4136.198519  0.432103 -4.276508 11.286717
     spin moment: S , {S} =    2.00011   0.00000   0.00000   2.00011
   scf:    4    -4151.616966    -4146.830064    -4146.830065  0.330959 -3.889363  5.955683
     spin moment: S , {S} =    0.00009   0.00000   0.00000   0.00009
   scf:    5    -4147.971714    -4147.496274    -4147.496274  0.037092 -3.691367  4.414932
     spin moment: S , {S} =    0.00006   0.00000   0.00000   0.00006
   scf:    6    -4148.293077    -4147.898082    -4147.898082  0.025537 -3.666041  2.170161
     spin moment: S , {S} =    0.00003   0.00000   0.00000   0.00003
   scf:    7    -4148.266873    -4148.082784    -4148.082784  0.021750 -3.608006  0.824194
     spin moment: S , {S} =    0.00001   0.00000  -0.00000   0.00001
   scf:    8    -4148.195833    -4148.138013    -4148.138013  0.011976 -3.787570  0.447478
     spin moment: S , {S} =    0.00000  -0.00000   0.00000   0.00000
   scf:    9    -4148.178807    -4148.157781    -4148.157781  0.007229 -3.772866  0.288078
     spin moment: S , {S} =    0.00000   0.00000  -0.00000   0.00000
   scf:   10    -4148.202684    -4148.177149    -4148.177149  0.015670 -3.793146  0.135808
     spin moment: S , {S} =    0.00000  -0.00000  -0.00000  -0.00000
   scf:   11    -4148.180957    -4148.178928    -4148.178928  0.005080 -3.786474  0.053380
     spin moment: S , {S} =    0.00000   0.00000   0.00000   0.00000
   scf:   12    -4148.179919    -4148.179413    -4148.179413  0.002222 -3.781995  0.034043
     spin moment: S , {S} =    0.00000   0.00000   0.00000   0.00000
   scf:   13    -4148.180109    -4148.179739    -4148.179739  0.002141 -3.781063  0.026738
     spin moment: S , {S} =    0.00000   0.00000   0.00000   0.00000
   scf:   14    -4148.180348    -4148.180010    -4148.180010  0.002640 -3.781410  0.017559
     spin moment: S , {S} =    0.00000   0.00000   0.00000   0.00000
   scf:   15    -4148.180390    -4148.180165    -4148.180165  0.002705 -3.780221  0.008989
     spin moment: S , {S} =    0.00000   0.00000   0.00000   0.00000
   scf:   16    -4148.180261    -4148.180202    -4148.180202  0.001517 -3.780439  0.004217
     spin moment: S , {S} =    0.00000   0.00000   0.00000   0.00000
   scf:   17    -4148.180217    -4148.180208    -4148.180208  0.000545 -3.780655  0.002317
     spin moment: S , {S} =    0.00000  -0.00000   0.00000  -0.00000
   scf:   18    -4148.180213    -4148.180210    -4148.180210  0.000272 -3.780740  0.001210
     spin moment: S , {S} =    0.00000  -0.00000   0.00000  -0.00000
   scf:   19    -4148.180212    -4148.180211    -4148.180211  0.000121 -3.780714  0.000722
     spin moment: S , {S} =    0.00000  -0.00000   0.00000  -0.00000
   scf:   20    -4148.180212    -4148.180211    -4148.180211  0.000074 -3.780644  0.000405
     spin moment: S , {S} =    0.00000  -0.00000   0.00000  -0.00000
   scf:   21    -4148.180212    -4148.180212    -4148.180212  0.000096 -3.780582  0.000177
     spin moment: S , {S} =    0.00000  -0.00000   0.00000  -0.00000
   scf:   22    -4148.180212    -4148.180212    -4148.180212  0.000011 -3.780565  0.000073
     spin moment: S , {S} =    0.00000  -0.00000   0.00000  -0.00000
   scf:   23    -4148.180212    -4148.180212    -4148.180212  0.000005 -3.780564  0.000039
     spin moment: S , {S} =    0.00000  -0.00000   0.00000  -0.00000
   scf:   24    -4148.180212    -4148.180212    -4148.180212  0.000003 -3.780561  0.000021
     spin moment: S , {S} =    0.00000  -0.00000   0.00000  -0.00000
mix: Pulay -- resetting history
   scf:   25    -4148.180212    -4148.180212    -4148.180212  0.000002 -3.780559  0.000010
     spin moment: S , {S} =    0.00000  -0.00000   0.00000  -0.00000
   scf:   26    -4148.180212    -4148.180212    -4148.180212  0.000001 -3.780558  0.000007
     spin moment: S , {S} =    0.00000  -0.00000   0.00000  -0.00000
   scf:   27    -4148.180212    -4148.180212    -4148.180212  0.000000 -3.780558  0.000004
     spin moment: S , {S} =    0.00000  -0.00000   0.00000  -0.00000
   scf:   28    -4148.180212    -4148.180212    -4148.180212  0.000000 -3.780558  0.000002
     spin moment: S , {S} =    0.00000   0.00000   0.00000  -0.00000
   scf:   29    -4148.180212    -4148.180212    -4148.180212  0.000000 -3.780558  0.000001
     spin moment: S , {S} =    0.00000   0.00000   0.00000  -0.00000
   scf:   30    -4148.180212    -4148.180212    -4148.180212  0.000000 -3.780557  0.000001
     spin moment: S , {S} =    0.00000   0.00000   0.00000  -0.00000

SCF Convergence by DM+H criterion
max |DM_out - DM_in|         :     0.0000000694
max |H_out - H_in|      (eV) :     0.0000006156
SCF cycle converged after 30 iterations

Using DM_out to compute the final energy and forces
No. of atoms with KB's overlaping orbs in proc 0. Max # of overlaps:      27     214

siesta: E_KS(eV) =            -4148.1802

siesta: E_KS - E_eggbox =     -4148.1802
     spin moment: S , {S} =    0.00000   0.00000   0.00000  -0.00000

siesta: Atomic forces (eV/Ang):
     1    0.000014    0.000055    0.000000
     2   -0.001505    0.001565    0.000000
     3    0.000662    0.003794   -0.000000
     4    0.000017    0.000088    0.000000
     5   -0.000527    0.002397    0.000000
     6   -0.000188    0.000104    0.000000
     7    0.001008    0.003137    0.000000
     8    0.000116    0.001273    0.000000
     9    0.000003   -0.000004    0.000000
    10    0.000510    0.000024   -0.000000
    11    0.004676    0.003069   -0.000000
    12    0.001424    0.004840    0.000000
    13    0.000027    0.000267   -0.000000
    14   -0.000070   -0.000004   -0.000000
    15   -0.000757    0.000017    0.000000
    16   -0.001309   -0.000235   -0.000000
    17    0.000020   -0.000034    0.000000
    18   -0.000336   -0.000461   -0.000000
    19   -0.001261   -0.001691    0.000000
    20   -0.000146   -0.000368    0.000000
    21   -0.000026   -0.000008   -0.000000
    22   -0.000405   -0.000205   -0.000000
    23   -0.000022    0.000013   -0.000000
    24   -0.000289   -0.000251    0.000000
    25   -0.000021   -0.000088   -0.000000
    26    0.000006   -0.000014    0.000000
    27    0.000025    0.000002   -0.000000
    28   -0.001374   -0.000063    0.000000
    29   -0.001403   -0.000385   -0.000000
----------------------------------------
   Tot   -0.001130    0.016836    0.000000
----------------------------------------
   Max    0.004840
   Res    0.001108    sqrt( Sum f_i^2 / 3N )
----------------------------------------
   Max    0.004840    constrained

Stress tensor Voigt[x,y,z,yz,xz,xy] (kbar):        0.42       -0.45       -0.14        0.00       -0.00        0.08
(Free)E + p*V (eV/cell)    -4148.0208
Target enthalpy (eV/cell)    -4148.1802

siesta: Stress tensor (static) (eV/Ang**3):
         0.000259    0.000049    0.000000
         0.000049   -0.000280   -0.000000
        -0.000000    0.000000   -0.000089

siesta: Pressure (static):          0.05867230  kBar

siesta: Stress tensor (total) (eV/Ang**3):
         0.000259    0.000049    0.000000
         0.000049   -0.000280   -0.000000
        -0.000000    0.000000   -0.000089

siesta: Pressure (total):          0.05867230  kBar

siesta: Temp_ion =       0.000 K

siesta: Eigenvalues (eV):
ik =     1
  -22.8092  -22.8092  -22.4807  -22.4807  -21.4349  -21.4349  -21.2462  -21.2462  -20.9641  -20.9641
  -20.6871  -20.6871  -20.2711  -20.2711  -19.6334  -19.6334  -19.5123  -19.5123  -19.3765  -19.3765
  -14.7840  -14.7840  -13.8314  -13.8314  -13.2446  -13.2446  -13.0908  -13.0908  -12.9800  -12.9800
  -12.6475  -12.6475  -12.6086  -12.6086  -12.0926  -12.0926  -11.8392  -11.8392  -11.6978  -11.6978
  -11.0458  -11.0458  -10.8309  -10.8309  -10.6345  -10.6345  -10.3929  -10.3929  -10.1843  -10.1843
   -9.7011   -9.7011   -9.1278   -9.1278   -8.9867   -8.9867   -8.8470   -8.8470   -8.6710   -8.6710
   -8.4846   -8.4846   -8.4167   -8.4167   -8.4046   -8.4046   -7.9855   -7.9855   -7.8860   -7.8860
   -7.5923   -7.5923   -7.3832   -7.3832   -7.2887   -7.2887   -7.1327   -7.1327   -6.9344   -6.9344
   -6.7138   -6.7138   -6.6326   -6.6326   -6.4413   -6.4413   -6.4265   -6.4265   -6.2982   -6.2982
   -6.1058   -6.1058   -5.9671   -5.9671   -5.5611   -5.5611   -4.3359   -4.3359   -3.2253   -3.2253
   -2.3794   -2.3794   -2.3439   -2.3439   -2.2201   -2.2201   -1.9013   -1.9013   -1.8758   -1.8758
   -1.8584   -1.8584   -1.6735   -1.6735   -1.6235   -1.6235   -1.2312   -1.2312   -1.1935   -1.1935
   -0.9913   -0.9913   -0.5757   -0.5757   -0.4713   -0.4713   -0.3522   -0.3522    0.4105    0.4105
    0.4311    0.4311    0.5465    0.5465    0.6491    0.6491    0.9894    0.9894    1.1263    1.1263
    1.4062    1.4062    1.4092    1.4092    1.4470    1.4470    1.5467    1.5467    1.9812    1.9812
    2.1382    2.1382    2.6156    2.6156    2.6893    2.6893    2.7609    2.7609    2.8624    2.8624
    2.9382    2.9382    3.0933    3.0933    3.2517    3.2517    3.4025    3.4025    3.5255    3.5255
    3.7824    3.7824    4.0042    4.0042    4.0943    4.0943    4.1537    4.1537    4.3961    4.3961
    4.5521    4.5521    4.6137    4.6137    4.7354    4.7354    5.0633    5.0633    5.2051    5.2051
    5.2913    5.2913    5.3244    5.3244    5.6789    5.6789    5.7921    5.7921    5.8893    5.8893
    5.9526    5.9526    6.3580    6.3580    6.3963    6.3963    6.5474    6.5474    6.6130    6.6130
    6.7441    6.7441    6.8787    6.8787    6.9875    6.9875    7.1375    7.1375    7.1819    7.1819
    7.2931    7.2931    7.6848    7.6848    7.7340    7.7340    8.0356    8.0356    8.0554    8.0554
    8.1548    8.1548    8.4326    8.4326    8.5218    8.5218    8.6442    8.6442    8.7160    8.7160
    8.7860    8.7860    8.8333    8.8333    9.0873    9.0873    9.1337    9.1337    9.3706    9.3706
    9.5450    9.5450    9.8928    9.8928    9.9681    9.9681   10.0512   10.0512   10.1767   10.1767
   10.3183   10.3183   10.6369   10.6369   10.8081   10.8081   11.2152   11.2152   11.2530   11.2530
   11.3414   11.3414   11.6686   11.6686   12.3612   12.3612   12.3749   12.3749   12.4059   12.4059
   12.4630   12.4630   12.5481   12.5481   12.7596   12.7596   13.0539   13.0539   13.3091   13.3091
   13.5845   13.5845   13.6797   13.6797   13.8797   13.8797   14.0023   14.0023   14.1199   14.1199
   14.2571   14.2571   14.4860   14.4860   14.9284   14.9284   14.9994   14.9994   15.0094   15.0094
   15.4507   15.4507   16.2563   16.2563   16.6526   16.6526   16.7123   16.7123   16.7976   16.7976
   17.2210   17.2210   17.6074   17.6074   18.1151   18.1151   18.5667   18.5667   18.9928   18.9928
   19.2639   19.2639   20.0854   20.0854   20.2785   20.2785   20.4270   20.4270   20.6882   20.6882
   21.3005   21.3005   22.0469   22.0469   22.2998   22.2998   22.6594   22.6594   23.5537   23.5537
   23.6422   23.6422   24.0354   24.0354   24.0993   24.0993   24.7261   24.7261   25.2586   25.2586
   25.8448   25.8448   26.1483   26.1483   26.6777   26.6777   27.6611   27.6611   28.8180   28.8180
   29.5110   29.5110   29.7577   29.7577   30.0754   30.0754   30.3319   30.3320   30.6560   30.6560
   30.8919   30.8919   30.9537   30.9537   31.3200   31.3200   31.6357   31.6357   31.7070   31.7070
   32.7395   32.7395   33.2951   33.2951   33.8481   33.8481   33.9189   33.9189   33.9532   33.9532
   35.1905   35.1905   35.3266   35.3266   35.7728   35.7728   35.8016   35.8016   36.2504   36.2504
   36.9980   36.9980   37.0620   37.0620   37.1434   37.1434   37.3585   37.3585   38.5688   38.5688
   38.8259   38.8259   39.0609   39.0609   39.6487   39.6487   39.8457   39.8457   40.2605   40.2605
   40.5918   40.5918   40.6755   40.6755   41.4842   41.4842   41.5268   41.5269   41.6998   41.6998
   42.1549   42.1549   42.6472   42.6472   42.8990   42.8990   43.3828   43.3828   44.0289   44.0289
   44.0337   44.0337   44.2324   44.2324   44.4731   44.4731   44.5910   44.5910   45.0129   45.0129
   45.2694   45.2694   45.4679   45.4679   45.9545   45.9545   46.2743   46.2743   46.6179   46.6179
   46.9083   46.9083   47.8214   47.8214   48.2107   48.2107   48.8724   48.8724   49.9028   49.9028
   49.9605   49.9605   50.3065   50.3065   50.4054   50.4054   50.7058   50.7058   51.2271   51.2271
   51.3792   51.3792   51.6757   51.6757   52.4315   52.4315   52.8707   52.8707   54.1160   54.1160
   54.2732   54.2732   54.3799   54.3799   55.2916   55.2916   55.7494   55.7494   56.1300   56.1300
   56.2477   56.2477   56.7477   56.7477   58.2513   58.2513   58.3954   58.3954   58.9702   58.9702
   60.0228   60.0228   60.2952   60.2952   60.9501   60.9501   61.3406   61.3406   61.8076   61.8076
   62.6039   62.6039   62.7037   62.7037   63.0180   63.0180   63.6537   63.6537   66.0571   66.0571
   66.9258   66.9258   67.7609   67.7609   68.9917   68.9917   69.5605   69.5605   70.0957   70.0957
   70.6123   70.6123   71.7007   71.7007   72.0220   72.0220   75.3269   75.3269   87.3704   87.3704
   90.0195   90.0195   90.4162   90.4162   94.3461   94.3461   94.9377   94.9377   97.1079   97.1079
  100.5415  100.5415  100.9913  100.9913  102.1574  102.1574  104.2377  104.2377  105.5503  105.5503
  115.3186  115.3186  117.9131  117.9131  125.0769  125.0769  128.3005  128.3005  138.4386  138.4386
  145.1859  145.1859  146.8967  146.8967
siesta: Fermi energy =      -3.780557 eV

siesta: Program's energy decomposition (eV):
siesta: Ebs     =     -1135.289501
siesta: Eions   =      3585.165840
siesta: Ena     =       381.486884
siesta: Ekin    =      2910.665975
siesta: Enl     =     -2794.332519
siesta: Eso     =        -0.004318
siesta: Edftu   =         0.000000
siesta: DEna    =        47.996312
siesta: DUscf   =        13.681764
siesta: DUext   =         0.000000
siesta: Exc     =     -1122.508470
siesta: eta*DQ  =         0.000000
siesta: Emadel  =         0.000000
siesta: Emeta   =         0.000000
siesta: Emolmec =         0.000000
siesta: Ekinion =         0.000000
siesta: Eharris =     -4148.180212
siesta: Etot    =     -4148.180212
siesta: FreeEng =     -4148.180212

siesta: Final energy (eV):
siesta:  Band Struct. =   -1135.289501
siesta:       Kinetic =    2910.665975
siesta:       Hartree =    9014.352782
siesta:       Edftu   =       0.000000
siesta:       Eso     =      -0.004318
siesta:    Ext. field =       0.000000
siesta:   Exch.-corr. =   -1122.508470
siesta:  Ion-electron =  -20617.318987
siesta:       Ion-ion =    5666.632806
siesta:       Ekinion =       0.000000
siesta:         Total =   -4148.180212
siesta:         Fermi =      -3.780557

siesta: Stress tensor (static) (eV/Ang**3):
siesta:     0.000259    0.000049    0.000000
siesta:     0.000049   -0.000280   -0.000000
siesta:    -0.000000    0.000000   -0.000089

siesta: Cell volume =       4352.500882 Ang**3

siesta: Pressure (static):
siesta:                Solid            Molecule  Units
siesta:           0.00000040          0.00000035  Ry/Bohr**3
siesta:           0.00003662          0.00003223  eV/Ang**3
siesta:           0.05867230          0.05164015  kBar
(Free)E+ p_basis*V_orbitals  =       -4128.329794
(Free)Eharris+ p_basis*V_orbitals  =       -4128.329794
     spin moment: S , {S} =    0.00000   0.00000   0.00000  -0.00000

siesta: Electric dipole (a.u.)  =   -0.067564    1.550205   -0.000000
siesta: Electric dipole (Debye) =   -0.171730    3.940232   -0.000000

cite: Please see "GC.bib" for an exhaustive BiBTeX file.
cite: Please clearly indicate Siesta version in published work: v4.1.5-1-g384057250
cite: This calculation has made use of the following articles
cite: which are encouraged to be cited in a published work.
        Primary SIESTA paper
          DOI: www.doi.org/10.1088/0953-8984/14/11/302
        Spin-orbit coupling (on-site approximation)
          DOI: www.doi.org/10.1088/0953-8984/19/19/489001


WARNING: alloc-realloc-dealloc name mismatch
         Name: atomlist isa
         Size:              -116. Bytes
         Node:     0
         Subsequent mismatches will not be reported
>> End of run:  18-FEB-2024  21:16:28
Job completed
