Siesta Version  : v4.1.5-1-g384057250
Architecture    : gcc
Compiler version: GNU Fortran (Debian 10.2.1-6) 10.2.1 20210110
Compiler flags  : mpifort -O2 -fPIC -ftree-vectorize -fallow-argument-mismatch
PP flags        : -DFC_HAVE_ABORT -DMPI -DSIESTA__FLOOK -DSIESTA__METIS -DSIESTA__MUMPS -DCDF -DNCDF -DNCDF_4 -DNCDF_PARALLEL -DSIESTA__MRRR -DSIESTA__ELPA
Libraries       : libncdf.a libfdict.a  -lflookall -ldl -lnetcdff -lnetcdf -lhdf5_hl -lhdf5 -lhdf5_fortran -lz -lscalapack-openmpi -lopenblas -lmetis -lzmumps -lcmumps -ldmumps -lmumps_common -lpord -lsmumps -lesmumps -lscotch -lscotcherr -fopenmp -lelpa
PARALLEL version
NetCDF support
NetCDF-4 support
NetCDF-4 MPI-IO support
METIS ordering support
Lua support

* Running on 6 nodes in parallel
>> Start of run:  22-MAY-2023  10:14:13

                           ***********************       
                           *  WELCOME TO SIESTA  *       
                           ***********************       

reinit: Reading from standard input
reinit: Dumped input in INPUT_TMP.56294
************************** Dump of input data file ****************************
SystemLabel      AT
NumberOfAtoms    30
NumberOfSpecies  4
%block ChemicalSpeciesLabel
    1    1  H
    2    7  N
    3   14  Si
    4    8  O
%endblock ChemicalSpeciesLabel
# Single point calculation
MD.TypeOfRun                CG
MD.Steps                    0
SCF.MustConverge            F # In case it does not. There can be 2 very close atoms
AtomicCoordinatesFormat NotScaledCartesianAng
%block AtomicCoordinatesAndAtomicSpecies
2.582377650    -5.776830440   0.000000000       1
1.654759240    -5.269361980   0.000000000       2
0.063128840    -6.101704590   0.000000000       3
0.119223240    -7.596849500   0.000000000       1
-1.376892050   -5.182603740   0.000000000       2
-0.824371900   -3.460866440   0.000000000       3
-1.170571480   -1.270002100   0.000000000       3
-2.706933680   -0.417515780   0.000000000       2
-2.754569660   0.634858620    0.000000000       1
-3.637675640   -0.909967860   0.000000000       1
0.218091790    -0.234193970   0.000000000       2
1.872004100    -0.697162300   0.000000000       3
2.828001130    0.461464770    0.000000000       1
2.648150080    -2.255024470   0.000000000       2
1.391921380    -3.454727220   0.000000000       3
1.862049497    6.939577641    0.000000000       2
0.534677977    8.149781941    0.000000000       3
1.174679247    9.511100181    0.000000000       1
-1.551067963   7.479250591    0.000000000       3
-3.580630563   8.609366781    0.000000000       3
-3.426394793   9.769596991    0.940305280       1
-4.566565283   7.587446161    0.512613700       1
-3.996845523   9.085592631    -1.366678340      1
-1.484572543   5.205273971    0.000000000       3
-2.523621273   4.012214471    0.000000000       4
0.172419037    4.571298781    0.000000000       2
0.154401667    3.508853951    0.000000000       1
1.796022107    5.168368991    0.000000000       3
2.991038277    4.153943791    0.000000000       4
2.862086867    7.285084741    0.000000000       1
%endblock AtomicCoordinatesAndAtomicSpecies
%include ../../../Defaults.fdf
************************** End of input data file *****************************

reinit: -----------------------------------------------------------------------
reinit: System Name: 
reinit: -----------------------------------------------------------------------
reinit: System Label: AT
reinit: -----------------------------------------------------------------------

initatom: Reading input for the pseudopotentials and atomic orbitals ----------
Species number:   1 Atomic number:    1 Label: H
Species number:   2 Atomic number:    7 Label: N
Species number:   3 Atomic number:   14 Label: Si
Species number:   4 Atomic number:    8 Label: O

Ground state valence configuration:   1s01
Reading pseudopotential information in formatted form from H.psf

Pseudopotential generated from a relativistic atomic calculation

Valence configuration for pseudopotential generation:
1s( 1.00) rc: 0.01
2p( 0.00) rc: 0.60
3d( 0.00) rc: 1.99
4f( 0.00) rc: 2.49
Ground state valence configuration:   2s02  2p03
Reading pseudopotential information in formatted form from N.psf

Pseudopotential generated from a relativistic atomic calculation

Valence configuration for pseudopotential generation:
2s( 2.00) rc: 0.94
2p( 3.00) rc: 0.59
3d( 0.00) rc: 3.46
4f( 0.00) rc: 2.47
Ground state valence configuration:   3s02  3p02
Reading pseudopotential information in formatted form from Si.psf

Pseudopotential generated from a relativistic atomic calculation

Valence configuration for pseudopotential generation:
3s( 2.00) rc: 1.67
3p( 2.00) rc: 2.04
3d( 0.00) rc: 2.89
4f( 0.00) rc: 2.49
Ground state valence configuration:   2s02  2p04
Reading pseudopotential information in formatted form from O.psf

Pseudopotential generated from a relativistic atomic calculation

Valence configuration for pseudopotential generation:
2s( 2.00) rc: 0.45
2p( 4.00) rc: 0.92
3d( 0.00) rc: 2.24
4f( 0.00) rc: 0.25
For H, standard SIESTA heuristics set lmxkb to 2
 (one more than the basis l, including polarization orbitals).
Use PS.lmax or PS.KBprojectors blocks to override.
For N, standard SIESTA heuristics set lmxkb to 3
 (one more than the basis l, including polarization orbitals).
Use PS.lmax or PS.KBprojectors blocks to override.
For Si, standard SIESTA heuristics set lmxkb to 3
 (one more than the basis l, including polarization orbitals).
Use PS.lmax or PS.KBprojectors blocks to override.
For O, standard SIESTA heuristics set lmxkb to 3
 (one more than the basis l, including polarization orbitals).
Use PS.lmax or PS.KBprojectors blocks to override.

<basis_specs>
===============================================================================
H                    Z=   1    Mass=  1.0100        Charge= 0.17977+309
Lmxo=0 Lmxkb= 2    BasisType=split      Semic=F
L=0  Nsemic=0  Cnfigmx=1
          i=1  nzeta=2  polorb=1  (1s)
            splnorm:   0.62000    
               vcte:    0.0000    
               rinn:    0.0000    
               qcoe:    0.0000    
               qyuk:    0.0000    
               qwid:   0.10000E-01
                rcs:    0.0000      0.0000    
            lambdas:    1.0000      1.0000    
-------------------------------------------------------------------------------
L=0  Nkbl=1  erefs: 0.17977+309
L=1  Nkbl=1  erefs: 0.17977+309
L=2  Nkbl=1  erefs: 0.17977+309
===============================================================================
</basis_specs>

atom: Called for H                     (Z =   1)

read_vps: Pseudopotential generation method:
read_vps: ATM4.2.7  Troullier-Martins                       
Valence charge for ps generation:    1.00000

xc_check: Exchange-correlation functional:
xc_check: GGA Perdew, Burke & Ernzerhof 1996
V l=0 = -2*Zval/r beyond r=  0.0098
V l=1 = -2*Zval/r beyond r=  0.5817
V l=2 = -2*Zval/r beyond r=  1.9372
All V_l potentials equal beyond r=  1.9372
This should be close to max(r_c) in ps generation
All pots = -2*Zval/r beyond r=  1.9372

VLOCAL1: 99.0% of the norm of Vloc inside     11.567 Ry
VLOCAL1: 99.9% of the norm of Vloc inside     26.362 Ry
atom: Maximum radius for 4*pi*r*r*local-pseudopot. charge    2.25106
atom: Maximum radius for r*vlocal+2*Zval:    1.91306
GHOST: No ghost state for L =  0
GHOST: No ghost state for L =  1
GHOST: No ghost state for L =  2

KBgen: Kleinman-Bylander projectors: 
   l= 0   rc=  2.036604   el= -0.477180   Ekb= -6.081590   kbcos= -0.277285
   l= 1   rc=  2.195416   el=  0.001076   Ekb= -0.926943   kbcos= -0.034643
   l= 2   rc=  2.251056   el=  0.002010   Ekb= -0.130941   kbcos= -0.009788

KBgen: Total number of Kleinman-Bylander projectors:    9
atom: -------------------------------------------------------------------------

atom: SANKEY-TYPE ORBITALS:
atom: Selected multiple-zeta basis: split     

SPLIT: Orbitals with angular momentum L= 0

SPLIT: Basis orbitals for state 1s

SPLIT: PAO cut-off radius determined from an
SPLIT: energy shift=  0.002000 Ry

   izeta = 1
                 lambda =    1.000000
                     rc =    6.518340
                 energy =   -0.475305
                kinetic =    0.912139
    potential(screened) =   -1.387444
       potential(ionic) =   -1.907295

   izeta = 2
                 rmatch =    2.141150
              splitnorm =    0.620000
                 energy =    0.566467
                kinetic =    3.772856
    potential(screened) =   -3.206389
       potential(ionic) =   -3.759093

POLgen: Perturbative polarization orbital with L=  1

POLgen: Polarization orbital for state 1s

   izeta = 1
                     rc =    6.518340
                 energy =    0.533861
                kinetic =    1.121086
    potential(screened) =   -0.587225
       potential(ionic) =   -1.053027
atom: Total number of Sankey-type orbitals:  5

atm_pop: Valence configuration (for local Pseudopot. screening):
 1s( 1.00)                                                            
Vna: chval, zval:    1.00000   1.00000

Vna:  Cut-off radius for the neutral-atom potential:   6.518340

atom: _________________________________________________________________________

<basis_specs>
===============================================================================
N                    Z=   7    Mass=  14.010        Charge= 0.17977+309
Lmxo=1 Lmxkb= 3    BasisType=split      Semic=F
L=0  Nsemic=0  Cnfigmx=2
          i=1  nzeta=2  polorb=0  (2s)
            splnorm:   0.28000    
               vcte:    0.0000    
               rinn:    0.0000    
               qcoe:    0.0000    
               qyuk:    0.0000    
               qwid:   0.10000E-01
                rcs:    0.0000      0.0000    
            lambdas:    1.0000      1.0000    
L=1  Nsemic=0  Cnfigmx=2
          i=1  nzeta=2  polorb=1  (2p)
            splnorm:   0.28000    
               vcte:    0.0000    
               rinn:    0.0000    
               qcoe:    0.0000    
               qyuk:    0.0000    
               qwid:   0.10000E-01
                rcs:    0.0000      0.0000    
            lambdas:    1.0000      1.0000    
-------------------------------------------------------------------------------
L=0  Nkbl=1  erefs: 0.17977+309
L=1  Nkbl=1  erefs: 0.17977+309
L=2  Nkbl=1  erefs: 0.17977+309
L=3  Nkbl=1  erefs: 0.17977+309
===============================================================================
</basis_specs>

atom: Called for N                     (Z =   7)

read_vps: Pseudopotential generation method:
read_vps: ATM4.2.7  Troullier-Martins                       
Valence charge for ps generation:    5.00000

xc_check: Exchange-correlation functional:
xc_check: GGA Perdew, Burke & Ernzerhof 1996
V l=0 = -2*Zval/r beyond r=  1.2889
V l=1 = -2*Zval/r beyond r=  1.2889
V l=2 = -2*Zval/r beyond r=  3.4178
V l=3 = -2*Zval/r beyond r=  2.4084
All V_l potentials equal beyond r=  3.3753
This should be close to max(r_c) in ps generation
All pots = -2*Zval/r beyond r=  3.4178

VLOCAL1: 99.0% of the norm of Vloc inside      3.810 Ry
VLOCAL1: 99.9% of the norm of Vloc inside      8.683 Ry
atom: Maximum radius for 4*pi*r*r*local-pseudopot. charge    4.02088
atom: Maximum radius for r*vlocal+2*Zval:    3.54838
GHOST: No ghost state for L =  0
GHOST: No ghost state for L =  1
GHOST: No ghost state for L =  2
GHOST: No ghost state for L =  3

KBgen: Kleinman-Bylander projectors: 
   l= 0   rc=  3.417763   el= -1.365098   Ekb= -4.433130   kbcos= -0.707855
   l= 1   rc=  3.375302   el= -0.521201   Ekb=-13.264039   kbcos= -0.535594
   l= 2   rc=  3.872880   el=  0.001991   Ekb= -0.641094   kbcos= -0.062456
   l= 3   rc=  3.970931   el=  0.003093   Ekb= -0.474517   kbcos= -0.018236

KBgen: Total number of Kleinman-Bylander projectors:   16
atom: -------------------------------------------------------------------------

atom: SANKEY-TYPE ORBITALS:
atom: Selected multiple-zeta basis: split     

SPLIT: Orbitals with angular momentum L= 0

SPLIT: Basis orbitals for state 2s

SPLIT: PAO cut-off radius determined from an
SPLIT: energy shift=  0.002000 Ry

   izeta = 1
                 lambda =    1.000000
                     rc =    4.730425
                 energy =   -1.363399
                kinetic =    1.245246
    potential(screened) =   -2.608645
       potential(ionic) =   -8.121105

   izeta = 2
                 rmatch =    2.531849
              splitnorm =    0.280000
                 energy =   -0.959908
                kinetic =    2.409435
    potential(screened) =   -3.369343
       potential(ionic) =   -9.427975

SPLIT: Orbitals with angular momentum L= 1

SPLIT: Basis orbitals for state 2p

SPLIT: PAO cut-off radius determined from an
SPLIT: energy shift=  0.002000 Ry

   izeta = 1
                 lambda =    1.000000
                     rc =    5.924108
                 energy =   -0.519262
                kinetic =    3.672940
    potential(screened) =   -4.192202
       potential(ionic) =   -9.518354

   izeta = 2
                 rmatch =    2.531849
              splitnorm =    0.280000
                 energy =   -0.104258
                kinetic =    6.807538
    potential(screened) =   -6.911796
       potential(ionic) =  -13.149920

POLgen: Perturbative polarization orbital with L=  2

POLgen: Polarization orbital for state 2p

   izeta = 1
                     rc =    5.924108
                 energy =    1.427508
                kinetic =    2.872379
    potential(screened) =   -1.444871
       potential(ionic) =   -5.563644
atom: Total number of Sankey-type orbitals: 13

atm_pop: Valence configuration (for local Pseudopot. screening):
 2s( 2.00)                                                            
 2p( 3.00)                                                            
Vna: chval, zval:    5.00000   5.00000

Vna:  Cut-off radius for the neutral-atom potential:   5.924108

atom: _________________________________________________________________________

<basis_specs>
===============================================================================
Si                   Z=  14    Mass=  28.090        Charge= 0.17977+309
Lmxo=1 Lmxkb= 3    BasisType=split      Semic=F
L=0  Nsemic=0  Cnfigmx=3
          i=1  nzeta=2  polorb=0  (3s)
            splnorm:   0.28000    
               vcte:    0.0000    
               rinn:    0.0000    
               qcoe:    0.0000    
               qyuk:    0.0000    
               qwid:   0.10000E-01
                rcs:    0.0000      0.0000    
            lambdas:    1.0000      1.0000    
L=1  Nsemic=0  Cnfigmx=3
          i=1  nzeta=2  polorb=1  (3p)
            splnorm:   0.28000    
               vcte:    0.0000    
               rinn:    0.0000    
               qcoe:    0.0000    
               qyuk:    0.0000    
               qwid:   0.10000E-01
                rcs:    0.0000      0.0000    
            lambdas:    1.0000      1.0000    
-------------------------------------------------------------------------------
L=0  Nkbl=1  erefs: 0.17977+309
L=1  Nkbl=1  erefs: 0.17977+309
L=2  Nkbl=1  erefs: 0.17977+309
L=3  Nkbl=1  erefs: 0.17977+309
===============================================================================
</basis_specs>

atom: Called for Si                    (Z =  14)

read_vps: Pseudopotential generation method:
read_vps: ATM4.2.7  Troullier-Martins                       
Valence charge for ps generation:    4.00000

xc_check: Exchange-correlation functional:
xc_check: GGA Perdew, Burke & Ernzerhof 1996
V l=0 = -2*Zval/r beyond r=  2.7826
V l=1 = -2*Zval/r beyond r=  2.7826
V l=2 = -2*Zval/r beyond r=  2.9253
V l=3 = -2*Zval/r beyond r=  2.7826
All V_l potentials equal beyond r=  2.8530
This should be close to max(r_c) in ps generation
All pots = -2*Zval/r beyond r=  2.9253

VLOCAL1: 99.0% of the norm of Vloc inside      5.333 Ry
VLOCAL1: 99.9% of the norm of Vloc inside     12.154 Ry
atom: Maximum radius for 4*pi*r*r*local-pseudopot. charge    3.39869
atom: Maximum radius for r*vlocal+2*Zval:    2.96205
GHOST: No ghost state for L =  0
GHOST: No ghost state for L =  1
GHOST: No ghost state for L =  2
GHOST: No ghost state for L =  3

KBgen: Kleinman-Bylander projectors: 
   l= 0   rc=  3.075247   el= -0.794092   Ekb=  5.879390   kbcos=  0.167461
   l= 1   rc=  3.153101   el= -0.300068   Ekb=  2.642817   kbcos=  0.058301
   l= 2   rc=  3.273594   el=  0.001958   Ekb= -1.185135   kbcos= -0.104411
   l= 3   rc=  3.232927   el=  0.003046   Ekb= -0.497174   kbcos= -0.015889

KBgen: Total number of Kleinman-Bylander projectors:   16
atom: -------------------------------------------------------------------------

atom: SANKEY-TYPE ORBITALS:
atom: Selected multiple-zeta basis: split     

SPLIT: Orbitals with angular momentum L= 0

SPLIT: Basis orbitals for state 3s

SPLIT: PAO cut-off radius determined from an
SPLIT: energy shift=  0.002000 Ry

   izeta = 1
                 lambda =    1.000000
                     rc =    6.429618
                 energy =   -0.792283
                kinetic =    0.525293
    potential(screened) =   -1.317576
       potential(ionic) =   -3.744923

   izeta = 2
                 rmatch =    3.998416
              splitnorm =    0.280000
                 energy =   -0.583081
                kinetic =    1.069570
    potential(screened) =   -1.652651
       potential(ionic) =   -4.235185

SPLIT: Orbitals with angular momentum L= 1

SPLIT: Basis orbitals for state 3p

SPLIT: PAO cut-off radius determined from an
SPLIT: energy shift=  0.002000 Ry

   izeta = 1
                 lambda =    1.000000
                     rc =    8.464845
                 energy =   -0.298236
                kinetic =    0.785360
    potential(screened) =   -1.083596
       potential(ionic) =   -3.273779

   izeta = 2
                 rmatch =    4.587816
              splitnorm =    0.280000
                 energy =   -0.131871
                kinetic =    1.403687
    potential(screened) =   -1.535557
       potential(ionic) =   -4.015310

POLgen: Perturbative polarization orbital with L=  2

POLgen: Polarization orbital for state 3p

   izeta = 1
                     rc =    8.464845
                 energy =    0.321949
                kinetic =    1.055677
    potential(screened) =   -0.733728
       potential(ionic) =   -2.672950
atom: Total number of Sankey-type orbitals: 13

atm_pop: Valence configuration (for local Pseudopot. screening):
 3s( 2.00)                                                            
 3p( 2.00)                                                            
Vna: chval, zval:    4.00000   4.00000

Vna:  Cut-off radius for the neutral-atom potential:   8.464845

atom: _________________________________________________________________________

<basis_specs>
===============================================================================
O                    Z=   8    Mass=  16.000        Charge= 0.17977+309
Lmxo=1 Lmxkb= 3    BasisType=split      Semic=F
L=0  Nsemic=0  Cnfigmx=2
          i=1  nzeta=2  polorb=0  (2s)
            splnorm:   0.28000    
               vcte:    0.0000    
               rinn:    0.0000    
               qcoe:    0.0000    
               qyuk:    0.0000    
               qwid:   0.10000E-01
                rcs:    0.0000      0.0000    
            lambdas:    1.0000      1.0000    
L=1  Nsemic=0  Cnfigmx=2
          i=1  nzeta=2  polorb=1  (2p)
            splnorm:   0.28000    
               vcte:    0.0000    
               rinn:    0.0000    
               qcoe:    0.0000    
               qyuk:    0.0000    
               qwid:   0.10000E-01
                rcs:    0.0000      0.0000    
            lambdas:    1.0000      1.0000    
-------------------------------------------------------------------------------
L=0  Nkbl=1  erefs: 0.17977+309
L=1  Nkbl=1  erefs: 0.17977+309
L=2  Nkbl=1  erefs: 0.17977+309
L=3  Nkbl=1  erefs: 0.17977+309
===============================================================================
</basis_specs>

atom: Called for O                     (Z =   8)

read_vps: Pseudopotential generation method:
read_vps: ATM4.2.7  Troullier-Martins                       
Valence charge for ps generation:    6.00000

xc_check: Exchange-correlation functional:
xc_check: GGA Perdew, Burke & Ernzerhof 1996
V l=0 = -2*Zval/r beyond r=  1.1000
V l=1 = -2*Zval/r beyond r=  1.1000
V l=2 = -2*Zval/r beyond r=  2.2154
V l=3 = -2*Zval/r beyond r=  1.1000
All V_l potentials equal beyond r=  2.2154
This should be close to max(r_c) in ps generation
All pots = -2*Zval/r beyond r=  2.2154

VLOCAL1: 99.0% of the norm of Vloc inside      8.845 Ry
VLOCAL1: 99.9% of the norm of Vloc inside     20.157 Ry
atom: Maximum radius for 4*pi*r*r*local-pseudopot. charge    2.67231
atom: Maximum radius for r*vlocal+2*Zval:    2.32897
GHOST: No ghost state for L =  0
GHOST: No ghost state for L =  1
GHOST: No ghost state for L =  2
GHOST: No ghost state for L =  3

KBgen: Kleinman-Bylander projectors: 
   l= 0   rc=  2.243238   el= -1.759686   Ekb=**********   kbcos= -0.171774
   l= 1   rc=  2.328968   el= -0.663873   Ekb=-14.506792   kbcos= -0.519897
   l= 2   rc=  2.573941   el=  0.002031   Ekb= -1.137373   kbcos= -0.019581
   l= 3   rc=  2.606321   el=  0.003153   Ekb= -1.013546   kbcos= -0.003122

KBgen: Total number of Kleinman-Bylander projectors:   16
atom: -------------------------------------------------------------------------

atom: SANKEY-TYPE ORBITALS:
atom: Selected multiple-zeta basis: split     

SPLIT: Orbitals with angular momentum L= 0

SPLIT: Basis orbitals for state 2s

SPLIT: PAO cut-off radius determined from an
SPLIT: energy shift=  0.002000 Ry

   izeta = 1
                 lambda =    1.000000
                     rc =    4.243912
                 energy =   -1.758270
                kinetic =    3.286084
    potential(screened) =   -5.044353
       potential(ionic) =  -12.921184

   izeta = 2
                 rmatch =    2.187845
              splitnorm =    0.280000
                 energy =   -0.885018
                kinetic =    8.134434
    potential(screened) =   -9.019452
       potential(ionic) =  -17.710645

SPLIT: Orbitals with angular momentum L= 1

SPLIT: Basis orbitals for state 2p

SPLIT: PAO cut-off radius determined from an
SPLIT: energy shift=  0.002000 Ry

   izeta = 1
                 lambda =    1.000000
                     rc =    5.314825
                 energy =   -0.661986
                kinetic =    4.917472
    potential(screened) =   -5.579458
       potential(ionic) =  -13.236259

   izeta = 2
                 rmatch =    2.160663
              splitnorm =    0.280000
                 energy =   -0.068760
                kinetic =    9.183374
    potential(screened) =   -9.252135
       potential(ionic) =  -18.274251

POLgen: Perturbative polarization orbital with L=  2

POLgen: Polarization orbital for state 2p

   izeta = 1
                     rc =    5.314825
                 energy =    1.970580
                kinetic =    3.886128
    potential(screened) =   -1.915547
       potential(ionic) =   -7.749584
atom: Total number of Sankey-type orbitals: 13

atm_pop: Valence configuration (for local Pseudopot. screening):
 2s( 2.00)                                                            
 2p( 4.00)                                                            
Vna: chval, zval:    6.00000   6.00000

Vna:  Cut-off radius for the neutral-atom potential:   5.314825

atom: _________________________________________________________________________

prinput: Basis input ----------------------------------------------------------

PAO.BasisType split     

%block ChemicalSpeciesLabel
    1    1 H                       # Species index, atomic number, species label
    2    7 N                       # Species index, atomic number, species label
    3   14 Si                      # Species index, atomic number, species label
    4    8 O                       # Species index, atomic number, species label
%endblock ChemicalSpeciesLabel

%block PAO.Basis                 # Define Basis set
H                     1                    # Species label, number of l-shells
 n=1   0   2 P   1                   # n, l, Nzeta, Polarization, NzetaPol
   6.518      2.141   
   1.000      1.000   
N                     2                    # Species label, number of l-shells
 n=2   0   2                         # n, l, Nzeta 
   4.730      2.532   
   1.000      1.000   
 n=2   1   2 P   1                   # n, l, Nzeta, Polarization, NzetaPol
   5.924      2.532   
   1.000      1.000   
Si                    2                    # Species label, number of l-shells
 n=3   0   2                         # n, l, Nzeta 
   6.430      3.998   
   1.000      1.000   
 n=3   1   2 P   1                   # n, l, Nzeta, Polarization, NzetaPol
   8.465      4.588   
   1.000      1.000   
O                     2                    # Species label, number of l-shells
 n=2   0   2                         # n, l, Nzeta 
   4.244      2.188   
   1.000      1.000   
 n=2   1   2 P   1                   # n, l, Nzeta, Polarization, NzetaPol
   5.315      2.161   
   1.000      1.000   
%endblock PAO.Basis

prinput: ----------------------------------------------------------------------

Dumping basis to NetCDF file H.ion.nc
Dumping basis to NetCDF file N.ion.nc
Dumping basis to NetCDF file Si.ion.nc
Dumping basis to NetCDF file O.ion.nc
coor:   Atomic-coordinates input format  =     Cartesian coordinates
coor:                                          (in Angstroms)

siesta: Atomic coordinates (Bohr) and species
siesta:      4.87999 -10.91663   0.00000  1        1
siesta:      3.12704  -9.95765   0.00000  2        2
siesta:      0.11930 -11.53056   0.00000  3        3
siesta:      0.22530 -14.35597   0.00000  1        4
siesta:     -2.60195  -9.79371   0.00000  2        5
siesta:     -1.55784  -6.54009   0.00000  3        6
siesta:     -2.21206  -2.39996   0.00000  3        7
siesta:     -5.11537  -0.78899   0.00000  2        8
siesta:     -5.20538   1.19971   0.00000  1        9
siesta:     -6.87421  -1.71959   0.00000  1       10
siesta:      0.41213  -0.44256   0.00000  2       11
siesta:      3.53758  -1.31745   0.00000  3       12
siesta:      5.34415   0.87204   0.00000  1       13
siesta:      5.00428  -4.26138   0.00000  2       14
siesta:      2.63035  -6.52849   0.00000  3       15
siesta:      3.51876  13.11391   0.00000  2       16
siesta:      1.01040  15.40086   0.00000  3       17
siesta:      2.21982  17.97338   0.00000  1       18
siesta:     -2.93109  14.13374   0.00000  3       19
siesta:     -6.76641  16.26935   0.00000  3       20
siesta:     -6.47495  18.46187   1.77692  1       21
siesta:     -8.62956  14.33820   0.96870  1       22
siesta:     -7.55295  17.16929  -2.58265  1       23
siesta:     -2.80544   9.83655   0.00000  3       24
siesta:     -4.76895   7.58199   0.00000  4       25
siesta:      0.32582   8.63851   0.00000  2       26
siesta:      0.29178   6.63078   0.00000  1       27
siesta:      3.39399   9.76681   0.00000  3       28
siesta:      5.65225   7.84982   0.00000  4       29
siesta:      5.40856  13.76682   0.00000  1       30

siesta: Automatic unit cell vectors (Ang):
siesta:   15.852581    0.000000    0.000000
siesta:    0.000000   26.691674    0.000000
siesta:    0.000000    0.000000   10.224979

siesta: System type = molecule  

initatomlists: Number of atoms, orbitals, and projectors:     30   302   403

siesta: ******************** Simulation parameters ****************************
siesta:
siesta: The following are some of the parameters of the simulation.
siesta: A complete list of the parameters used, including default values,
siesta: can be found in file out.fdf
siesta:
redata: Spin configuration                          = spin-orbit
redata: Number of spin components                   = 8
redata: Time-Reversal Symmetry                      = F
redata: Spin spiral                                 = F
############################################################
This spin-orbit implementation uses a local approximation.
From 4.2 and onwards the full non-local approximation is implemented
You are strongly advised to use >=4.2 versions!
############################################################
redata: Long output                                 =   F
redata: Number of Atomic Species                    =        4
redata: Charge density info will appear in .RHO file
redata: Write Mulliken Pop.                         = Atomic and Orbital charges
redata: Matel table size (NRTAB)                    =     1024
redata: Mesh Cutoff                                 =   340.0000 Ry
redata: Net charge of the system                    =     0.0000 |e|
redata: Min. number of SCF Iter                     =        1
redata: Max. number of SCF Iter                     =      200
redata: SCF mix quantity                            = Hamiltonian
redata: Mix DM or H after convergence               =   F
redata: Recompute H after scf cycle                 =   F
redata: Mix DM in first SCF step                    =   T
redata: Write Pulay info on disk                    =   F
redata: New DM Occupancy tolerance                  = 0.000000000001
redata: No kicks to SCF
redata: DM Mixing Weight for Kicks                  =     0.5000
redata: Require Harris convergence for SCF          =   F
redata: Harris energy tolerance for SCF             =     0.000100 eV
redata: Require DM convergence for SCF              =   T
redata: DM tolerance for SCF                        =     0.000008
redata: Require EDM convergence for SCF             =   F
redata: EDM tolerance for SCF                       =     0.001000 eV
redata: Require H convergence for SCF               =   T
redata: Hamiltonian tolerance for SCF               =     0.000001 eV
redata: Require (free) Energy convergence for SCF   =   F
redata: (free) Energy tolerance for SCF             =     0.000100 eV
redata: Using Saved Data (generic)                  =   F
redata: Use continuation files for DM               =   F
redata: Neglect nonoverlap interactions             =   F
redata: Method of Calculation                       = Diagonalization
redata: Electronic Temperature                      =   299.9978 K
redata: Fix the spin of the system                  =   F
redata: Dynamics option                             = Single-point calculation
mix.SCF: Pulay mixing                            = Pulay
mix.SCF:    Variant                              = stable
mix.SCF:    History steps                        = 6
mix.SCF:    Linear mixing weight                 =     0.250000
mix.SCF:    Mixing weight                        =     0.250000
mix.SCF:    SVD condition                        = 0.1000E-07
mix.SCF:    Restart steps                        = 24
mix.SCF:    Restart save steps                   = 3
mix.SCF: Spin-component mixing                   all
redata: Save all siesta data in one NC              =   F
redata: ***********************************************************************

%block SCF.Mixers
  Pulay
%endblock SCF.Mixers

%block SCF.Mixer.Pulay
  # Mixing method
  method pulay
  variant stable

  # Mixing options
  weight 0.2500
  weight.linear 0.2500
  history 6
  restart 24
  restart.save 3
%endblock SCF.Mixer.Pulay

DM_history_depth set to one: no extrapolation allowed by default for geometry relaxation
Size of DM history Fstack: 1
Total number of electrons:    98.000000
Total ionic charge:    98.000000

* ProcessorY, Blocksize:    2  24


* Orbital distribution balance (max,min):    62    48


Time-reversal symmetry not used.

siesta: k-grid: Number of k-points =     1
siesta: k-grid: Cutoff (effective) =     5.112 Ang
siesta: k-grid: Supercell and displacements
siesta: k-grid:    1   0   0      0.000
siesta: k-grid:    0   1   0      0.000
siesta: k-grid:    0   0   1      0.000

diag: Algorithm                                     = ELPA-1stage
diag: Parallel over k                               =   F
diag: Use parallel 2D distribution                  =   T
diag: Parallel block-size                           = 24
diag: Parallel distribution                         =     2 x     3
diag: Used triangular part                          = Lower
diag: Absolute tolerance                            =  0.100E-15
diag: Orthogonalization factor                      =  0.100E-05
diag: Memory factor                                 =  1.0000


ts: **************************************************************
ts: Save H and S matrices                           =    F
ts: Save DM and EDM matrices                        =    F
ts: Only save the overlap matrix S                  =    F
ts: **************************************************************

************************ Begin: TS CHECKS AND WARNINGS ************************
************************ End: TS CHECKS AND WARNINGS **************************


                     ====================================
                        Single-point calculation
                     ====================================

outcoor: Atomic coordinates (Ang):                          
    2.58237765   -5.77683044    0.00000000   1       1  H
    1.65475924   -5.26936198    0.00000000   2       2  N
    0.06312884   -6.10170459    0.00000000   3       3  Si
    0.11922324   -7.59684950    0.00000000   1       4  H
   -1.37689205   -5.18260374    0.00000000   2       5  N
   -0.82437190   -3.46086644    0.00000000   3       6  Si
   -1.17057148   -1.27000210    0.00000000   3       7  Si
   -2.70693368   -0.41751578    0.00000000   2       8  N
   -2.75456966    0.63485862    0.00000000   1       9  H
   -3.63767564   -0.90996786    0.00000000   1      10  H
    0.21809179   -0.23419397    0.00000000   2      11  N
    1.87200410   -0.69716230    0.00000000   3      12  Si
    2.82800113    0.46146477    0.00000000   1      13  H
    2.64815008   -2.25502447    0.00000000   2      14  N
    1.39192138   -3.45472722    0.00000000   3      15  Si
    1.86204950    6.93957764    0.00000000   2      16  N
    0.53467798    8.14978194    0.00000000   3      17  Si
    1.17467925    9.51110018    0.00000000   1      18  H
   -1.55106796    7.47925059    0.00000000   3      19  Si
   -3.58063056    8.60936678    0.00000000   3      20  Si
   -3.42639479    9.76959699    0.94030528   1      21  H
   -4.56656528    7.58744616    0.51261370   1      22  H
   -3.99684552    9.08559263   -1.36667834   1      23  H
   -1.48457254    5.20527397    0.00000000   3      24  Si
   -2.52362127    4.01221447    0.00000000   4      25  O
    0.17241904    4.57129878    0.00000000   2      26  N
    0.15440167    3.50885395    0.00000000   1      27  H
    1.79602211    5.16836899    0.00000000   3      28  Si
    2.99103828    4.15394379    0.00000000   4      29  O
    2.86208687    7.28508474    0.00000000   1      30  H

outcell: Unit cell vectors (Ang):
       15.852581    0.000000    0.000000
        0.000000   26.691674    0.000000
        0.000000    0.000000   10.224979

outcell: Cell vector modules (Ang)   :   15.852581   26.691674   10.224979
outcell: Cell angles (23,13,12) (deg):     90.0000     90.0000     90.0000
outcell: Cell volume (Ang**3)        :   4326.5152
<dSpData1D:S at geom step 0
  <sparsity:sparsity for geom step 0
    nrows_g=302 nrows=62 sparsity=.1197 nnzs=10914, refcount: 8>
  <dData1D:(new from dSpData1D) n=10914, refcount: 1>
refcount: 1>
new_DM -- step:     1
Initializing Density Matrix...
DM filled with atomic data:
<dSpData2D:DM initialized from atoms
  <sparsity:sparsity for geom step 0
    nrows_g=302 nrows=62 sparsity=.1197 nnzs=10914, refcount: 9>
  <dData2D:DM n=10914 m=8, refcount: 1>
refcount: 1>
     spin moment: S , {S} =   56.00000   0.00000   0.00000  56.00000
No. of atoms with KB's overlaping orbs in proc 0. Max # of overlaps:      24     157

Initializing spin-orbit part of the Hamiltonian
  Adding spin-orbit effects for H 
  Adding spin-orbit effects for N 
  Adding spin-orbit effects for Si
  Adding spin-orbit effects for O 


New grid distribution:   1
           1       1:   90    1:   75    1:   20
           2       1:   90    1:   75   21:   40
           3       1:   90    1:   75   41:   60
           4       1:   90   76:  150    1:   20
           5       1:   90   76:  150   21:   40
           6       1:   90   76:  150   41:   60

InitMesh: MESH =   180 x   300 x   120 =     6480000
InitMesh: (bp) =    90 x   150 x    60 =      810000
InitMesh: Mesh cutoff (required, used) =   340.000   349.134 Ry
ExtMesh (bp) on 0 =   194 x   179 x   128 =     4444928
New grid distribution:   2
           1      14:   90   33:   51    1:   60
           2       1:   12   52:  150    1:   60
           3       1:   13    1:   51    1:   60
           4      13:   90   52:  130    1:   60
           5      14:   90    1:   32    1:   60
           6      13:   90  131:  150    1:   60
New grid distribution:   3
           1       1:   19   57:  150    1:   60
           2      23:   90   33:   56    1:   60
           3       1:   22    1:   56    1:   60
           4      20:   90   57:  122    1:   60
           5      23:   90    1:   32    1:   60
           6      20:   90  123:  150    1:   60
Setting up quadratic distribution...
ExtMesh (bp) on 0 =   181 x   123 x   168 =     3740184
PhiOnMesh: Number of (b)points on node 0 =                87780
PhiOnMesh: nlist on node 0 =              1656751

stepf: Fermi-Dirac step function

siesta: Program's energy decomposition (eV):
siesta: Ebs     =      -626.020253
siesta: Eions   =      3553.971015
siesta: Ena     =       377.801917
siesta: Ekin    =      3182.319308
siesta: Enl     =     -2997.406694
siesta: Eso     =        -0.003906
siesta: Edftu   =         0.000000
siesta: DEna    =       130.303912
siesta: DUscf   =        76.317111
siesta: DUext   =         0.000000
siesta: Exc     =     -1171.141952
siesta: eta*DQ  =         0.000000
siesta: Emadel  =         0.000000
siesta: Emeta   =         0.000000
siesta: Emolmec =         0.000000
siesta: Ekinion =         0.000000
siesta: Eharris =     -3883.567093
siesta: Etot    =     -3955.781318
siesta: FreeEng =     -3955.785531

        iscf     Eharris(eV)        E_KS(eV)     FreeEng(eV)     dDmax    Ef(eV) dHmax(eV)
   scf:    1    -3883.567093    -3955.781318    -3955.785531  0.971429 -4.940703 21.488393
     spin moment: S , {S} =    2.03182   0.00003   0.00001   2.03182
timer: Routine,Calls,Time,% = IterSCF        1       5.534  21.61
   scf:    2    -3998.855335    -3989.857109    -3989.857110  0.457002 -4.354146 10.526611
     spin moment: S , {S} =    2.00011  -0.00001   0.00004   2.00011
   scf:    3    -3986.133742    -3993.601627    -3993.635868  0.416358 -4.250614  8.289202
     spin moment: S , {S} =    0.70139   0.00001   0.00000   0.70139
   scf:    4    -4000.327585    -3997.625572    -3997.625572  0.116759 -3.947269  5.274127
     spin moment: S , {S} =    0.00010   0.00001  -0.00000   0.00010
   scf:    5    -3999.012774    -3998.371632    -3998.371632  0.032008 -3.877275  2.803873
     spin moment: S , {S} =    0.00005   0.00000  -0.00000   0.00005
   scf:    6    -3998.966452    -3998.677690    -3998.677690  0.023684 -3.890922  1.587024
     spin moment: S , {S} =    0.00003   0.00000  -0.00000   0.00003
   scf:    7    -3998.993848    -3998.829303    -3998.829303  0.021614 -3.940123  0.649016
     spin moment: S , {S} =    0.00001   0.00000  -0.00000   0.00001
   scf:    8    -3998.921209    -3998.873464    -3998.873465  0.010052 -3.972246  0.346472
     spin moment: S , {S} =    0.00000   0.00000  -0.00000   0.00000
   scf:    9    -3998.914029    -3998.892692    -3998.892698  0.007213 -3.986416  0.224016
     spin moment: S , {S} =    0.00001   0.00000  -0.00000  -0.00001
   scf:   10    -3998.929169    -3998.907979    -3998.908036  0.013544 -3.998288  0.115104
     spin moment: S , {S} =    0.00013   0.00000   0.00000  -0.00013
   scf:   11    -3998.911386    -3998.909587    -3998.909650  0.004429 -3.992274  0.036969
     spin moment: S , {S} =    0.00003   0.00000   0.00000  -0.00003
   scf:   12    -3998.910515    -3998.910030    -3998.910097  0.001971 -3.991370  0.029823
     spin moment: S , {S} =    0.00001   0.00000   0.00000  -0.00001
   scf:   13    -3998.910600    -3998.910299    -3998.910367  0.001661 -3.990404  0.024144
     spin moment: S , {S} =    0.00000   0.00000   0.00000  -0.00000
   scf:   14    -3998.910895    -3998.910563    -3998.910631  0.002360 -3.989618  0.016030
     spin moment: S , {S} =    0.00000   0.00000   0.00000  -0.00000
   scf:   15    -3998.910818    -3998.910673    -3998.910741  0.001762 -3.989263  0.009439
     spin moment: S , {S} =    0.00000   0.00000   0.00000  -0.00000
   scf:   16    -3998.910754    -3998.910707    -3998.910775  0.001030 -3.989389  0.004824
     spin moment: S , {S} =    0.00000   0.00000   0.00000  -0.00000
   scf:   17    -3998.910737    -3998.910719    -3998.910787  0.000753 -3.989526  0.002760
     spin moment: S , {S} =    0.00000   0.00000   0.00000  -0.00000
   scf:   18    -3998.910724    -3998.910721    -3998.910788  0.000297 -3.989629  0.001401
     spin moment: S , {S} =    0.00000   0.00000   0.00000  -0.00000
   scf:   19    -3998.910722    -3998.910722    -3998.910789  0.000126 -3.989634  0.000831
     spin moment: S , {S} =    0.00000   0.00000   0.00000  -0.00000
   scf:   20    -3998.910722    -3998.910722    -3998.910789  0.000075 -3.989635  0.000539
     spin moment: S , {S} =    0.00000   0.00000   0.00000  -0.00000
   scf:   21    -3998.910722    -3998.910722    -3998.910790  0.000074 -3.989636  0.000319
     spin moment: S , {S} =    0.00000   0.00000   0.00000  -0.00000
   scf:   22    -3998.910722    -3998.910722    -3998.910790  0.000047 -3.989646  0.000206
     spin moment: S , {S} =    0.00000   0.00000   0.00000  -0.00000
   scf:   23    -3998.910722    -3998.910722    -3998.910790  0.000012 -3.989653  0.000151
     spin moment: S , {S} =    0.00000   0.00000   0.00000  -0.00000
   scf:   24    -3998.910722    -3998.910722    -3998.910790  0.000009 -3.989655  0.000112
     spin moment: S , {S} =    0.00000   0.00000   0.00000  -0.00000
mix: Pulay -- resetting history
   scf:   25    -3998.910722    -3998.910722    -3998.910790  0.000014 -3.989653  0.000042
     spin moment: S , {S} =    0.00000   0.00000   0.00000  -0.00000
   scf:   26    -3998.910722    -3998.910722    -3998.910790  0.000005 -3.989651  0.000015
     spin moment: S , {S} =    0.00000   0.00000   0.00000  -0.00000
   scf:   27    -3998.910722    -3998.910722    -3998.910790  0.000001 -3.989651  0.000008
     spin moment: S , {S} =    0.00000   0.00000   0.00000  -0.00000
   scf:   28    -3998.910722    -3998.910722    -3998.910790  0.000001 -3.989651  0.000005
     spin moment: S , {S} =    0.00000   0.00000   0.00000  -0.00000
   scf:   29    -3998.910722    -3998.910722    -3998.910790  0.000001 -3.989651  0.000003
     spin moment: S , {S} =    0.00000   0.00000   0.00000  -0.00000
   scf:   30    -3998.910722    -3998.910722    -3998.910790  0.000000 -3.989651  0.000002
     spin moment: S , {S} =    0.00000   0.00000  -0.00000  -0.00000
   scf:   31    -3998.910722    -3998.910722    -3998.910790  0.000000 -3.989651  0.000002
     spin moment: S , {S} =    0.00000  -0.00000  -0.00000  -0.00000
   scf:   32    -3998.910722    -3998.910722    -3998.910790  0.000000 -3.989651  0.000001
     spin moment: S , {S} =    0.00000  -0.00000  -0.00000  -0.00000
   scf:   33    -3998.910722    -3998.910722    -3998.910790  0.000000 -3.989651  0.000001
     spin moment: S , {S} =    0.00000  -0.00000   0.00000  -0.00000

SCF Convergence by DM+H criterion
max |DM_out - DM_in|         :     0.0000000841
max |H_out - H_in|      (eV) :     0.0000005610
SCF cycle converged after 33 iterations

Using DM_out to compute the final energy and forces
No. of atoms with KB's overlaping orbs in proc 0. Max # of overlaps:      24     157

siesta: E_KS(eV) =            -3998.9107

siesta: E_KS - E_eggbox =     -3998.9107
     spin moment: S , {S} =    0.00000  -0.00000   0.00000  -0.00000

siesta: Atomic forces (eV/Ang):
     1   -0.066690    0.002393    0.000002
     2   -0.004580   -0.048936   -0.000002
     3   -0.000958    0.044010    0.000004
     4   -0.023137    0.008146    0.000001
     5    0.014015   -0.044144   -0.000003
     6    0.038914    0.004939    0.000001
     7   -0.158774    0.129584    0.000015
     8    0.091217   -0.077908   -0.000059
     9    0.053818    0.025285    0.000097
    10    0.113674    0.093370    0.000011
    11   -0.028117    0.012746   -0.000018
    12    0.104618    0.081634   -0.000001
    13   -0.129440   -0.159667   -0.000001
    14   -0.021089   -0.065793    0.000002
    15   -0.000812    0.063746   -0.000001
    16    0.049121    0.097792    0.008213
    17    0.002942   -0.052842   -0.039826
    18   -0.148442    0.091497    0.008286
    19   -0.008385    0.026185   -0.041192
    20    0.043308   -0.049484    0.026136
    21   -0.161564    0.255416    0.057122
    22   -0.059072   -0.016069    0.025936
    23    0.061184    0.009070   -0.051513
    24    0.106274   -0.103109   -0.026606
    25   -3.117152   -2.044370    0.003060
    26   -0.064119    0.090876    0.006551
    27    0.039907   -0.164747    0.002807
    28   -0.033304   -0.137139   -0.000870
    29    1.468962    2.213317   -0.001105
    30    0.036955    0.175622    0.008261
----------------------------------------
   Tot   -1.800726    0.461419   -0.014694
----------------------------------------
   Max    3.117152
   Res    0.487543    sqrt( Sum f_i^2 / 3N )
----------------------------------------
   Max    3.117152    constrained

Stress tensor Voigt[x,y,z,yz,xz,xy] (kbar):       -1.79       -0.33       -0.23       -0.04        0.05        0.30
(Free)E + p*V (eV/cell)    -3996.7952
Target enthalpy (eV/cell)    -3998.9108

mulliken: Atomic and Orbital Populations:

Species: H                   

Atom      Orb        Charge      Spin       Svec
----------------------------------------------------------------
    1  1 1s         0.50905   0.00000     -0.000   0.000  -0.000
    1  2 1s         0.18804   0.00000      0.000  -0.000   0.000
    1  3 2Ppy       0.02798   0.00000      0.000   0.000  -0.000
    1  4 2Ppz       0.04001   0.00000     -0.000   0.000  -0.000
    1  5 2Ppx       0.02510   0.00000     -0.000   0.000  -0.000
    1     Total     0.79018   0.00000     -0.000   0.000  -0.000

    4  1 1s         1.02430   0.00000      0.000  -0.000   0.000
    4  2 1s         0.09500   0.00000      0.000   0.000   0.000
    4  3 2Ppy       0.03901   0.00000      0.000   0.000   0.000
    4  4 2Ppz       0.01995   0.00000      0.000   0.000  -0.000
    4  5 2Ppx       0.01356   0.00000      0.000  -0.000  -0.000
    4     Total     1.19182   0.00000      0.000  -0.000   0.000

    9  1 1s         0.47319   0.00000      0.000  -0.000  -0.000
    9  2 1s         0.19590   0.00000     -0.000   0.000   0.000
    9  3 2Ppy       0.02659   0.00000      0.000   0.000   0.000
    9  4 2Ppz       0.04724   0.00000     -0.000   0.000   0.000
    9  5 2Ppx       0.01170   0.00000     -0.000  -0.000  -0.000
    9     Total     0.75461   0.00000      0.000  -0.000   0.000

   10  1 1s         0.48309   0.00000      0.000  -0.000   0.000
   10  2 1s         0.19591   0.00000     -0.000   0.000   0.000
   10  3 2Ppy       0.00695   0.00000      0.000  -0.000  -0.000
   10  4 2Ppz       0.05300   0.00000     -0.000  -0.000  -0.000
   10  5 2Ppx       0.02918   0.00000     -0.000   0.000   0.000
   10     Total     0.76814   0.00000      0.000  -0.000   0.000

   13  1 1s         1.00446   0.00000     -0.000   0.000   0.000
   13  2 1s         0.10051   0.00000      0.000  -0.000   0.000
   13  3 2Ppy       0.02678   0.00000      0.000  -0.000   0.000
   13  4 2Ppz       0.01416   0.00000     -0.000   0.000  -0.000
   13  5 2Ppx       0.01775   0.00000      0.000   0.000   0.000
   13     Total     1.16366   0.00000     -0.000   0.000   0.000

   18  1 1s         1.04999   0.00000     -0.000   0.000   0.000
   18  2 1s         0.08384   0.00000      0.000  -0.000   0.000
   18  3 2Ppy       0.02783   0.00000     -0.000  -0.000   0.000
   18  4 2Ppz       0.01890   0.00000      0.000  -0.000  -0.000
   18  5 2Ppx       0.01766   0.00000      0.000  -0.000   0.000
   18     Total     1.19821   0.00000     -0.000  -0.000   0.000

   21  1 1s         1.06633   0.00000      0.000  -0.000   0.000
   21  2 1s         0.08274   0.00000     -0.000   0.000  -0.000
   21  3 2Ppy       0.02230   0.00000     -0.000  -0.000  -0.000
   21  4 2Ppz       0.02109   0.00000      0.000   0.000  -0.000
   21  5 2Ppx       0.01158   0.00000     -0.000  -0.000  -0.000
   21     Total     1.20404   0.00000     -0.000  -0.000   0.000

   22  1 1s         1.05236   0.00000     -0.000   0.000   0.000
   22  2 1s         0.08348   0.00000      0.000  -0.000   0.000
   22  3 2Ppy       0.02010   0.00000      0.000  -0.000   0.000
   22  4 2Ppz       0.01769   0.00000      0.000  -0.000  -0.000
   22  5 2Ppx       0.01709   0.00000      0.000  -0.000   0.000
   22     Total     1.19072   0.00000     -0.000   0.000   0.000

   23  1 1s         1.06490   0.00000      0.000   0.000   0.000
   23  2 1s         0.08212   0.00000     -0.000  -0.000  -0.000
   23  3 2Ppy       0.01685   0.00000     -0.000  -0.000  -0.000
   23  4 2Ppz       0.02462   0.00000     -0.000   0.000   0.000
   23  5 2Ppx       0.01348   0.00000      0.000  -0.000  -0.000
   23     Total     1.20198   0.00000      0.000   0.000   0.000

   27  1 1s         0.46124   0.00000     -0.000   0.000   0.000
   27  2 1s         0.19071   0.00000     -0.000  -0.000  -0.000
   27  3 2Ppy       0.02227   0.00000     -0.000   0.000  -0.000
   27  4 2Ppz       0.02464   0.00000     -0.000  -0.000   0.000
   27  5 2Ppx       0.02883   0.00000      0.000  -0.000   0.000
   27     Total     0.72769   0.00000     -0.000  -0.000   0.000

   30  1 1s         0.48365   0.00000     -0.000   0.000  -0.000
   30  2 1s         0.18901   0.00000     -0.000  -0.000   0.000
   30  3 2Ppy       0.02664   0.00000      0.000  -0.000  -0.000
   30  4 2Ppz       0.03449   0.00000      0.000  -0.000   0.000
   30  5 2Ppx       0.02322   0.00000      0.000   0.000  -0.000
   30     Total     0.75701   0.00000     -0.000  -0.000  -0.000

----------------------------------------------------------------
Total              10.94808   0.00000      0.000  -0.000   0.000


Species: N                   

Atom      Orb        Charge      Spin       Svec
----------------------------------------------------------------
    2  1 2s         1.38076   0.00000      0.000   0.000   0.000
    2  2 2s         0.12677   0.00000     -0.000  -0.000   0.000
    2  3 2py        1.06832   0.00000      0.000   0.000   0.000
    2  4 2pz        1.49527   0.00000      0.000   0.000   0.000
    2  5 2px        1.01705   0.00000      0.000  -0.000   0.000
    2  6 2py        0.19597   0.00000     -0.000   0.000  -0.000
    2  7 2pz        0.01434   0.00000      0.000  -0.000   0.000
    2  8 2px        0.21010   0.00000     -0.000   0.000  -0.000
    2  9 3Pdxy      0.00674   0.00000     -0.000   0.000   0.000
    2 10 3Pdyz      0.00607   0.00000      0.000  -0.000  -0.000
    2 11 3Pdz2      0.00151   0.00000      0.000   0.000   0.000
    2 12 3Pdxz      0.00304   0.00000     -0.000  -0.000  -0.000
    2 13 3Pdx2-y2   0.00297   0.00000     -0.000   0.000  -0.000
    2     Total     5.52893   0.00000      0.000   0.000   0.000

    5  1 2s         1.55798   0.00000     -0.000  -0.000   0.000
    5  2 2s         0.08122   0.00000      0.000   0.000   0.000
    5  3 2py        0.90441   0.00000     -0.000   0.000   0.000
    5  4 2pz        1.22245   0.00000      0.000  -0.000   0.000
    5  5 2px        1.14222   0.00000      0.000  -0.000   0.000
    5  6 2py        0.23010   0.00000      0.000  -0.000  -0.000
    5  7 2pz        0.05523   0.00000      0.000   0.000  -0.000
    5  8 2px        0.14621   0.00000     -0.000   0.000   0.000
    5  9 3Pdxy      0.00854   0.00000     -0.000  -0.000   0.000
    5 10 3Pdyz      0.00702   0.00000     -0.000  -0.000   0.000
    5 11 3Pdz2      0.00189   0.00000     -0.000  -0.000  -0.000
    5 12 3Pdxz      0.01128   0.00000     -0.000  -0.000  -0.000
    5 13 3Pdx2-y2   0.00920   0.00000      0.000   0.000  -0.000
    5     Total     5.37776   0.00000      0.000   0.000   0.000

    8  1 2s         1.28321   0.00000      0.000  -0.000  -0.000
    8  2 2s         0.17234   0.00000     -0.000   0.000   0.000
    8  3 2py        1.06726   0.00000     -0.000   0.000  -0.000
    8  4 2pz        1.56843   0.00000      0.000  -0.000  -0.000
    8  5 2px        1.00313   0.00000     -0.000   0.000  -0.000
    8  6 2py        0.19413   0.00000      0.000   0.000   0.000
    8  7 2pz        0.02722   0.00000     -0.000  -0.000   0.000
    8  8 2px        0.22874   0.00000      0.000  -0.000   0.000
    8  9 3Pdxy      0.00273   0.00000      0.000  -0.000   0.000
    8 10 3Pdyz      0.00084   0.00000     -0.000  -0.000  -0.000
    8 11 3Pdz2      0.00269   0.00000      0.000  -0.000   0.000
    8 12 3Pdxz      0.00242   0.00000     -0.000  -0.000  -0.000
    8 13 3Pdx2-y2   0.00419   0.00000      0.000  -0.000  -0.000
    8     Total     5.55733   0.00000     -0.000   0.000  -0.000

   11  1 2s         1.45812   0.00000      0.000  -0.000   0.000
   11  2 2s         0.11382   0.00000     -0.000   0.000   0.000
   11  3 2py        1.23119   0.00000     -0.000  -0.000   0.000
   11  4 2pz        1.29151   0.00000      0.000  -0.000   0.000
   11  5 2px        0.80168   0.00000     -0.000   0.000   0.000
   11  6 2py        0.10743   0.00000     -0.000  -0.000  -0.000
   11  7 2pz        0.04523   0.00000     -0.000   0.000  -0.000
   11  8 2px        0.31706   0.00000     -0.000  -0.000  -0.000
   11  9 3Pdxy      0.00737   0.00000      0.000  -0.000   0.000
   11 10 3Pdyz      0.00597   0.00000     -0.000  -0.000  -0.000
   11 11 3Pdz2      0.00050   0.00000      0.000   0.000  -0.000
   11 12 3Pdxz      0.00497   0.00000      0.000  -0.000  -0.000
   11 13 3Pdx2-y2   0.00508   0.00000     -0.000   0.000   0.000
   11     Total     5.38992   0.00000      0.000  -0.000   0.000

   14  1 2s         1.50561   0.00000     -0.000  -0.000   0.000
   14  2 2s         0.10277   0.00000      0.000   0.000   0.000
   14  3 2py        0.84487   0.00000      0.000  -0.000   0.000
   14  4 2pz        1.23745   0.00000      0.000   0.000   0.000
   14  5 2px        1.17591   0.00000      0.000   0.000   0.000
   14  6 2py        0.27708   0.00000     -0.000  -0.000  -0.000
   14  7 2pz        0.05444   0.00000     -0.000  -0.000  -0.000
   14  8 2px        0.13233   0.00000     -0.000  -0.000  -0.000
   14  9 3Pdxy      0.00949   0.00000      0.000   0.000  -0.000
   14 10 3Pdyz      0.00489   0.00000     -0.000   0.000  -0.000
   14 11 3Pdz2      0.00147   0.00000      0.000   0.000  -0.000
   14 12 3Pdxz      0.01067   0.00000      0.000  -0.000  -0.000
   14 13 3Pdx2-y2   0.00793   0.00000     -0.000  -0.000   0.000
   14     Total     5.36490   0.00000      0.000   0.000   0.000

   16  1 2s         1.37794   0.00000     -0.000   0.000  -0.000
   16  2 2s         0.12623   0.00000      0.000  -0.000   0.000
   16  3 2py        0.99162   0.00000      0.000  -0.000   0.000
   16  4 2pz        1.54740   0.00000      0.000   0.000  -0.000
   16  5 2px        1.08058   0.00000     -0.000   0.000   0.000
   16  6 2py        0.23932   0.00000     -0.000   0.000  -0.000
   16  7 2pz        0.00320   0.00000     -0.000  -0.000   0.000
   16  8 2px        0.18038   0.00000      0.000   0.000  -0.000
   16  9 3Pdxy      0.00155   0.00000     -0.000   0.000   0.000
   16 10 3Pdyz      0.00476   0.00000      0.000  -0.000  -0.000
   16 11 3Pdz2      0.00088   0.00000     -0.000  -0.000   0.000
   16 12 3Pdxz      0.00236   0.00000     -0.000   0.000  -0.000
   16 13 3Pdx2-y2   0.00609   0.00000      0.000  -0.000  -0.000
   16     Total     5.56231   0.00000     -0.000   0.000   0.000

   26  1 2s         1.36971   0.00000      0.000   0.000   0.000
   26  2 2s         0.12698   0.00000     -0.000  -0.000   0.000
   26  3 2py        1.11570   0.00000     -0.000  -0.000  -0.000
   26  4 2pz        1.52918   0.00000      0.000   0.000   0.000
   26  5 2px        0.94398   0.00000     -0.000   0.000   0.000
   26  6 2py        0.16908   0.00000      0.000   0.000   0.000
   26  7 2pz        0.00492   0.00000     -0.000   0.000   0.000
   26  8 2px        0.26605   0.00000      0.000  -0.000   0.000
   26  9 3Pdxy      0.00068   0.00000     -0.000   0.000  -0.000
   26 10 3Pdyz      0.00081   0.00000      0.000   0.000  -0.000
   26 11 3Pdz2     -0.00129   0.00000     -0.000  -0.000  -0.000
   26 12 3Pdxz      0.00465   0.00000     -0.000   0.000  -0.000
   26 13 3Pdx2-y2   0.00210   0.00000     -0.000   0.000   0.000
   26     Total     5.53255   0.00000     -0.000   0.000   0.000

----------------------------------------------------------------
Total              49.26178   0.00000      0.000   0.000   0.000


Species: Si                  

Atom      Orb        Charge      Spin       Svec
----------------------------------------------------------------
    3  1 3s         0.55094   0.00000     -0.000   0.000  -0.000
    3  2 3s         0.38741   0.00000     -0.000  -0.000  -0.000
    3  3 3py        0.08220   0.00000     -0.000  -0.000  -0.000
    3  4 3pz        0.53694   0.00000     -0.000   0.000  -0.000
    3  5 3px        0.36859   0.00000     -0.000   0.000  -0.000
    3  6 3py        0.49858   0.00000      0.000   0.000   0.000
    3  7 3pz        0.17573   0.00000      0.000  -0.000  -0.000
    3  8 3px        0.23712   0.00000      0.000  -0.000  -0.000
    3  9 3Pdxy      0.10825   0.00000     -0.000   0.000  -0.000
    3 10 3Pdyz      0.05218   0.00000     -0.000   0.000  -0.000
    3 11 3Pdz2      0.01016   0.00000      0.000  -0.000  -0.000
    3 12 3Pdxz      0.13307   0.00000     -0.000  -0.000  -0.000
    3 13 3Pdx2-y2   0.32450   0.00000      0.000   0.000  -0.000
    3     Total     3.46567   0.00000     -0.000   0.000  -0.000

    6  1 3s         0.66160   0.00000     -0.000  -0.000  -0.000
    6  2 3s         0.37034   0.00000      0.000   0.000   0.000
    6  3 3py        0.13052   0.00000      0.000  -0.000  -0.000
    6  4 3pz        0.69561   0.00000      0.000   0.000   0.000
    6  5 3px        0.49077   0.00000      0.000  -0.000  -0.000
    6  6 3py        0.46573   0.00000      0.000   0.000   0.000
    6  7 3pz        0.24288   0.00000     -0.000  -0.000   0.000
    6  8 3px        0.24552   0.00000     -0.000   0.000  -0.000
    6  9 3Pdxy      0.18474   0.00000     -0.000  -0.000  -0.000
    6 10 3Pdyz      0.14700   0.00000     -0.000  -0.000   0.000
    6 11 3Pdz2      0.01166   0.00000      0.000   0.000  -0.000
    6 12 3Pdxz      0.03657   0.00000     -0.000  -0.000   0.000
    6 13 3Pdx2-y2   0.18843   0.00000     -0.000   0.000  -0.000
    6     Total     3.87137   0.00000      0.000  -0.000   0.000

    7  1 3s         0.62656   0.00000      0.000  -0.000  -0.000
    7  2 3s         0.36966   0.00000     -0.000   0.000  -0.000
    7  3 3py        0.37341   0.00000     -0.000  -0.000  -0.000
    7  4 3pz        0.49319   0.00000      0.000  -0.000  -0.000
    7  5 3px        0.07957   0.00000     -0.000  -0.000  -0.000
    7  6 3py        0.30294   0.00000      0.000   0.000  -0.000
    7  7 3pz        0.20815   0.00000     -0.000  -0.000  -0.000
    7  8 3px        0.42221   0.00000      0.000   0.000  -0.000
    7  9 3Pdxy      0.20442   0.00000     -0.000   0.000  -0.000
    7 10 3Pdyz      0.14281   0.00000     -0.000  -0.000   0.000
    7 11 3Pdz2      0.01067   0.00000     -0.000   0.000  -0.000
    7 12 3Pdxz      0.15099   0.00000      0.000   0.000  -0.000
    7 13 3Pdx2-y2   0.24118   0.00000     -0.000   0.000  -0.000
    7     Total     3.62576   0.00000     -0.000  -0.000  -0.000

   12  1 3s         0.53131   0.00000     -0.000   0.000  -0.000
   12  2 3s         0.40114   0.00000      0.000  -0.000  -0.000
   12  3 3py        0.22608   0.00000      0.000  -0.000  -0.000
   12  4 3pz        0.43750   0.00000     -0.000  -0.000  -0.000
   12  5 3px        0.29147   0.00000     -0.000   0.000  -0.000
   12  6 3py        0.39828   0.00000      0.000   0.000   0.000
   12  7 3pz        0.16941   0.00000      0.000   0.000  -0.000
   12  8 3px        0.34332   0.00000      0.000  -0.000  -0.000
   12  9 3Pdxy      0.38692   0.00000     -0.000  -0.000  -0.000
   12 10 3Pdyz      0.08050   0.00000     -0.000   0.000  -0.000
   12 11 3Pdz2      0.01033   0.00000      0.000  -0.000  -0.000
   12 12 3Pdxz      0.09269   0.00000      0.000   0.000  -0.000
   12 13 3Pdx2-y2   0.16495   0.00000     -0.000  -0.000  -0.000
   12     Total     3.53390   0.00000     -0.000  -0.000  -0.000

   15  1 3s         0.66149   0.00000      0.000   0.000  -0.000
   15  2 3s         0.36704   0.00000     -0.000  -0.000  -0.000
   15  3 3py       -0.03189   0.00000     -0.000  -0.000  -0.000
   15  4 3pz        0.51098   0.00000      0.000   0.000  -0.000
   15  5 3px        0.38951   0.00000     -0.000   0.000   0.000
   15  6 3py        0.47417   0.00000     -0.000  -0.000   0.000
   15  7 3pz        0.19996   0.00000     -0.000  -0.000  -0.000
   15  8 3px        0.33999   0.00000      0.000  -0.000  -0.000
   15  9 3Pdxy      0.14151   0.00000      0.000   0.000  -0.000
   15 10 3Pdyz      0.12587   0.00000     -0.000  -0.000   0.000
   15 11 3Pdz2      0.01392   0.00000     -0.000   0.000   0.000
   15 12 3Pdxz      0.12481   0.00000     -0.000   0.000   0.000
   15 13 3Pdx2-y2   0.30231   0.00000      0.000  -0.000  -0.000
   15     Total     3.61967   0.00000     -0.000  -0.000  -0.000

   17  1 3s         0.73156   0.00000      0.000  -0.000  -0.000
   17  2 3s         0.35638   0.00000     -0.000  -0.000  -0.000
   17  3 3py        0.09588   0.00000      0.000   0.000  -0.000
   17  4 3pz        0.62588   0.00000     -0.000  -0.000  -0.000
   17  5 3px        0.35558   0.00000      0.000   0.000  -0.000
   17  6 3py        0.45327   0.00000     -0.000  -0.000   0.000
   17  7 3pz        0.15120   0.00000      0.000   0.000  -0.000
   17  8 3px        0.33522   0.00000      0.000  -0.000   0.000
   17  9 3Pdxy      0.15100   0.00000      0.000  -0.000  -0.000
   17 10 3Pdyz      0.02343   0.00000     -0.000  -0.000   0.000
   17 11 3Pdz2      0.00913   0.00000     -0.000  -0.000   0.000
   17 12 3Pdxz      0.12874   0.00000     -0.000  -0.000  -0.000
   17 13 3Pdx2-y2   0.12695   0.00000     -0.000  -0.000  -0.000
   17     Total     3.54422   0.00000      0.000  -0.000  -0.000

   19  1 3s         0.86235   0.00000      0.000  -0.000   0.000
   19  2 3s         0.31304   0.00000     -0.000   0.000  -0.000
   19  3 3py        0.44433   0.00000      0.000  -0.000   0.000
   19  4 3pz        0.66007   0.00000      0.000  -0.000   0.000
   19  5 3px        0.35331   0.00000     -0.000  -0.000   0.000
   19  6 3py        0.32285   0.00000     -0.000   0.000  -0.000
   19  7 3pz        0.26845   0.00000     -0.000  -0.000   0.000
   19  8 3px        0.35650   0.00000      0.000   0.000   0.000
   19  9 3Pdxy      0.09338   0.00000     -0.000   0.000  -0.000
   19 10 3Pdyz      0.02930   0.00000      0.000  -0.000  -0.000
   19 11 3Pdz2      0.01453   0.00000     -0.000  -0.000  -0.000
   19 12 3Pdxz      0.05649   0.00000      0.000   0.000  -0.000
   19 13 3Pdx2-y2   0.13133   0.00000      0.000   0.000  -0.000
   19     Total     3.90595   0.00000      0.000  -0.000   0.000

   20  1 3s         0.54058   0.00000      0.000  -0.000  -0.000
   20  2 3s         0.44398   0.00000     -0.000   0.000   0.000
   20  3 3py        0.31052   0.00000     -0.000  -0.000  -0.000
   20  4 3pz        0.25486   0.00000     -0.000   0.000  -0.000
   20  5 3px        0.45508   0.00000     -0.000   0.000  -0.000
   20  6 3py        0.38747   0.00000      0.000   0.000   0.000
   20  7 3pz        0.42320   0.00000      0.000  -0.000   0.000
   20  8 3px        0.27756   0.00000      0.000  -0.000   0.000
   20  9 3Pdxy      0.07000   0.00000      0.000   0.000  -0.000
   20 10 3Pdyz      0.08424   0.00000     -0.000  -0.000   0.000
   20 11 3Pdz2      0.05094   0.00000     -0.000  -0.000  -0.000
   20 12 3Pdxz      0.07241   0.00000     -0.000  -0.000   0.000
   20 13 3Pdx2-y2   0.04581   0.00000      0.000   0.000   0.000
   20     Total     3.41665   0.00000     -0.000   0.000  -0.000

   24  1 3s         0.60470   0.00000     -0.000  -0.000  -0.000
   24  2 3s         0.37022   0.00000      0.000  -0.000  -0.000
   24  3 3py        0.27089   0.00000     -0.000   0.000  -0.000
   24  4 3pz        0.40888   0.00000      0.000  -0.000  -0.000
   24  5 3px        0.16916   0.00000      0.000   0.000   0.000
   24  6 3py        0.39706   0.00000      0.000  -0.000  -0.000
   24  7 3pz        0.19305   0.00000     -0.000  -0.000  -0.000
   24  8 3px        0.35989   0.00000     -0.000  -0.000  -0.000
   24  9 3Pdxy      0.14236   0.00000      0.000  -0.000   0.000
   24 10 3Pdyz      0.14049   0.00000      0.000  -0.000   0.000
   24 11 3Pdz2      0.01505   0.00000     -0.000  -0.000  -0.000
   24 12 3Pdxz      0.12151   0.00000      0.000   0.000  -0.000
   24 13 3Pdx2-y2   0.34820   0.00000     -0.000  -0.000  -0.000
   24     Total     3.54144   0.00000     -0.000  -0.000  -0.000

   28  1 3s         0.43300   0.00000      0.000  -0.000  -0.000
   28  2 3s         0.37802   0.00000     -0.000   0.000  -0.000
   28  3 3py        0.15829   0.00000     -0.000   0.000  -0.000
   28  4 3pz        0.39914   0.00000      0.000  -0.000  -0.000
   28  5 3px        0.16851   0.00000      0.000   0.000  -0.000
   28  6 3py        0.36984   0.00000      0.000  -0.000  -0.000
   28  7 3pz        0.20487   0.00000     -0.000  -0.000  -0.000
   28  8 3px        0.38463   0.00000      0.000  -0.000  -0.000
   28  9 3Pdxy      0.14390   0.00000      0.000  -0.000  -0.000
   28 10 3Pdyz      0.12346   0.00000     -0.000   0.000  -0.000
   28 11 3Pdz2      0.01550   0.00000      0.000   0.000  -0.000
   28 12 3Pdxz      0.15673   0.00000     -0.000   0.000  -0.000
   28 13 3Pdx2-y2   0.35136   0.00000     -0.000  -0.000  -0.000
   28     Total     3.28726   0.00000      0.000  -0.000  -0.000

----------------------------------------------------------------
Total              85.07368   0.00000      0.000  -0.000  -0.000


Species: O                   

Atom      Orb        Charge      Spin       Svec
----------------------------------------------------------------
   25  1 2s         1.73911   0.00000     -0.000  -0.000   0.000
   25  2 2s         0.07008   0.00000      0.000  -0.000   0.000
   25  3 2py        1.46822   0.00000     -0.000   0.000   0.000
   25  4 2pz        1.51438   0.00000     -0.000   0.000   0.000
   25  5 2px        1.59323   0.00000     -0.000   0.000   0.000
   25  6 2py        0.03234   0.00000      0.000   0.000   0.000
   25  7 2pz       -0.00097   0.00000     -0.000  -0.000   0.000
   25  8 2px        0.02349   0.00000      0.000  -0.000   0.000
   25  9 3Pdxy      0.00713   0.00000     -0.000  -0.000  -0.000
   25 10 3Pdyz      0.00611   0.00000      0.000   0.000  -0.000
   25 11 3Pdz2      0.00131   0.00000     -0.000   0.000  -0.000
   25 12 3Pdxz      0.00436   0.00000     -0.000  -0.000  -0.000
   25 13 3Pdx2-y2   0.00730   0.00000     -0.000  -0.000   0.000
   25     Total     6.46607   0.00000     -0.000   0.000   0.000

   29  1 2s         1.73555   0.00000     -0.000   0.000  -0.000
   29  2 2s         0.07328   0.00000      0.000  -0.000   0.000
   29  3 2py        1.48391   0.00000      0.000  -0.000   0.000
   29  4 2pz        1.52894   0.00000     -0.000   0.000   0.000
   29  5 2px        1.52568   0.00000      0.000   0.000   0.000
   29  6 2py        0.04211   0.00000     -0.000   0.000  -0.000
   29  7 2pz        0.00526   0.00000      0.000   0.000   0.000
   29  8 2px        0.03705   0.00000      0.000  -0.000   0.000
   29  9 3Pdxy      0.00815   0.00000     -0.000   0.000  -0.000
   29 10 3Pdyz      0.00486   0.00000     -0.000   0.000  -0.000
   29 11 3Pdz2      0.00136   0.00000     -0.000  -0.000  -0.000
   29 12 3Pdxz      0.00625   0.00000      0.000   0.000  -0.000
   29 13 3Pdx2-y2   0.00784   0.00000      0.000   0.000  -0.000
   29     Total     6.46025   0.00000      0.000   0.000   0.000

----------------------------------------------------------------
Total              98.00000   0.00000     -0.000   0.000  -0.000


siesta: Eigenvalues (eV):
ik =     1
  -22.9454  -22.9454  -22.5758  -22.5758  -21.9883  -21.9883  -21.2491  -21.2491  -21.0323  -21.0323
  -20.7071  -20.7071  -19.4384  -19.4384  -19.2535  -19.2535  -18.6503  -18.6503  -15.3244  -15.3244
  -14.3855  -14.3855  -13.6807  -13.6807  -13.6297  -13.6297  -13.3096  -13.3096  -12.9238  -12.9238
  -12.5001  -12.5001  -12.0351  -12.0351  -11.9749  -11.9749  -11.5176  -11.5176  -11.4880  -11.4880
  -10.9186  -10.9186  -10.7685  -10.7685  -10.2125  -10.2125   -9.8487   -9.8487   -9.5837   -9.5837
   -9.3532   -9.3532   -9.1852   -9.1852   -9.1355   -9.1355   -8.8472   -8.8472   -8.7352   -8.7352
   -8.4098   -8.4098   -8.1745   -8.1745   -8.1549   -8.1549   -8.1341   -8.1341   -7.9723   -7.9723
   -7.9397   -7.9397   -7.3511   -7.3511   -7.3480   -7.3480   -7.3302   -7.3302   -6.8374   -6.8374
   -6.7524   -6.7524   -6.6613   -6.6612   -6.4034   -6.4034   -6.3905   -6.3905   -6.1519   -6.1519
   -5.9588   -5.9588   -5.7569   -5.7569   -5.5757   -5.5757   -4.2406   -4.2406   -3.7387   -3.7387
   -2.8592   -2.8592   -2.4873   -2.4873   -2.2341   -2.2341   -2.1933   -2.1933   -2.0719   -2.0719
   -1.9685   -1.9685   -1.6690   -1.6690   -1.6042   -1.6042   -1.5905   -1.5905   -1.3635   -1.3635
   -1.0970   -1.0970   -0.6284   -0.6284   -0.4039   -0.4039   -0.2528   -0.2528   -0.2137   -0.2137
   -0.1796   -0.1795   -0.0792   -0.0792    0.2439    0.2439    0.3912    0.3912    0.5616    0.5616
    0.6119    0.6119    0.7235    0.7235    1.0526    1.0526    1.2140    1.2140    1.3027    1.3027
    1.3571    1.3571    1.5820    1.5820    1.8570    1.8570    2.0334    2.0334    2.2263    2.2263
    2.5062    2.5062    2.6184    2.6184    2.6539    2.6539    2.8598    2.8598    2.9667    2.9667
    3.0329    3.0329    3.1024    3.1024    3.1213    3.1213    3.3978    3.3978    3.5700    3.5700
    3.7988    3.7988    3.9131    3.9131    4.2161    4.2161    4.3179    4.3179    4.3753    4.3753
    4.4338    4.4338    4.6021    4.6021    4.7160    4.7160    4.9565    4.9565    5.0005    5.0005
    5.1144    5.1144    5.3338    5.3338    5.5104    5.5104    5.5735    5.5735    5.8711    5.8711
    5.8945    5.8945    6.0374    6.0374    6.1247    6.1247    6.3745    6.3745    6.5039    6.5039
    6.5378    6.5378    6.7230    6.7230    6.7982    6.7982    6.9903    6.9903    7.2438    7.2438
    7.2499    7.2499    7.5640    7.5640    7.7041    7.7041    7.7938    7.7938    7.8895    7.8895
    8.0881    8.0881    8.3023    8.3023    8.3562    8.3562    8.4685    8.4685    8.5037    8.5037
    8.5423    8.5423    8.9968    8.9968    9.0029    9.0029    9.3839    9.3839    9.6695    9.6695
    9.6741    9.6741    9.8899    9.8899    9.9017    9.9017    9.9722    9.9722   10.0016   10.0016
   10.0313   10.0313   10.5194   10.5194   10.6730   10.6730   10.9910   10.9910   11.1158   11.1158
   11.3607   11.3607   11.4843   11.4843   11.5386   11.5386   11.7948   11.7948   11.8378   11.8378
   12.0493   12.0493   12.2928   12.2928   12.5254   12.5254   12.6674   12.6674   12.7197   12.7197
   12.8930   12.8930   13.1759   13.1759   13.3333   13.3333   13.3724   13.3724   13.4848   13.4848
   13.7259   13.7259   14.0099   14.0099   14.3875   14.3875   14.5652   14.5652   14.8305   14.8305
   14.8777   14.8777   15.3377   15.3377   15.5606   15.5606   16.0539   16.0539   16.3091   16.3091
   16.4804   16.4804   16.8632   16.8632   16.9105   16.9105   17.1586   17.1586   17.4427   17.4427
   17.9908   17.9908   18.0590   18.0590   18.3894   18.3894   18.6414   18.6414   18.8107   18.8107
   18.8443   18.8443   19.7734   19.7734   19.9663   19.9663   20.2575   20.2575   20.4010   20.4010
   20.9091   20.9091   21.1322   21.1322   21.3126   21.3126   22.0341   22.0341   22.2933   22.2933
   22.5449   22.5449   22.8832   22.8832   23.0434   23.0434   23.0846   23.0846   23.0979   23.0979
   24.4641   24.4641   24.7570   24.7570   25.1371   25.1371   25.6715   25.6715   25.8973   25.8973
   26.1715   26.1715   26.6373   26.6373   27.0085   27.0085   27.9902   27.9902   28.1572   28.1572
   28.4900   28.4900   28.6253   28.6253   29.7027   29.7027   30.3672   30.3672   30.7810   30.7810
   30.8250   30.8250   31.0016   31.0016   31.3520   31.3520   31.4684   31.4684   31.8408   31.8408
   32.0265   32.0265   32.3592   32.3592   32.8047   32.8047   33.4773   33.4773   33.9276   33.9276
   34.2648   34.2648   34.3738   34.3738   34.6818   34.6818   35.0092   35.0092   35.4854   35.4854
   36.0353   36.0353   36.3820   36.3820   37.0436   37.0436   37.2309   37.2309   37.5494   37.5494
   37.8552   37.8552   38.5210   38.5210   38.7358   38.7358   38.9517   38.9517   39.0025   39.0025
   39.9159   39.9159   40.6116   40.6116   40.9181   40.9181   41.3946   41.3946   41.5505   41.5505
   42.0849   42.0849   42.1863   42.1863   42.9404   42.9404   43.1324   43.1324   43.5578   43.5578
   44.1746   44.1746   44.6872   44.6872   44.8191   44.8191   45.2640   45.2640   45.3047   45.3047
   45.7455   45.7455   46.0103   46.0103   46.5925   46.5925   46.6191   46.6191   47.2211   47.2211
   47.8727   47.8727   48.0741   48.0741   48.8717   48.8717   49.1427   49.1427   49.4395   49.4395
   50.0799   50.0799   50.3687   50.3687   50.4333   50.4333   50.6926   50.6926   51.3629   51.3629
   52.2509   52.2509   52.2736   52.2736   54.0596   54.0596   54.6047   54.6047   54.8305   54.8305
   55.2514   55.2514   55.8632   55.8632   56.2979   56.2979   56.5993   56.5993   56.9765   56.9765
   57.8863   57.8863   58.3033   58.3033   58.9738   58.9738   59.6063   59.6063   59.8740   59.8740
   60.7051   60.7051   61.7845   61.7845   61.8152   61.8152   62.3892   62.3892   63.1770   63.1770
   65.7603   65.7603   66.3655   66.3655   67.2633   67.2633   67.5750   67.5750   68.2806   68.2806
   69.1981   69.1981   71.4673   71.4673   73.8654   73.8654   80.4114   80.4114   92.1222   92.1222
   92.5954   92.5954   93.0982   93.0982   95.7341   95.7341   98.1870   98.1870  100.4917  100.4917
  101.3225  101.3225  103.1027  103.1027  113.8787  113.8787  120.7385  120.7385  123.2390  123.2390
  136.1837  136.1837  140.6825  140.6825
siesta: Fermi energy =      -3.989651 eV

siesta: Program's energy decomposition (eV):
siesta: Ebs     =     -1117.482349
siesta: Eions   =      3553.971015
siesta: Ena     =       377.801917
siesta: Ekin    =      2751.398813
siesta: Enl     =     -2532.315991
siesta: Eso     =        -0.004698
siesta: Edftu   =         0.000000
siesta: DEna    =        37.186794
siesta: DUscf   =        14.088807
siesta: DUext   =         0.000000
siesta: Exc     =     -1093.095351
siesta: eta*DQ  =         0.000000
siesta: Emadel  =         0.000000
siesta: Emeta   =         0.000000
siesta: Emolmec =         0.000000
siesta: Ekinion =         0.000000
siesta: Eharris =     -3998.910722
siesta: Etot    =     -3998.910722
siesta: FreeEng =     -3998.910790

siesta: Final energy (eV):
siesta:  Band Struct. =   -1117.482349
siesta:       Kinetic =    2751.398813
siesta:       Hartree =    7348.289509
siesta:       Edftu   =       0.000000
siesta:       Eso     =      -0.004698
siesta:    Ext. field =       0.000000
siesta:   Exch.-corr. =   -1093.095351
siesta:  Ion-electron =  -17146.809394
siesta:       Ion-ion =    4141.310399
siesta:       Ekinion =       0.000000
siesta:         Total =   -3998.910722
siesta:         Fermi =      -3.989651

siesta: Atomic forces (eV/Ang):
siesta:      1   -0.066690    0.002393    0.000002
siesta:      2   -0.004580   -0.048936   -0.000002
siesta:      3   -0.000958    0.044010    0.000004
siesta:      4   -0.023137    0.008146    0.000001
siesta:      5    0.014015   -0.044144   -0.000003
siesta:      6    0.038914    0.004939    0.000001
siesta:      7   -0.158774    0.129584    0.000015
siesta:      8    0.091217   -0.077908   -0.000059
siesta:      9    0.053818    0.025285    0.000097
siesta:     10    0.113674    0.093370    0.000011
siesta:     11   -0.028117    0.012746   -0.000018
siesta:     12    0.104618    0.081634   -0.000001
siesta:     13   -0.129440   -0.159667   -0.000001
siesta:     14   -0.021089   -0.065793    0.000002
siesta:     15   -0.000812    0.063746   -0.000001
siesta:     16    0.049121    0.097792    0.008213
siesta:     17    0.002942   -0.052842   -0.039826
siesta:     18   -0.148442    0.091497    0.008286
siesta:     19   -0.008385    0.026185   -0.041192
siesta:     20    0.043308   -0.049484    0.026136
siesta:     21   -0.161564    0.255416    0.057122
siesta:     22   -0.059072   -0.016069    0.025936
siesta:     23    0.061184    0.009070   -0.051513
siesta:     24    0.106274   -0.103109   -0.026606
siesta:     25   -3.117152   -2.044370    0.003060
siesta:     26   -0.064119    0.090876    0.006551
siesta:     27    0.039907   -0.164747    0.002807
siesta:     28   -0.033304   -0.137139   -0.000870
siesta:     29    1.468962    2.213317   -0.001105
siesta:     30    0.036955    0.175622    0.008261
siesta: ----------------------------------------
siesta:    Tot   -1.800726    0.461419   -0.014694

siesta: Stress tensor (static) (eV/Ang**3):
siesta:    -0.001114    0.000185    0.000031
siesta:     0.000185   -0.000208   -0.000028
siesta:     0.000031   -0.000028   -0.000144

siesta: Cell volume =       4326.515231 Ang**3

siesta: Pressure (static):
siesta:                Solid            Molecule  Units
siesta:           0.00000533         -0.00000645  Ry/Bohr**3
siesta:           0.00048897         -0.00059241  eV/Ang**3
siesta:           0.78342911         -0.94914868  kBar
(Free)E+ p_basis*V_orbitals  =       -3977.782705
(Free)Eharris+ p_basis*V_orbitals  =       -3977.782705
     spin moment: S , {S} =    0.00000  -0.00000   0.00000  -0.00000

siesta: Electric dipole (a.u.)  =   -0.289622    2.631276   -0.012978
siesta: Electric dipole (Debye) =   -0.736146    6.688042   -0.032988

cite: Please see "AT.bib" for an exhaustive BiBTeX file.
cite: Please clearly indicate Siesta version in published work: v4.1.5-1-g384057250
cite: This calculation has made use of the following articles
cite: which are encouraged to be cited in a published work.
        Primary SIESTA paper
          DOI: www.doi.org/10.1088/0953-8984/14/11/302
        Spin-orbit coupling (on-site approximation)
          DOI: www.doi.org/10.1088/0953-8984/19/19/489001


WARNING: alloc-realloc-dealloc name mismatch
         Name: atomlist isa
         Size:              -120. Bytes
         Node:     0
         Subsequent mismatches will not be reported
>> End of run:  22-MAY-2023  10:16:14
Job completed
