Siesta Version  : v4.1.5-1-g384057250
Architecture    : gcc
Compiler version: GNU Fortran (Debian 10.2.1-6) 10.2.1 20210110
Compiler flags  : mpifort -O2 -fPIC -ftree-vectorize -fallow-argument-mismatch
PP flags        : -DFC_HAVE_ABORT -DMPI -DSIESTA__FLOOK -DSIESTA__METIS -DSIESTA__MUMPS -DCDF -DNCDF -DNCDF_4 -DNCDF_PARALLEL -DSIESTA__MRRR -DSIESTA__ELPA
Libraries       : libncdf.a libfdict.a  -lflookall -ldl -lnetcdff -lnetcdf -lhdf5_hl -lhdf5 -lhdf5_fortran -lz -lscalapack-openmpi -lopenblas -lmetis -lzmumps -lcmumps -ldmumps -lmumps_common -lpord -lsmumps -lesmumps -lscotch -lscotcherr -fopenmp -lelpa
PARALLEL version
NetCDF support
NetCDF-4 support
NetCDF-4 MPI-IO support
METIS ordering support
Lua support

* Running on 6 nodes in parallel
>> Start of run:  16-OCT-2023  18:12:46

                           ***********************       
                           *  WELCOME TO SIESTA  *       
                           ***********************       

reinit: Reading from standard input
reinit: Dumped input in INPUT_TMP.21610
************************** Dump of input data file ****************************
# mpirun -np 4 siesta-4.1.5 < GC.fdf > GC.out &
SystemLabel      GC
NumberOfAtoms    29
NumberOfSpecies  4
%block ChemicalSpeciesLabel
    1    1  H
    2    7  N
    3   14  Si
    4    8  O
%endblock ChemicalSpeciesLabel
############################################
# This overrides Defaults.fdf configuration
############################################
MD.TypeOfRun                CG # CG, Verlet
MD.Steps                    0
MaxSCFIterations            600
AtomicCoordinatesFormat NotScaledCartesianAng
%block AtomicCoordinatesAndAtomicSpecies
    1.181860798549936 3.378028019304331 -0.0  1  1  H
    0.475374068549936 2.587991839304331 -0.0  2  2  N
    -1.2549128414500639 3.029355749304331 0.0  3  3  Si
    -1.4106925214500639 4.5193480093043314 0.0  1  4  H
    -2.7782344614500643 1.470448229304331 -0.0  3  5  Si
    -4.261422091450064 1.7132785893043312 -0.0  1  6  H
    -1.5798436014500639 -0.44282793069566895 -0.0  3  7  Si
    -2.345869061450064 -1.975544670695669 -0.0  2  8  N
    -1.7556225114500639 -2.932757700695669 0.0  1  9  H
    -3.397491381450064 -2.056004900695669 -0.0  1  10  H
    0.13635645854993605 -0.387653620695669 0.0  2  11  N
    1.211379078549936 0.9426852193043311 -0.0  3  12  Si
    2.8200523985499357 0.9238749593043312 -0.0  4  13  O
    5.6164483 -7.44953905 0.0  1  14  H
    4.58206954 -7.2320376 0.0  2  15  N
    3.29666389 -8.492636 0.0  3  16  Si
    3.80117524 -9.90371886 -0.0  1  17  H
    1.65934232 -8.01362137 0.0  2  18  N
    1.68097912 -6.20463398 -0.0  3  19  Si
    0.54543521 -4.28636135 0.0  3  20  Si
    -1.03431493 -3.94450034 0.0  4  21  O
    1.73226934 -2.87719605 0.0  2  22  N
    1.20957366 -1.92961761 -0.0  1  23  H
    3.50853448 -2.77677601 0.0  3  24  Si
    4.13684451 -1.17938608 0.0  2  25  N
    3.54296161 -0.26248101 0.0  1  26  H
    5.18364407 -1.05231197 -0.0  1  27  H
    4.63288658 -4.07521596 -0.0  2  28  N
    3.79410501 -5.58634043 0.0  3  29  Si
%endblock AtomicCoordinatesAndAtomicSpecies
%include ../../../../Defaults.fdf
************************** End of input data file *****************************

reinit: -----------------------------------------------------------------------
reinit: System Name: 
reinit: -----------------------------------------------------------------------
reinit: System Label: GC
reinit: -----------------------------------------------------------------------

initatom: Reading input for the pseudopotentials and atomic orbitals ----------
Species number:   1 Atomic number:    1 Label: H
Species number:   2 Atomic number:    7 Label: N
Species number:   3 Atomic number:   14 Label: Si
Species number:   4 Atomic number:    8 Label: O

Ground state valence configuration:   1s01
Reading pseudopotential information in formatted form from H.psf

Pseudopotential generated from a relativistic atomic calculation

Valence configuration for pseudopotential generation:
1s( 1.00) rc: 0.01
2p( 0.00) rc: 0.60
3d( 0.00) rc: 1.99
4f( 0.00) rc: 2.49
Ground state valence configuration:   2s02  2p03
Reading pseudopotential information in formatted form from N.psf

Pseudopotential generated from a relativistic atomic calculation

Valence configuration for pseudopotential generation:
2s( 2.00) rc: 0.94
2p( 3.00) rc: 0.59
3d( 0.00) rc: 3.46
4f( 0.00) rc: 2.47
Ground state valence configuration:   3s02  3p02
Reading pseudopotential information in formatted form from Si.psf

Pseudopotential generated from a relativistic atomic calculation

Valence configuration for pseudopotential generation:
3s( 2.00) rc: 1.67
3p( 2.00) rc: 2.04
3d( 0.00) rc: 2.89
4f( 0.00) rc: 2.49
Ground state valence configuration:   2s02  2p04
Reading pseudopotential information in formatted form from O.psf

Pseudopotential generated from a relativistic atomic calculation

Valence configuration for pseudopotential generation:
2s( 2.00) rc: 0.45
2p( 4.00) rc: 0.92
3d( 0.00) rc: 2.24
4f( 0.00) rc: 0.25
For H, standard SIESTA heuristics set lmxkb to 2
 (one more than the basis l, including polarization orbitals).
Use PS.lmax or PS.KBprojectors blocks to override.
For N, standard SIESTA heuristics set lmxkb to 3
 (one more than the basis l, including polarization orbitals).
Use PS.lmax or PS.KBprojectors blocks to override.
For Si, standard SIESTA heuristics set lmxkb to 3
 (one more than the basis l, including polarization orbitals).
Use PS.lmax or PS.KBprojectors blocks to override.
For O, standard SIESTA heuristics set lmxkb to 3
 (one more than the basis l, including polarization orbitals).
Use PS.lmax or PS.KBprojectors blocks to override.

<basis_specs>
===============================================================================
H                    Z=   1    Mass=  1.0100        Charge= 0.17977+309
Lmxo=0 Lmxkb= 2    BasisType=split      Semic=F
L=0  Nsemic=0  Cnfigmx=1
          i=1  nzeta=2  polorb=1  (1s)
            splnorm:   0.62000    
               vcte:    0.0000    
               rinn:    0.0000    
               qcoe:    0.0000    
               qyuk:    0.0000    
               qwid:   0.10000E-01
                rcs:    0.0000      0.0000    
            lambdas:    1.0000      1.0000    
-------------------------------------------------------------------------------
L=0  Nkbl=1  erefs: 0.17977+309
L=1  Nkbl=1  erefs: 0.17977+309
L=2  Nkbl=1  erefs: 0.17977+309
===============================================================================
</basis_specs>

atom: Called for H                     (Z =   1)

read_vps: Pseudopotential generation method:
read_vps: ATM4.2.7  Troullier-Martins                       
Valence charge for ps generation:    1.00000

xc_check: Exchange-correlation functional:
xc_check: GGA Perdew, Burke & Ernzerhof 1996
V l=0 = -2*Zval/r beyond r=  0.0098
V l=1 = -2*Zval/r beyond r=  0.5817
V l=2 = -2*Zval/r beyond r=  1.9372
All V_l potentials equal beyond r=  1.9372
This should be close to max(r_c) in ps generation
All pots = -2*Zval/r beyond r=  1.9372

VLOCAL1: 99.0% of the norm of Vloc inside     11.567 Ry
VLOCAL1: 99.9% of the norm of Vloc inside     26.362 Ry
atom: Maximum radius for 4*pi*r*r*local-pseudopot. charge    2.25106
atom: Maximum radius for r*vlocal+2*Zval:    1.91306
GHOST: No ghost state for L =  0
GHOST: No ghost state for L =  1
GHOST: No ghost state for L =  2

KBgen: Kleinman-Bylander projectors: 
   l= 0   rc=  2.036604   el= -0.477180   Ekb= -6.081590   kbcos= -0.277285
   l= 1   rc=  2.195416   el=  0.001076   Ekb= -0.926943   kbcos= -0.034643
   l= 2   rc=  2.251056   el=  0.002010   Ekb= -0.130941   kbcos= -0.009788

KBgen: Total number of Kleinman-Bylander projectors:    9
atom: -------------------------------------------------------------------------

atom: SANKEY-TYPE ORBITALS:
atom: Selected multiple-zeta basis: split     

SPLIT: Orbitals with angular momentum L= 0

SPLIT: Basis orbitals for state 1s

SPLIT: PAO cut-off radius determined from an
SPLIT: energy shift=  0.002000 Ry

   izeta = 1
                 lambda =    1.000000
                     rc =    6.518340
                 energy =   -0.475305
                kinetic =    0.912139
    potential(screened) =   -1.387444
       potential(ionic) =   -1.907295

   izeta = 2
                 rmatch =    2.141150
              splitnorm =    0.620000
                 energy =    0.566467
                kinetic =    3.772856
    potential(screened) =   -3.206389
       potential(ionic) =   -3.759093

POLgen: Perturbative polarization orbital with L=  1

POLgen: Polarization orbital for state 1s

   izeta = 1
                     rc =    6.518340
                 energy =    0.533861
                kinetic =    1.121086
    potential(screened) =   -0.587225
       potential(ionic) =   -1.053027
atom: Total number of Sankey-type orbitals:  5

atm_pop: Valence configuration (for local Pseudopot. screening):
 1s( 1.00)                                                            
Vna: chval, zval:    1.00000   1.00000

Vna:  Cut-off radius for the neutral-atom potential:   6.518340

atom: _________________________________________________________________________

<basis_specs>
===============================================================================
N                    Z=   7    Mass=  14.010        Charge= 0.17977+309
Lmxo=1 Lmxkb= 3    BasisType=split      Semic=F
L=0  Nsemic=0  Cnfigmx=2
          i=1  nzeta=2  polorb=0  (2s)
            splnorm:   0.28000    
               vcte:    0.0000    
               rinn:    0.0000    
               qcoe:    0.0000    
               qyuk:    0.0000    
               qwid:   0.10000E-01
                rcs:    0.0000      0.0000    
            lambdas:    1.0000      1.0000    
L=1  Nsemic=0  Cnfigmx=2
          i=1  nzeta=2  polorb=1  (2p)
            splnorm:   0.28000    
               vcte:    0.0000    
               rinn:    0.0000    
               qcoe:    0.0000    
               qyuk:    0.0000    
               qwid:   0.10000E-01
                rcs:    0.0000      0.0000    
            lambdas:    1.0000      1.0000    
-------------------------------------------------------------------------------
L=0  Nkbl=1  erefs: 0.17977+309
L=1  Nkbl=1  erefs: 0.17977+309
L=2  Nkbl=1  erefs: 0.17977+309
L=3  Nkbl=1  erefs: 0.17977+309
===============================================================================
</basis_specs>

atom: Called for N                     (Z =   7)

read_vps: Pseudopotential generation method:
read_vps: ATM4.2.7  Troullier-Martins                       
Valence charge for ps generation:    5.00000

xc_check: Exchange-correlation functional:
xc_check: GGA Perdew, Burke & Ernzerhof 1996
V l=0 = -2*Zval/r beyond r=  1.2889
V l=1 = -2*Zval/r beyond r=  1.2889
V l=2 = -2*Zval/r beyond r=  3.4178
V l=3 = -2*Zval/r beyond r=  2.4084
All V_l potentials equal beyond r=  3.3753
This should be close to max(r_c) in ps generation
All pots = -2*Zval/r beyond r=  3.4178

VLOCAL1: 99.0% of the norm of Vloc inside      3.810 Ry
VLOCAL1: 99.9% of the norm of Vloc inside      8.683 Ry
atom: Maximum radius for 4*pi*r*r*local-pseudopot. charge    4.02088
atom: Maximum radius for r*vlocal+2*Zval:    3.54838
GHOST: No ghost state for L =  0
GHOST: No ghost state for L =  1
GHOST: No ghost state for L =  2
GHOST: No ghost state for L =  3

KBgen: Kleinman-Bylander projectors: 
   l= 0   rc=  3.417763   el= -1.365098   Ekb= -4.433130   kbcos= -0.707855
   l= 1   rc=  3.375302   el= -0.521201   Ekb=-13.264039   kbcos= -0.535594
   l= 2   rc=  3.872880   el=  0.001991   Ekb= -0.641094   kbcos= -0.062456
   l= 3   rc=  3.970931   el=  0.003093   Ekb= -0.474517   kbcos= -0.018236

KBgen: Total number of Kleinman-Bylander projectors:   16
atom: -------------------------------------------------------------------------

atom: SANKEY-TYPE ORBITALS:
atom: Selected multiple-zeta basis: split     

SPLIT: Orbitals with angular momentum L= 0

SPLIT: Basis orbitals for state 2s

SPLIT: PAO cut-off radius determined from an
SPLIT: energy shift=  0.002000 Ry

   izeta = 1
                 lambda =    1.000000
                     rc =    4.730425
                 energy =   -1.363399
                kinetic =    1.245246
    potential(screened) =   -2.608645
       potential(ionic) =   -8.121105

   izeta = 2
                 rmatch =    2.531849
              splitnorm =    0.280000
                 energy =   -0.959908
                kinetic =    2.409435
    potential(screened) =   -3.369343
       potential(ionic) =   -9.427975

SPLIT: Orbitals with angular momentum L= 1

SPLIT: Basis orbitals for state 2p

SPLIT: PAO cut-off radius determined from an
SPLIT: energy shift=  0.002000 Ry

   izeta = 1
                 lambda =    1.000000
                     rc =    5.924108
                 energy =   -0.519262
                kinetic =    3.672940
    potential(screened) =   -4.192202
       potential(ionic) =   -9.518354

   izeta = 2
                 rmatch =    2.531849
              splitnorm =    0.280000
                 energy =   -0.104258
                kinetic =    6.807538
    potential(screened) =   -6.911796
       potential(ionic) =  -13.149920

POLgen: Perturbative polarization orbital with L=  2

POLgen: Polarization orbital for state 2p

   izeta = 1
                     rc =    5.924108
                 energy =    1.427508
                kinetic =    2.872379
    potential(screened) =   -1.444871
       potential(ionic) =   -5.563644
atom: Total number of Sankey-type orbitals: 13

atm_pop: Valence configuration (for local Pseudopot. screening):
 2s( 2.00)                                                            
 2p( 3.00)                                                            
Vna: chval, zval:    5.00000   5.00000

Vna:  Cut-off radius for the neutral-atom potential:   5.924108

atom: _________________________________________________________________________

<basis_specs>
===============================================================================
Si                   Z=  14    Mass=  28.090        Charge= 0.17977+309
Lmxo=1 Lmxkb= 3    BasisType=split      Semic=F
L=0  Nsemic=0  Cnfigmx=3
          i=1  nzeta=2  polorb=0  (3s)
            splnorm:   0.28000    
               vcte:    0.0000    
               rinn:    0.0000    
               qcoe:    0.0000    
               qyuk:    0.0000    
               qwid:   0.10000E-01
                rcs:    0.0000      0.0000    
            lambdas:    1.0000      1.0000    
L=1  Nsemic=0  Cnfigmx=3
          i=1  nzeta=2  polorb=1  (3p)
            splnorm:   0.28000    
               vcte:    0.0000    
               rinn:    0.0000    
               qcoe:    0.0000    
               qyuk:    0.0000    
               qwid:   0.10000E-01
                rcs:    0.0000      0.0000    
            lambdas:    1.0000      1.0000    
-------------------------------------------------------------------------------
L=0  Nkbl=1  erefs: 0.17977+309
L=1  Nkbl=1  erefs: 0.17977+309
L=2  Nkbl=1  erefs: 0.17977+309
L=3  Nkbl=1  erefs: 0.17977+309
===============================================================================
</basis_specs>

atom: Called for Si                    (Z =  14)

read_vps: Pseudopotential generation method:
read_vps: ATM4.2.7  Troullier-Martins                       
Valence charge for ps generation:    4.00000

xc_check: Exchange-correlation functional:
xc_check: GGA Perdew, Burke & Ernzerhof 1996
V l=0 = -2*Zval/r beyond r=  2.7826
V l=1 = -2*Zval/r beyond r=  2.7826
V l=2 = -2*Zval/r beyond r=  2.9253
V l=3 = -2*Zval/r beyond r=  2.7826
All V_l potentials equal beyond r=  2.8530
This should be close to max(r_c) in ps generation
All pots = -2*Zval/r beyond r=  2.9253

VLOCAL1: 99.0% of the norm of Vloc inside      5.333 Ry
VLOCAL1: 99.9% of the norm of Vloc inside     12.154 Ry
atom: Maximum radius for 4*pi*r*r*local-pseudopot. charge    3.39869
atom: Maximum radius for r*vlocal+2*Zval:    2.96205
GHOST: No ghost state for L =  0
GHOST: No ghost state for L =  1
GHOST: No ghost state for L =  2
GHOST: No ghost state for L =  3

KBgen: Kleinman-Bylander projectors: 
   l= 0   rc=  3.075247   el= -0.794092   Ekb=  5.879390   kbcos=  0.167461
   l= 1   rc=  3.153101   el= -0.300068   Ekb=  2.642817   kbcos=  0.058301
   l= 2   rc=  3.273594   el=  0.001958   Ekb= -1.185135   kbcos= -0.104411
   l= 3   rc=  3.232927   el=  0.003046   Ekb= -0.497174   kbcos= -0.015889

KBgen: Total number of Kleinman-Bylander projectors:   16
atom: -------------------------------------------------------------------------

atom: SANKEY-TYPE ORBITALS:
atom: Selected multiple-zeta basis: split     

SPLIT: Orbitals with angular momentum L= 0

SPLIT: Basis orbitals for state 3s

SPLIT: PAO cut-off radius determined from an
SPLIT: energy shift=  0.002000 Ry

   izeta = 1
                 lambda =    1.000000
                     rc =    6.429618
                 energy =   -0.792283
                kinetic =    0.525293
    potential(screened) =   -1.317576
       potential(ionic) =   -3.744923

   izeta = 2
                 rmatch =    3.998416
              splitnorm =    0.280000
                 energy =   -0.583081
                kinetic =    1.069570
    potential(screened) =   -1.652651
       potential(ionic) =   -4.235185

SPLIT: Orbitals with angular momentum L= 1

SPLIT: Basis orbitals for state 3p

SPLIT: PAO cut-off radius determined from an
SPLIT: energy shift=  0.002000 Ry

   izeta = 1
                 lambda =    1.000000
                     rc =    8.464845
                 energy =   -0.298236
                kinetic =    0.785360
    potential(screened) =   -1.083596
       potential(ionic) =   -3.273779

   izeta = 2
                 rmatch =    4.587816
              splitnorm =    0.280000
                 energy =   -0.131871
                kinetic =    1.403687
    potential(screened) =   -1.535557
       potential(ionic) =   -4.015310

POLgen: Perturbative polarization orbital with L=  2

POLgen: Polarization orbital for state 3p

   izeta = 1
                     rc =    8.464845
                 energy =    0.321949
                kinetic =    1.055677
    potential(screened) =   -0.733728
       potential(ionic) =   -2.672950
atom: Total number of Sankey-type orbitals: 13

atm_pop: Valence configuration (for local Pseudopot. screening):
 3s( 2.00)                                                            
 3p( 2.00)                                                            
Vna: chval, zval:    4.00000   4.00000

Vna:  Cut-off radius for the neutral-atom potential:   8.464845

atom: _________________________________________________________________________

<basis_specs>
===============================================================================
O                    Z=   8    Mass=  16.000        Charge= 0.17977+309
Lmxo=1 Lmxkb= 3    BasisType=split      Semic=F
L=0  Nsemic=0  Cnfigmx=2
          i=1  nzeta=2  polorb=0  (2s)
            splnorm:   0.28000    
               vcte:    0.0000    
               rinn:    0.0000    
               qcoe:    0.0000    
               qyuk:    0.0000    
               qwid:   0.10000E-01
                rcs:    0.0000      0.0000    
            lambdas:    1.0000      1.0000    
L=1  Nsemic=0  Cnfigmx=2
          i=1  nzeta=2  polorb=1  (2p)
            splnorm:   0.28000    
               vcte:    0.0000    
               rinn:    0.0000    
               qcoe:    0.0000    
               qyuk:    0.0000    
               qwid:   0.10000E-01
                rcs:    0.0000      0.0000    
            lambdas:    1.0000      1.0000    
-------------------------------------------------------------------------------
L=0  Nkbl=1  erefs: 0.17977+309
L=1  Nkbl=1  erefs: 0.17977+309
L=2  Nkbl=1  erefs: 0.17977+309
L=3  Nkbl=1  erefs: 0.17977+309
===============================================================================
</basis_specs>

atom: Called for O                     (Z =   8)

read_vps: Pseudopotential generation method:
read_vps: ATM4.2.7  Troullier-Martins                       
Valence charge for ps generation:    6.00000

xc_check: Exchange-correlation functional:
xc_check: GGA Perdew, Burke & Ernzerhof 1996
V l=0 = -2*Zval/r beyond r=  1.1000
V l=1 = -2*Zval/r beyond r=  1.1000
V l=2 = -2*Zval/r beyond r=  2.2154
V l=3 = -2*Zval/r beyond r=  1.1000
All V_l potentials equal beyond r=  2.2154
This should be close to max(r_c) in ps generation
All pots = -2*Zval/r beyond r=  2.2154

VLOCAL1: 99.0% of the norm of Vloc inside      8.845 Ry
VLOCAL1: 99.9% of the norm of Vloc inside     20.157 Ry
atom: Maximum radius for 4*pi*r*r*local-pseudopot. charge    2.67231
atom: Maximum radius for r*vlocal+2*Zval:    2.32897
GHOST: No ghost state for L =  0
GHOST: No ghost state for L =  1
GHOST: No ghost state for L =  2
GHOST: No ghost state for L =  3

KBgen: Kleinman-Bylander projectors: 
   l= 0   rc=  2.243238   el= -1.759686   Ekb=**********   kbcos= -0.171774
   l= 1   rc=  2.328968   el= -0.663873   Ekb=-14.506792   kbcos= -0.519897
   l= 2   rc=  2.573941   el=  0.002031   Ekb= -1.137373   kbcos= -0.019581
   l= 3   rc=  2.606321   el=  0.003153   Ekb= -1.013546   kbcos= -0.003122

KBgen: Total number of Kleinman-Bylander projectors:   16
atom: -------------------------------------------------------------------------

atom: SANKEY-TYPE ORBITALS:
atom: Selected multiple-zeta basis: split     

SPLIT: Orbitals with angular momentum L= 0

SPLIT: Basis orbitals for state 2s

SPLIT: PAO cut-off radius determined from an
SPLIT: energy shift=  0.002000 Ry

   izeta = 1
                 lambda =    1.000000
                     rc =    4.243912
                 energy =   -1.758270
                kinetic =    3.286084
    potential(screened) =   -5.044353
       potential(ionic) =  -12.921184

   izeta = 2
                 rmatch =    2.187845
              splitnorm =    0.280000
                 energy =   -0.885018
                kinetic =    8.134434
    potential(screened) =   -9.019452
       potential(ionic) =  -17.710645

SPLIT: Orbitals with angular momentum L= 1

SPLIT: Basis orbitals for state 2p

SPLIT: PAO cut-off radius determined from an
SPLIT: energy shift=  0.002000 Ry

   izeta = 1
                 lambda =    1.000000
                     rc =    5.314825
                 energy =   -0.661986
                kinetic =    4.917472
    potential(screened) =   -5.579458
       potential(ionic) =  -13.236259

   izeta = 2
                 rmatch =    2.160663
              splitnorm =    0.280000
                 energy =   -0.068760
                kinetic =    9.183374
    potential(screened) =   -9.252135
       potential(ionic) =  -18.274251

POLgen: Perturbative polarization orbital with L=  2

POLgen: Polarization orbital for state 2p

   izeta = 1
                     rc =    5.314825
                 energy =    1.970580
                kinetic =    3.886128
    potential(screened) =   -1.915547
       potential(ionic) =   -7.749584
atom: Total number of Sankey-type orbitals: 13

atm_pop: Valence configuration (for local Pseudopot. screening):
 2s( 2.00)                                                            
 2p( 4.00)                                                            
Vna: chval, zval:    6.00000   6.00000

Vna:  Cut-off radius for the neutral-atom potential:   5.314825

atom: _________________________________________________________________________

prinput: Basis input ----------------------------------------------------------

PAO.BasisType split     

%block ChemicalSpeciesLabel
    1    1 H                       # Species index, atomic number, species label
    2    7 N                       # Species index, atomic number, species label
    3   14 Si                      # Species index, atomic number, species label
    4    8 O                       # Species index, atomic number, species label
%endblock ChemicalSpeciesLabel

%block PAO.Basis                 # Define Basis set
H                     1                    # Species label, number of l-shells
 n=1   0   2 P   1                   # n, l, Nzeta, Polarization, NzetaPol
   6.518      2.141   
   1.000      1.000   
N                     2                    # Species label, number of l-shells
 n=2   0   2                         # n, l, Nzeta 
   4.730      2.532   
   1.000      1.000   
 n=2   1   2 P   1                   # n, l, Nzeta, Polarization, NzetaPol
   5.924      2.532   
   1.000      1.000   
Si                    2                    # Species label, number of l-shells
 n=3   0   2                         # n, l, Nzeta 
   6.430      3.998   
   1.000      1.000   
 n=3   1   2 P   1                   # n, l, Nzeta, Polarization, NzetaPol
   8.465      4.588   
   1.000      1.000   
O                     2                    # Species label, number of l-shells
 n=2   0   2                         # n, l, Nzeta 
   4.244      2.188   
   1.000      1.000   
 n=2   1   2 P   1                   # n, l, Nzeta, Polarization, NzetaPol
   5.315      2.161   
   1.000      1.000   
%endblock PAO.Basis

prinput: ----------------------------------------------------------------------

Dumping basis to NetCDF file H.ion.nc
Dumping basis to NetCDF file N.ion.nc
Dumping basis to NetCDF file Si.ion.nc
Dumping basis to NetCDF file O.ion.nc
coor:   Atomic-coordinates input format  =     Cartesian coordinates
coor:                                          (in Angstroms)

siesta: Atomic coordinates (Bohr) and species
siesta:      2.23339   6.38355  -0.00000  1        1
siesta:      0.89833   4.89060  -0.00000  2        2
siesta:     -2.37144   5.72465   0.00000  3        3
siesta:     -2.66582   8.54033   0.00000  1        4
siesta:     -5.25010   2.77875  -0.00000  3        5
siesta:     -8.05292   3.23763  -0.00000  1        6
siesta:     -2.98547  -0.83682  -0.00000  3        7
siesta:     -4.43305  -3.73324  -0.00000  2        8
siesta:     -3.31765  -5.54211   0.00000  1        9
siesta:     -6.42033  -3.88529  -0.00000  1       10
siesta:      0.25768  -0.73256   0.00000  2       11
siesta:      2.28918   1.78142  -0.00000  3       12
siesta:      5.32913   1.74587  -0.00000  4       13
siesta:     10.61355 -14.07759   0.00000  1       14
siesta:      8.65886 -13.66658   0.00000  2       15
siesta:      6.22979 -16.04876   0.00000  3       16
siesta:      7.18318 -18.71532  -0.00000  1       17
siesta:      3.13570 -15.14356   0.00000  2       18
siesta:      3.17659 -11.72506  -0.00000  3       19
siesta:      1.03072  -8.10005   0.00000  3       20
siesta:     -1.95457  -7.45403   0.00000  4       21
siesta:      3.27352  -5.43711   0.00000  2       22
siesta:      2.28576  -3.64645  -0.00000  1       23
siesta:      6.63017  -5.24735   0.00000  3       24
siesta:      7.81751  -2.22872   0.00000  2       25
siesta:      6.69523  -0.49602   0.00000  1       26
siesta:      9.79567  -1.98858  -0.00000  1       27
siesta:      8.75489  -7.70105  -0.00000  2       28
siesta:      7.16982 -10.55666   0.00000  3       29

siesta: Automatic unit cell vectors (Ang):
siesta:   18.454240    0.000000    0.000000
siesta:    0.000000   23.453956    0.000000
siesta:    0.000000    0.000000    9.854683

siesta: System type = molecule  

initatomlists: Number of atoms, orbitals, and projectors:     29   297   394

siesta: ******************** Simulation parameters ****************************
siesta:
siesta: The following are some of the parameters of the simulation.
siesta: A complete list of the parameters used, including default values,
siesta: can be found in file out.fdf
siesta:
redata: Spin configuration                          = spin-orbit
redata: Number of spin components                   = 8
redata: Time-Reversal Symmetry                      = F
redata: Spin spiral                                 = F
############################################################
This spin-orbit implementation uses a local approximation.
From 4.2 and onwards the full non-local approximation is implemented
You are strongly advised to use >=4.2 versions!
############################################################
redata: Long output                                 =   F
redata: Number of Atomic Species                    =        4
redata: Charge density info will appear in .RHO file
redata: Write Mulliken Pop.                         = NO
redata: Matel table size (NRTAB)                    =     1024
redata: Mesh Cutoff                                 =   340.0000 Ry
redata: Net charge of the system                    =     0.0000 |e|
redata: Min. number of SCF Iter                     =        1
redata: Max. number of SCF Iter                     =      600
redata: SCF convergence failure will abort job
redata: SCF mix quantity                            = Hamiltonian
redata: Mix DM or H after convergence               =   F
redata: Recompute H after scf cycle                 =   F
redata: Mix DM in first SCF step                    =   T
redata: Write Pulay info on disk                    =   F
redata: New DM Occupancy tolerance                  = 0.000000000001
redata: No kicks to SCF
redata: DM Mixing Weight for Kicks                  =     0.5000
redata: Require Harris convergence for SCF          =   F
redata: Harris energy tolerance for SCF             =     0.000100 eV
redata: Require DM convergence for SCF              =   T
redata: DM tolerance for SCF                        =     0.000008
redata: Require EDM convergence for SCF             =   F
redata: EDM tolerance for SCF                       =     0.001000 eV
redata: Require H convergence for SCF               =   T
redata: Hamiltonian tolerance for SCF               =     0.000001 eV
redata: Require (free) Energy convergence for SCF   =   F
redata: (free) Energy tolerance for SCF             =     0.000100 eV
redata: Using Saved Data (generic)                  =   F
redata: Use continuation files for DM               =   T
redata: Neglect nonoverlap interactions             =   F
redata: Method of Calculation                       = Diagonalization
redata: Electronic Temperature                      =   299.9978 K
redata: Fix the spin of the system                  =   F
redata: Dynamics option                             = Single-point calculation
mix.SCF: Pulay mixing                            = Pulay
mix.SCF:    Variant                              = stable
mix.SCF:    History steps                        = 6
mix.SCF:    Linear mixing weight                 =     0.250000
mix.SCF:    Mixing weight                        =     0.250000
mix.SCF:    SVD condition                        = 0.1000E-07
mix.SCF:    Restart steps                        = 24
mix.SCF:    Restart save steps                   = 3
mix.SCF: Spin-component mixing                   all
redata: Save all siesta data in one NC              =   F
redata: ***********************************************************************

%block SCF.Mixers
  Pulay
%endblock SCF.Mixers

%block SCF.Mixer.Pulay
  # Mixing method
  method pulay
  variant stable

  # Mixing options
  weight 0.2500
  weight.linear 0.2500
  history 6
  restart 24
  restart.save 3
%endblock SCF.Mixer.Pulay

DM_history_depth set to one: no extrapolation allowed by default for geometry relaxation
Size of DM history Fstack: 1
Total number of electrons:    98.000000
Total ionic charge:    98.000000

* ProcessorY, Blocksize:    2  24


* Orbital distribution balance (max,min):    57    48


Time-reversal symmetry not used.

siesta: k-grid: Number of k-points =     1
siesta: k-grid: Cutoff (effective) =     4.927 Ang
siesta: k-grid: Supercell and displacements
siesta: k-grid:    1   0   0      0.000
siesta: k-grid:    0   1   0      0.000
siesta: k-grid:    0   0   1      0.000

diag: Algorithm                                     = ELPA-1stage
diag: Parallel over k                               =   F
diag: Use parallel 2D distribution                  =   T
diag: Parallel block-size                           = 24
diag: Parallel distribution                         =     2 x     3
diag: Used triangular part                          = Lower
diag: Absolute tolerance                            =  0.100E-15
diag: Orthogonalization factor                      =  0.100E-05
diag: Memory factor                                 =  1.0000


ts: **************************************************************
ts: Save H and S matrices                           =    F
ts: Save DM and EDM matrices                        =    F
ts: Only save the overlap matrix S                  =    F
ts: **************************************************************

************************ Begin: TS CHECKS AND WARNINGS ************************
************************ End: TS CHECKS AND WARNINGS **************************


                     ====================================
                        Single-point calculation
                     ====================================

outcoor: Atomic coordinates (Ang):                          
    1.18186080    3.37802802    0.00000000   1       1  H
    0.47537407    2.58799184    0.00000000   2       2  N
   -1.25491284    3.02935575    0.00000000   3       3  Si
   -1.41069252    4.51934801    0.00000000   1       4  H
   -2.77823446    1.47044823    0.00000000   3       5  Si
   -4.26142209    1.71327859    0.00000000   1       6  H
   -1.57984360   -0.44282793    0.00000000   3       7  Si
   -2.34586906   -1.97554467    0.00000000   2       8  N
   -1.75562251   -2.93275770    0.00000000   1       9  H
   -3.39749138   -2.05600490    0.00000000   1      10  H
    0.13635646   -0.38765362    0.00000000   2      11  N
    1.21137908    0.94268522    0.00000000   3      12  Si
    2.82005240    0.92387496    0.00000000   4      13  O
    5.61644830   -7.44953905    0.00000000   1      14  H
    4.58206954   -7.23203760    0.00000000   2      15  N
    3.29666389   -8.49263600    0.00000000   3      16  Si
    3.80117524   -9.90371886    0.00000000   1      17  H
    1.65934232   -8.01362137    0.00000000   2      18  N
    1.68097912   -6.20463398    0.00000000   3      19  Si
    0.54543521   -4.28636135    0.00000000   3      20  Si
   -1.03431493   -3.94450034    0.00000000   4      21  O
    1.73226934   -2.87719605    0.00000000   2      22  N
    1.20957366   -1.92961761    0.00000000   1      23  H
    3.50853448   -2.77677601    0.00000000   3      24  Si
    4.13684451   -1.17938608    0.00000000   2      25  N
    3.54296161   -0.26248101    0.00000000   1      26  H
    5.18364407   -1.05231197    0.00000000   1      27  H
    4.63288658   -4.07521596    0.00000000   2      28  N
    3.79410501   -5.58634043    0.00000000   3      29  Si

outcell: Unit cell vectors (Ang):
       18.454240    0.000000    0.000000
        0.000000   23.453956    0.000000
        0.000000    0.000000    9.854683

outcell: Cell vector modules (Ang)   :   18.454240   23.453956    9.854683
outcell: Cell angles (23,13,12) (deg):     90.0000     90.0000     90.0000
outcell: Cell volume (Ang**3)        :   4265.3527
<dSpData1D:S at geom step 0
  <sparsity:sparsity for geom step 0
    nrows_g=297 nrows=57 sparsity=.1439 nnzs=12689, refcount: 8>
  <dData1D:(new from dSpData1D) n=12689, refcount: 1>
refcount: 1>
new_DM -- step:     1
Initializing Density Matrix...

Attempting to read DM from file... Failed...
DM filled with atomic data:
<dSpData2D:DM initialized from atoms
  <sparsity:sparsity for geom step 0
    nrows_g=297 nrows=57 sparsity=.1439 nnzs=12689, refcount: 9>
  <dData2D:DM n=12689 m=8, refcount: 1>
refcount: 1>
     spin moment: S , {S} =   56.00000   0.00000   0.00000  56.00000
No. of atoms with KB's overlaping orbs in proc 0. Max # of overlaps:      28     215

Initializing spin-orbit part of the Hamiltonian
  Adding spin-orbit effects for H 
  Adding spin-orbit effects for N 
  Adding spin-orbit effects for Si
  Adding spin-orbit effects for O 


New grid distribution:   1
           1       1:  108    1:   68    1:   20
           2       1:  108    1:   68   21:   40
           3       1:  108    1:   68   41:   60
           4       1:  108   69:  135    1:   20
           5       1:  108   69:  135   21:   40
           6       1:  108   69:  135   41:   60

InitMesh: MESH =   216 x   270 x   120 =     6998400
InitMesh: (bp) =   108 x   135 x    60 =      874800
InitMesh: Mesh cutoff (required, used) =   340.000   366.266 Ry
ExtMesh (bp) on 0 =   216 x   172 x   132 =     4904064
New grid distribution:   2
           1      16:  108   26:  104    1:   60
           2      16:  108  122:  135    1:   60
           3       1:   15  105:  135    1:   60
           4      16:  108  105:  121    1:   60
           5      16:  108    1:   25    1:   60
           6       1:   15    1:  104    1:   60
New grid distribution:   3
           1      21:  108   22:   88    1:   60
           2      21:  108    1:   21    1:   60
           3       1:   23   89:  135    1:   60
           4      24:  108  116:  135    1:   60
           5      24:  108   89:  115    1:   60
           6       1:   20    1:   88    1:   60
Setting up quadratic distribution...
ExtMesh (bp) on 0 =   201 x   183 x   172 =     6326676
PhiOnMesh: Number of (b)points on node 0 =               440820
PhiOnMesh: nlist on node 0 =              2137933

stepf: Fermi-Dirac step function

siesta: Program's energy decomposition (eV):
siesta: Ebs     =      -611.855800
siesta: Eions   =      3585.165840
siesta: Ena     =       382.335041
siesta: Ekin    =      3371.968492
siesta: Enl     =     -3301.589306
siesta: Eso     =        -0.003466
siesta: Edftu   =         0.000000
siesta: DEna    =       156.087824
siesta: DUscf   =        78.371241
siesta: DUext   =         0.000000
siesta: Exc     =     -1205.933954
siesta: eta*DQ  =         0.000000
siesta: Emadel  =         0.000000
siesta: Emeta   =         0.000000
siesta: Emolmec =         0.000000
siesta: Ekinion =         0.000000
siesta: Eharris =     -4024.088451
siesta: Etot    =     -4103.929969
siesta: FreeEng =     -4103.931038

        iscf     Eharris(eV)        E_KS(eV)     FreeEng(eV)     dDmax    Ef(eV) dHmax(eV)
   scf:    1    -4024.088451    -4103.929969    -4103.931038  0.953778 -4.908755 19.942141
     spin moment: S , {S} =    2.00589   0.00000  -0.00000   2.00589
timer: Routine,Calls,Time,% = IterSCF        1       5.873  22.54
   scf:    2    -4150.624494    -4138.381801    -4138.384483  0.473449 -4.181809 10.892498
     spin moment: S , {S} =    1.98489  -0.00000   0.00000   1.98489
   scf:    3    -4112.715979    -4135.785014    -4135.801855  0.434020 -4.259296 11.186005
     spin moment: S , {S} =    2.00013  -0.00000  -0.00000   2.00013
   scf:    4    -4150.928786    -4146.177545    -4146.177547  0.323257 -3.872767  5.780154
     spin moment: S , {S} =    0.00010  -0.00000  -0.00000   0.00010
   scf:    5    -4147.326970    -4146.851204    -4146.851204  0.036428 -3.685012  4.551100
     spin moment: S , {S} =    0.00006  -0.00000  -0.00000   0.00006
   scf:    6    -4147.692715    -4147.275071    -4147.275071  0.026897 -3.617663  2.224021
     spin moment: S , {S} =    0.00003  -0.00000  -0.00000   0.00003
   scf:    7    -4147.648761    -4147.463870    -4147.463870  0.021551 -3.738722  0.794289
     spin moment: S , {S} =    0.00001  -0.00000   0.00000   0.00001
   scf:    8    -4147.578973    -4147.520110    -4147.520110  0.012402 -3.730512  0.409594
     spin moment: S , {S} =    0.00000  -0.00000   0.00000   0.00000
   scf:    9    -4147.558146    -4147.538623    -4147.538623  0.007100 -3.751072  0.264212
     spin moment: S , {S} =    0.00000  -0.00000  -0.00000   0.00000
   scf:   10    -4147.580143    -4147.557015    -4147.557015  0.013687 -3.779524  0.124066
     spin moment: S , {S} =    0.00000  -0.00000   0.00000  -0.00000
   scf:   11    -4147.562198    -4147.559413    -4147.559413  0.005350 -3.776628  0.057388
     spin moment: S , {S} =    0.00000   0.00000  -0.00000   0.00000
   scf:   12    -4147.560976    -4147.560159    -4147.560159  0.002853 -3.773077  0.035826
     spin moment: S , {S} =    0.00000  -0.00000  -0.00000   0.00000
   scf:   13    -4147.561122    -4147.560608    -4147.560608  0.002420 -3.770039  0.030092
     spin moment: S , {S} =    0.00000  -0.00000  -0.00000   0.00000
   scf:   14    -4147.561562    -4147.561017    -4147.561017  0.003555 -3.772822  0.016811
     spin moment: S , {S} =    0.00000  -0.00000  -0.00000   0.00000
   scf:   15    -4147.561373    -4147.561160    -4147.561160  0.002645 -3.771933  0.008491
     spin moment: S , {S} =    0.00000  -0.00000  -0.00000   0.00000
   scf:   16    -4147.561223    -4147.561186    -4147.561186  0.001112 -3.772322  0.005216
     spin moment: S , {S} =    0.00000  -0.00000  -0.00000   0.00000
   scf:   17    -4147.561203    -4147.561193    -4147.561193  0.000542 -3.772548  0.003062
     spin moment: S , {S} =    0.00000  -0.00000  -0.00000  -0.00000
   scf:   18    -4147.561202    -4147.561197    -4147.561197  0.000353 -3.772621  0.001621
     spin moment: S , {S} =    0.00000  -0.00000  -0.00000  -0.00000
   scf:   19    -4147.561201    -4147.561199    -4147.561199  0.000231 -3.772606  0.000743
     spin moment: S , {S} =    0.00000  -0.00000  -0.00000  -0.00000
   scf:   20    -4147.561199    -4147.561199    -4147.561199  0.000103 -3.772527  0.000394
     spin moment: S , {S} =    0.00000  -0.00000  -0.00000  -0.00000
   scf:   21    -4147.561199    -4147.561199    -4147.561199  0.000099 -3.772467  0.000221
     spin moment: S , {S} =    0.00000  -0.00000  -0.00000  -0.00000
   scf:   22    -4147.561199    -4147.561199    -4147.561199  0.000015 -3.772446  0.000109
     spin moment: S , {S} =    0.00000  -0.00000  -0.00000  -0.00000
   scf:   23    -4147.561199    -4147.561199    -4147.561199  0.000007 -3.772443  0.000064
     spin moment: S , {S} =    0.00000  -0.00000  -0.00000  -0.00000
   scf:   24    -4147.561199    -4147.561199    -4147.561199  0.000008 -3.772439  0.000027
     spin moment: S , {S} =    0.00000  -0.00000  -0.00000  -0.00000
mix: Pulay -- resetting history
   scf:   25    -4147.561199    -4147.561199    -4147.561199  0.000004 -3.772437  0.000018
     spin moment: S , {S} =    0.00000  -0.00000  -0.00000  -0.00000
   scf:   26    -4147.561199    -4147.561199    -4147.561199  0.000001 -3.772437  0.000012
     spin moment: S , {S} =    0.00000  -0.00000  -0.00000  -0.00000
   scf:   27    -4147.561199    -4147.561199    -4147.561199  0.000001 -3.772437  0.000006
     spin moment: S , {S} =    0.00000  -0.00000  -0.00000  -0.00000
   scf:   28    -4147.561199    -4147.561199    -4147.561199  0.000000 -3.772437  0.000003
     spin moment: S , {S} =    0.00000  -0.00000  -0.00000  -0.00000
   scf:   29    -4147.561199    -4147.561199    -4147.561199  0.000000 -3.772437  0.000002
     spin moment: S , {S} =    0.00000  -0.00000  -0.00000  -0.00000
   scf:   30    -4147.561199    -4147.561199    -4147.561199  0.000000 -3.772437  0.000001
     spin moment: S , {S} =    0.00000  -0.00000  -0.00000  -0.00000
   scf:   31    -4147.561199    -4147.561199    -4147.561199  0.000000 -3.772437  0.000001
     spin moment: S , {S} =    0.00000  -0.00000  -0.00000  -0.00000

SCF Convergence by DM+H criterion
max |DM_out - DM_in|         :     0.0000001335
max |H_out - H_in|      (eV) :     0.0000007073
SCF cycle converged after 31 iterations

Using DM_out to compute the final energy and forces
No. of atoms with KB's overlaping orbs in proc 0. Max # of overlaps:      28     215

siesta: E_KS(eV) =            -4147.5612

siesta: E_KS - E_eggbox =     -4147.5612
     spin moment: S , {S} =    0.00000  -0.00000  -0.00000  -0.00000

siesta: Atomic forces (eV/Ang):
     1    0.107348    0.062720    0.000000
     2    0.209212   -0.115106   -0.000000
     3   -0.159247    0.027779   -0.000000
     4    0.021515    0.128279    0.000000
     5    0.090886    0.077664    0.000000
     6    0.013914    0.096022    0.000000
     7   -0.521941   -0.234146   -0.000000
     8   -1.148010    2.118052    0.000000
     9    0.231403   -0.287821    0.000000
    10   -0.089118    0.130918    0.000000
    11    0.273923    0.228964   -0.000000
    12   -0.425660    0.212704   -0.000000
    13   -1.372031    2.651678    0.000000
    14    0.051971   -0.002942    0.000000
    15   -0.037119   -0.022770    0.000000
    16   -0.008364    0.010825    0.000000
    17   -0.057607    0.027714   -0.000000
    18   -0.005757   -0.014981    0.000000
    19   -0.097837   -0.009148   -0.000000
    20    0.585206   -0.063170   -0.000000
    21    3.435464   -0.684879    0.000000
    22    0.036035   -0.549686    0.000000
    23   -0.197267    0.155110    0.000000
    24    0.179962    0.237615   -0.000000
    25    0.689104   -1.366942    0.000000
    26   -0.118669    0.258892    0.000000
    27    0.057236   -0.131148    0.000000
    28    0.028733   -0.250866    0.000000
    29    0.111070    0.129268   -0.000000
----------------------------------------
   Tot    1.884355    2.820599   -0.000000
----------------------------------------
   Max    3.435464
   Res    0.600092    sqrt( Sum f_i^2 / 3N )
----------------------------------------
   Max    3.435464    constrained

Stress tensor Voigt[x,y,z,yz,xz,xy] (kbar):       -0.91       -2.75       -0.10       -0.00       -0.00        2.30
(Free)E + p*V (eV/cell)    -4144.2161
Target enthalpy (eV/cell)    -4147.5612

siesta: Eigenvalues (eV):
ik =     1
  -23.3150  -23.3150  -23.1550  -23.1550  -21.5255  -21.5255  -21.2437  -21.2437  -20.8021  -20.8021
  -20.4399  -20.4399  -20.0806  -20.0806  -19.6461  -19.6461  -19.4278  -19.4278  -19.3597  -19.3597
  -14.7740  -14.7740  -13.8873  -13.8873  -13.2925  -13.2925  -13.1615  -13.1615  -13.0858  -13.0858
  -12.8108  -12.8108  -12.4883  -12.4883  -12.1003  -12.1003  -11.9991  -11.9991  -11.8493  -11.8493
  -10.9923  -10.9923  -10.8050  -10.8050  -10.6045  -10.6045  -10.2781  -10.2781  -10.1668  -10.1668
   -9.7562   -9.7562   -9.1768   -9.1768   -8.9590   -8.9590   -8.8569   -8.8569   -8.7831   -8.7831
   -8.4551   -8.4551   -8.4009   -8.4009   -8.3890   -8.3890   -7.9895   -7.9895   -7.8505   -7.8505
   -7.5915   -7.5915   -7.5204   -7.5204   -7.4021   -7.4021   -7.2591   -7.2591   -6.9718   -6.9718
   -6.8295   -6.8295   -6.6904   -6.6904   -6.4920   -6.4920   -6.4445   -6.4445   -6.2103   -6.2103
   -5.9389   -5.9389   -5.9127   -5.9127   -5.5198   -5.5198   -4.3462   -4.3462   -3.1957   -3.1957
   -2.4103   -2.4103   -2.3399   -2.3399   -2.2105   -2.2105   -1.9452   -1.9452   -1.8825   -1.8825
   -1.8747   -1.8747   -1.6312   -1.6312   -1.6042   -1.6042   -1.2610   -1.2610   -1.0982   -1.0982
   -1.0056   -1.0056   -0.5433   -0.5433   -0.5069   -0.5069   -0.3504   -0.3504    0.4331    0.4331
    0.4489    0.4489    0.5532    0.5532    0.6625    0.6625    0.9652    0.9652    1.1195    1.1195
    1.4274    1.4274    1.4487    1.4487    1.5103    1.5103    1.5751    1.5751    2.0320    2.0320
    2.2394    2.2394    2.5952    2.5952    2.6667    2.6667    2.7696    2.7696    2.8834    2.8834
    3.0391    3.0391    3.2972    3.2972    3.3879    3.3879    3.4522    3.4522    3.6215    3.6215
    3.8866    3.8866    4.0544    4.0544    4.0719    4.0719    4.2284    4.2284    4.4744    4.4744
    4.5159    4.5159    4.7568    4.7568    4.8472    4.8472    5.0727    5.0727    5.2660    5.2660
    5.3047    5.3047    5.4680    5.4680    5.6880    5.6880    5.8709    5.8709    5.9179    5.9179
    6.0527    6.0527    6.3766    6.3766    6.4232    6.4232    6.5755    6.5755    6.6553    6.6553
    6.9472    6.9472    7.0591    7.0591    7.2163    7.2163    7.2745    7.2745    7.3429    7.3429
    7.5452    7.5452    7.7332    7.7332    7.7393    7.7393    8.0652    8.0652    8.1233    8.1233
    8.3014    8.3014    8.5948    8.5948    8.6757    8.6757    8.7879    8.7879    8.7945    8.7945
    8.9225    8.9225    9.1088    9.1088    9.4156    9.4156    9.4578    9.4578    9.7148    9.7148
    9.9477    9.9477    9.9535    9.9535   10.0354   10.0354   10.2173   10.2173   10.4358   10.4358
   10.6359   10.6359   10.8485   10.8485   11.2703   11.2703   11.2919   11.2919   11.3577   11.3577
   11.4067   11.4067   11.8764   11.8764   12.4198   12.4198   12.5080   12.5080   12.5142   12.5142
   12.5566   12.5566   12.7548   12.7548   13.2896   13.2896   13.3371   13.3371   13.6393   13.6393
   13.7123   13.7123   13.9031   13.9031   14.2403   14.2403   14.3545   14.3545   14.3754   14.3754
   14.5976   14.5976   14.9758   14.9758   15.0259   15.0259   15.3147   15.3147   15.3894   15.3894
   15.6319   15.6319   16.5899   16.5899   16.7407   16.7407   16.8697   16.8697   17.1572   17.1572
   17.3939   17.3939   17.8143   17.8143   18.5546   18.5546   18.6970   18.6970   19.1746   19.1746
   19.4645   19.4645   20.3078   20.3078   20.3824   20.3824   20.6686   20.6686   20.9624   20.9624
   21.3584   21.3584   22.1381   22.1381   22.3283   22.3283   22.8368   22.8368   23.7047   23.7047
   23.8322   23.8322   24.1720   24.1720   24.3055   24.3055   25.0030   25.0030   25.3201   25.3201
   26.1951   26.1951   26.5564   26.5564   27.0914   27.0914   27.8951   27.8951   28.8328   28.8328
   29.6507   29.6507   29.9010   29.9010   30.1692   30.1692   30.4265   30.4265   30.7786   30.7786
   30.9462   30.9462   30.9605   30.9605   31.4830   31.4830   31.7407   31.7407   31.8602   31.8602
   33.5924   33.5924   33.6801   33.6801   34.0417   34.0417   34.1150   34.1150   35.2651   35.2651
   35.3297   35.3297   35.4010   35.4010   36.0416   36.0416   36.3540   36.3540   36.5738   36.5738
   37.0611   37.0611   37.5459   37.5459   37.9313   37.9313   38.8312   38.8312   38.9217   38.9217
   39.4142   39.4142   39.4439   39.4439   40.0455   40.0455   40.2296   40.2296   40.4722   40.4722
   40.7403   40.7403   40.9495   40.9495   41.7928   41.7928   42.2629   42.2629   42.2668   42.2668
   42.6416   42.6416   43.1736   43.1736   43.4998   43.4998   43.5087   43.5087   44.1933   44.1933
   44.5963   44.5963   44.7603   44.7603   44.8569   44.8569   45.3133   45.3133   45.3869   45.3869
   45.5372   45.5372   46.1665   46.1665   46.8410   46.8410   46.9416   46.9416   47.2235   47.2235
   47.9731   47.9731   48.2792   48.2792   49.8395   49.8395   50.1879   50.1879   50.2833   50.2833
   50.6201   50.6201   50.6304   50.6304   50.9636   50.9636   51.7128   51.7128   51.9220   51.9220
   52.8502   52.8502   53.2124   53.2124   53.5589   53.5589   54.3376   54.3376   54.6897   54.6897
   54.6989   54.6989   55.7669   55.7669   55.8260   55.8260   56.1553   56.1553   56.9380   56.9380
   57.2807   57.2807   57.5058   57.5058   58.4082   58.4082   59.0735   59.0735   60.3632   60.3632
   60.5010   60.5010   61.2131   61.2131   61.4068   61.4068   62.4196   62.4196   62.9800   62.9800
   63.7788   63.7788   64.7075   64.7075   65.0343   65.0343   66.2024   66.2024   66.5596   66.5596
   67.5305   67.5305   68.5230   68.5230   70.8304   70.8304   72.2810   72.2810   73.7526   73.7526
   75.0759   75.0759   75.5451   75.5451   77.4701   77.4701   78.4201   78.4201   90.5749   90.5749
   91.8243   91.8243   92.1528   92.1528   95.0857   95.0857   98.4927   98.4927   98.8981   98.8981
  102.3884  102.3884  104.0103  104.0103  105.2131  105.2131  107.9090  107.9090  109.5971  109.5971
  117.9891  117.9891  120.1363  120.1363  125.7351  125.7351  129.2004  129.2004  140.7362  140.7362
  145.5731  145.5731  148.5500  148.5500
siesta: Fermi energy =      -3.772437 eV

siesta: Program's energy decomposition (eV):
siesta: Ebs     =     -1138.074029
siesta: Eions   =      3585.165840
siesta: Ena     =       382.335041
siesta: Ekin    =      2919.198172
siesta: Enl     =     -2801.239705
siesta: Eso     =        -0.004349
siesta: Edftu   =         0.000000
siesta: DEna    =        48.347378
siesta: DUscf   =        13.711992
siesta: DUext   =         0.000000
siesta: Exc     =     -1124.743888
siesta: eta*DQ  =         0.000000
siesta: Emadel  =         0.000000
siesta: Emeta   =         0.000000
siesta: Emolmec =         0.000000
siesta: Ekinion =         0.000000
siesta: Eharris =     -4147.561199
siesta: Etot    =     -4147.561199
siesta: FreeEng =     -4147.561199

siesta: Final energy (eV):
siesta:  Band Struct. =   -1138.074029
siesta:       Kinetic =    2919.198172
siesta:       Hartree =    9173.395620
siesta:       Edftu   =       0.000000
siesta:       Eso     =      -0.004349
siesta:    Ext. field =       0.000000
siesta:   Exch.-corr. =   -1124.743888
siesta:  Ion-electron =  -20943.686825
siesta:       Ion-ion =    5828.280071
siesta:       Ekinion =       0.000000
siesta:         Total =   -4147.561199
siesta:         Fermi =      -3.772437

siesta: Atomic forces (eV/Ang):
siesta:      1    0.107348    0.062720    0.000000
siesta:      2    0.209212   -0.115106   -0.000000
siesta:      3   -0.159247    0.027779   -0.000000
siesta:      4    0.021515    0.128279    0.000000
siesta:      5    0.090886    0.077664    0.000000
siesta:      6    0.013914    0.096022    0.000000
siesta:      7   -0.521941   -0.234146   -0.000000
siesta:      8   -1.148010    2.118052    0.000000
siesta:      9    0.231403   -0.287821    0.000000
siesta:     10   -0.089118    0.130918    0.000000
siesta:     11    0.273923    0.228964   -0.000000
siesta:     12   -0.425660    0.212704   -0.000000
siesta:     13   -1.372031    2.651678    0.000000
siesta:     14    0.051971   -0.002942    0.000000
siesta:     15   -0.037119   -0.022770    0.000000
siesta:     16   -0.008364    0.010825    0.000000
siesta:     17   -0.057607    0.027714   -0.000000
siesta:     18   -0.005757   -0.014981    0.000000
siesta:     19   -0.097837   -0.009148   -0.000000
siesta:     20    0.585206   -0.063170   -0.000000
siesta:     21    3.435464   -0.684879    0.000000
siesta:     22    0.036035   -0.549686    0.000000
siesta:     23   -0.197267    0.155110    0.000000
siesta:     24    0.179962    0.237615   -0.000000
siesta:     25    0.689104   -1.366942    0.000000
siesta:     26   -0.118669    0.258892    0.000000
siesta:     27    0.057236   -0.131148    0.000000
siesta:     28    0.028733   -0.250866    0.000000
siesta:     29    0.111070    0.129268   -0.000000
siesta: ----------------------------------------
siesta:    Tot    1.884355    2.820599   -0.000000

siesta: Stress tensor (static) (eV/Ang**3):
siesta:    -0.000570    0.001437   -0.000000
siesta:     0.001437   -0.001718    0.000000
siesta:    -0.000000   -0.000000   -0.000065

siesta: Cell volume =       4265.352745 Ang**3

siesta: Pressure (static):
siesta:                Solid            Molecule  Units
siesta:           0.00000854          0.00000101  Ry/Bohr**3
siesta:           0.00078424          0.00009305  eV/Ang**3
siesta:           1.25650257          0.14908134  kBar
(Free)E+ p_basis*V_orbitals  =       -4127.710782
(Free)Eharris+ p_basis*V_orbitals  =       -4127.710782
     spin moment: S , {S} =    0.00000  -0.00000  -0.00000  -0.00000

siesta: Electric dipole (a.u.)  =   -0.067759    1.504034    0.000000
siesta: Electric dipole (Debye) =   -0.172226    3.822875    0.000000

cite: Please see "GC.bib" for an exhaustive BiBTeX file.
cite: Please clearly indicate Siesta version in published work: v4.1.5-1-g384057250
cite: This calculation has made use of the following articles
cite: which are encouraged to be cited in a published work.
        Primary SIESTA paper
          DOI: www.doi.org/10.1088/0953-8984/14/11/302
        Spin-orbit coupling (on-site approximation)
          DOI: www.doi.org/10.1088/0953-8984/19/19/489001


WARNING: alloc-realloc-dealloc name mismatch
         Name: atomlist isa
         Size:              -116. Bytes
         Node:     0
         Subsequent mismatches will not be reported
>> End of run:  16-OCT-2023  18:14:49
Job completed
