<?xml version="1.0" encoding="UTF-8" ?>
<psml version="1.1" energy_unit="hartree" length_unit="bohr"
 uuid="d8009970-10f3-11ef-7510-e92cb7d305ee"
 xmlns="http://esl.cecam.org/PSML/ns/1.1">
<provenance creator="ATM4.2.7" date="13-MAY-24">
<annotation action="semilocal-pseudopotential-generation" />
<input-file name="INP">
<![CDATA[   pg Phosphorus
        tm2      6.0
   P    vlr
      0.00
    3    4
    3    0      1.00      1.00
    3    1      1.50      1.50
    3    2      0.00      0.00
    4    3      0.00      0.00
      1.31      1.87      2.97      0.56      0.00      0.00
]]>
</input-file>
</provenance>
<pseudo-atom-spec atomic-label="P" atomic-number="15" z-pseudo="5"
 flavor="Troullier-Martins" relativity="dirac" spin-dft="no"
 core-corrections="no">
<annotation pseudo-energy="-6.45809834412" />
<exchange-correlation>
<annotation atom-xc-code="vl" siesta-xc-type="VDW" siesta-xc-authors="LMKLL" />
<libxc-info number-of-functionals="2">
<functional name="XC_GGA_X_OPTB88_VDW" type="XC_EXCHANGE" id="139" />
<functional name="XC_NOT_IMPL" type="XC_EXCHANGE_CORRELATION" id="-1" />
</libxc-info>
</exchange-correlation>
<valence-configuration total-valence-charge="5">
<shell n="3" l="s" occupation="2" />
<shell n="3" l="p" occupation="3" />
</valence-configuration>
</pseudo-atom-spec>
<grid npts="376">
<annotation type="sampled-log-atom"
 recipe="r(i:1..N) = a*(exp(b*(i-1))-1); resampled"
 recipe-cont="a: scale; b: step" scale="0.165250145111E-03"
 step="0.125000000000E-01" delta="0.500000000000E-02" rmax="20" />
<grid-data>
  0.000000000000E+00  5.040194254966E-03  1.005841431122E-02  1.508666499124E-02
  2.016693443563E-02  2.529720647515E-02  3.054833525482E-02  3.596769575217E-02
  4.129375361922E-02  4.681395583614E-02  5.240787592029E-02  5.793703985470E-02
  6.325004482160E-02  6.904888299368E-02  7.443956698241E-02  8.025009981629E-02
  8.543644430074E-02  9.095727926648E-02  9.683417749610E-02  1.030901030972E-01
  1.083841182646E-01  1.139495633939E-01  1.198003549968E-01  1.259511230998E-01
  1.324172478270E-01  1.374834898527E-01  1.427433231038E-01  1.482041450877E-01
  1.538736359854E-01  1.597597694527E-01  1.658708238349E-01  1.722153938093E-01
  1.788024024730E-01  1.856411138926E-01  1.927411461330E-01  2.001124847847E-01
  2.051825397828E-01  2.103809438342E-01  2.157109461108E-01  2.211758780373E-01
  2.267791553743E-01  2.325242803523E-01  2.384148438617E-01  2.444545276962E-01
  2.506471068549E-01  2.569964519014E-01  2.635065313829E-01  2.701814143112E-01
  2.770252727053E-01  2.840423841995E-01  2.912371347169E-01  2.986140212108E-01
  3.061776544753E-01  3.139327620276E-01  3.218841910622E-01  3.300369114812E-01
  3.383960190002E-01  3.469667383335E-01  3.557544264598E-01  3.647645759700E-01
  3.740028185011E-01  3.834749282553E-01  3.931868256095E-01  4.031445808158E-01
  4.082175939804E-01  4.133544177952E-01  4.185558548995E-01  4.238227180283E-01
  4.291558301398E-01  4.345560245436E-01  4.400241450309E-01  4.455610460068E-01
  4.511675926234E-01  4.568446609148E-01  4.625931379347E-01  4.684139218942E-01
  4.743079223026E-01  4.802760601096E-01  4.863192678487E-01  4.924384897836E-01
  4.986346820550E-01  5.049088128307E-01  5.112618624563E-01  5.176948236087E-01
  5.242087014512E-01  5.308045137905E-01  5.374832912357E-01  5.442460773594E-01
  5.510939288606E-01  5.580279157300E-01  5.650491214173E-01  5.721586430001E-01
  5.793575913556E-01  5.866470913341E-01  5.940282819348E-01  6.015023164838E-01
  6.090703628142E-01  6.167336034487E-01  6.244932357841E-01  6.323504722788E-01
  6.403065406420E-01  6.483626840255E-01  6.565201612183E-01  6.647802468425E-01
  6.731442315536E-01  6.816134222410E-01  6.901891422330E-01  6.988727315034E-01
  7.076655468806E-01  7.165689622600E-01  7.255843688182E-01  7.347131752310E-01
  7.439568078928E-01  7.533167111402E-01  7.627943474770E-01  7.723911978031E-01
  7.821087616460E-01  7.919485573948E-01  8.019121225377E-01  8.120010139018E-01
  8.222168078970E-01  8.325611007620E-01  8.430355088135E-01  8.536416686991E-01
  8.643812376528E-01  8.752558937542E-01  8.862673361904E-01  8.974172855217E-01
  9.087074839503E-01  9.201396955927E-01  9.317157067553E-01  9.434373262133E-01
  9.553063854936E-01  9.673247391610E-01  9.794942651075E-01  9.918168648464E-01
  1.004294463809E+00  1.016929011645E+00  1.029722482530E+00  1.042676875467E+00
  1.055794214609E+00  1.069076549565E+00  1.082525955728E+00  1.096144534595E+00
  1.109934414096E+00  1.123897748927E+00  1.138036720890E+00  1.152353539226E+00
  1.166850440968E+00  1.181529691286E+00  1.196393583842E+00  1.211444441151E+00
  1.226684614939E+00  1.242116486515E+00  1.257742467139E+00  1.273564998404E+00
  1.289586552611E+00  1.305809633161E+00  1.322236774944E+00  1.338870544734E+00
  1.355713541591E+00  1.372768397268E+00  1.390037776620E+00  1.407524378024E+00
  1.425230933796E+00  1.443160210622E+00  1.461315009988E+00  1.479698168618E+00
  1.498312558917E+00  1.517161089423E+00  1.536246705257E+00  1.555572388584E+00
  1.575141159083E+00  1.594956074413E+00  1.615020230696E+00  1.635336762996E+00
  1.655908845812E+00  1.676739693576E+00  1.697832561149E+00  1.719190744334E+00
  1.740817580392E+00  1.762716448559E+00  1.784890770578E+00  1.807344011232E+00
  1.830079678886E+00  1.853101326033E+00  1.876412549853E+00  1.900016992773E+00
  1.923918343034E+00  1.948120335271E+00  1.972626751094E+00  1.997441419681E+00
  2.022568218375E+00  2.048011073288E+00  2.073773959919E+00  2.099860903771E+00
  2.126275980983E+00  2.153023318962E+00  2.180107097037E+00  2.207531547101E+00
  2.235300954282E+00  2.263419657605E+00  2.291892050675E+00  2.320722582362E+00
  2.349915757494E+00  2.379476137565E+00  2.409408341445E+00  2.439717046100E+00
  2.470406987328E+00  2.501482960495E+00  2.532949821284E+00  2.564812486457E+00
  2.597075934620E+00  2.629745207002E+00  2.662825408243E+00  2.696321707193E+00
  2.730239337716E+00  2.764583599510E+00  2.799359858938E+00  2.834573549859E+00
  2.870230174485E+00  2.906335304236E+00  2.942894580613E+00  2.979913716075E+00
  3.017398494939E+00  3.055354774277E+00  3.093788484836E+00  3.132705631960E+00
  3.172112296534E+00  3.212014635928E+00  3.252418884965E+00  3.293331356890E+00
  3.334758444361E+00  3.376706620444E+00  3.419182439627E+00  3.462192538844E+00
  3.505743638509E+00  3.549842543571E+00  3.594496144573E+00  3.639711418731E+00
  3.685495431025E+00  3.731855335298E+00  3.778798375380E+00  3.826331886218E+00
  3.874463295018E+00  3.923200122411E+00  3.972549983626E+00  4.022520589679E+00
  4.073119748578E+00  4.124355366546E+00  4.176235449251E+00  4.228768103063E+00
  4.281961536315E+00  4.335824060589E+00  4.390364092015E+00  4.445590152583E+00
  4.501510871478E+00  4.558134986425E+00  4.615471345059E+00  4.673528906301E+00
  4.732316741763E+00  4.791844037165E+00  4.852120093768E+00  4.913154329828E+00
  4.974956282068E+00  5.037535607170E+00  5.100902083280E+00  5.165065611539E+00
  5.230036217629E+00  5.295824053339E+00  5.362439398153E+00  5.429892660853E+00
  5.498194381149E+00  5.567355231324E+00  5.637386017902E+00  5.708297683335E+00
  5.780101307715E+00  5.852808110505E+00  5.926429452291E+00  6.000976836556E+00
  6.076461911482E+00  6.152896471765E+00  6.230292460461E+00  6.308661970850E+00
  6.388017248327E+00  6.468370692317E+00  6.549734858208E+00  6.632122459317E+00
  6.715546368874E+00  6.800019622035E+00  6.885555417917E+00  6.972167121663E+00
  7.059868266526E+00  7.148672555991E+00  7.238593865908E+00  7.329646246663E+00
  7.421843925378E+00  7.515201308126E+00  7.609732982189E+00  7.705453718334E+00
  7.802378473120E+00  7.900522391236E+00  7.999900807871E+00  8.100529251104E+00
  8.202423444333E+00  8.305599308735E+00  8.410072965746E+00  8.515860739590E+00
  8.622979159821E+00  8.731444963909E+00  8.841275099859E+00  8.952486728851E+00
  9.065097227929E+00  9.179124192712E+00  9.294585440147E+00  9.411499011287E+00
  9.529883174116E+00  9.649756426400E+00  9.771137498580E+00  9.894045356693E+00
  1.001849920534E+01  1.014451849070E+01  1.027212290353E+01  1.040133238228E+01
  1.053216711620E+01  1.066464754848E+01  1.079879437946E+01  1.093462856985E+01
  1.107217134402E+01  1.121144419331E+01  1.135246887939E+01  1.149526743765E+01
  1.163986218065E+01  1.178627570162E+01  1.193453087797E+01  1.208465087486E+01
  1.223665914887E+01  1.239057945159E+01  1.254643583337E+01  1.270425264710E+01
  1.286405455197E+01  1.302586651736E+01  1.318971382671E+01  1.335562208151E+01
  1.352361720525E+01  1.369372544751E+01  1.386597338805E+01  1.404038794097E+01
  1.421699635888E+01  1.439582623723E+01  1.457690551853E+01  1.476026249680E+01
  1.494592582193E+01  1.513392450421E+01  1.532428791879E+01  1.551704581037E+01
  1.571222829774E+01  1.590986587857E+01  1.610998943413E+01  1.631263023414E+01
  1.651781994163E+01  1.672559061791E+01  1.693597472758E+01  1.714900514357E+01
  1.736471515233E+01  1.758313845898E+01  1.780430919261E+01  1.802826191160E+01
  1.825503160901E+01  1.848465371806E+01  1.871716411769E+01  1.895259913812E+01
  1.919099556654E+01  1.943239065288E+01  1.967682211561E+01  1.992432814766E+01
</grid-data>
</grid>
<valence-charge total-charge="5" is-unscreening-charge="yes"
 rescaled-to-z-pseudo="no">
<radfunc>
<data>
  2.579171549547E-01  2.579454035202E-01  2.580296547080E-01  2.581702382742E-01
  2.583693594328E-01  2.586286496233E-01  2.589546014573E-01  2.593551974773E-01
  2.598123978601E-01  2.603526506488E-01  2.609689964379E-01  2.616462800255E-01
  2.623607803663E-01  2.632117838635E-01  2.640694285824E-01  2.650655692453E-01
  2.660174414703E-01  2.670956327229E-01  2.683168151143E-01  2.696998376190E-01
  2.709370063022E-01  2.723035004187E-01  2.738127314468E-01  2.754794793719E-01
  2.773200275977E-01  2.788252171553E-01  2.804464467429E-01  2.821925566151E-01
  2.840730443317E-01  2.860981111539E-01  2.882787113429E-01  2.906266044864E-01
  2.931544109759E-01  2.958756707532E-01  2.988049054398E-01  3.019576839546E-01
  3.041919189039E-01  3.065381323290E-01  3.090018034870E-01  3.115886668404E-01
  3.143047227247E-01  3.171562483518E-01  3.201498091484E-01  3.232922704306E-01
  3.265908094115E-01  3.300529275402E-01  3.336864631679E-01  3.374996045355E-01
  3.415009030749E-01  3.456992870150E-01  3.501040752812E-01  3.547249916733E-01
  3.595721793049E-01  3.646562152832E-01  3.699881256022E-01  3.755794002200E-01
  3.814420082781E-01  3.875884134178E-01  3.940315891320E-01  4.007850340789E-01
  4.078627872641E-01  4.152794429719E-01  4.230501652977E-01  4.311907020884E-01
  4.354047349769E-01  4.397173980478E-01  4.441308296112E-01  4.486472066944E-01
  4.532687453239E-01  4.579977007699E-01  4.628363677500E-01  4.677870805833E-01
  4.728522132902E-01  4.780341796292E-01  4.833354330606E-01  4.887584666297E-01
  4.943058127545E-01  4.999800429081E-01  5.057837671790E-01  5.117196336933E-01
  5.177903278800E-01  5.239985715582E-01  5.303471218218E-01  5.368387696942E-01
  5.434763385233E-01  5.502626820811E-01  5.572006823291E-01  5.642932468056E-01
  5.715433055849E-01  5.789538077533E-01  5.865277173375E-01  5.942680086169E-01
  6.021776607381E-01  6.102596515454E-01  6.185169505250E-01  6.269525107536E-01
  6.355692597260E-01  6.443700889221E-01  6.533578419603E-01  6.625353011633E-01
  6.719051723465E-01  6.814700676171E-01  6.912324859488E-01  7.011947912774E-01
  7.113591878304E-01  7.217276923831E-01  7.323021031025E-01  7.430839646102E-01
  7.540745288685E-01  7.652747114616E-01  7.766850428165E-01  7.883056138799E-01
  8.001360157441E-01  8.121752726943E-01  8.244217681391E-01  8.368731628785E-01
  8.495263051768E-01  8.623771321267E-01  8.754205618390E-01  8.886503760577E-01
  9.020590928993E-01  9.156378295522E-01  9.293761549469E-01  9.432619326435E-01
  9.572811544663E-01  9.714177657792E-01  9.856534837270E-01  9.999676102862E-01
  1.014336842581E+00  1.028735083623E+00  1.043133257437E+00  1.057499133417E+00
  1.071797165762E+00  1.085988354835E+00  1.100030138398E+00  1.113876321742E+00
  1.127477056695E+00  1.140778880417E+00  1.153724825466E+00  1.166254612971E+00
  1.178304940544E+00  1.189809875789E+00  1.200701364738E+00  1.210909862027E+00
  1.220365086129E+00  1.228996898131E+00  1.236736296498E+00  1.243516512806E+00
  1.249274184604E+00  1.253950571475E+00  1.257492769198E+00  1.259854864805E+00
  1.260998962671E+00  1.260895998865E+00  1.259526247973E+00  1.256879413838E+00
  1.252954183005E+00  1.247757106965E+00  1.241300747844E+00  1.233601640754E+00
  1.224679614000E+00  1.214558383075E+00  1.203265314425E+00  1.190831531941E+00
  1.177291892188E+00  1.162684912755E+00  1.147052681762E+00  1.130440722555E+00
  1.112897824648E+00  1.094475836668E+00  1.075229417674E+00  1.055215747057E+00
  1.034494194749E+00  1.013125955465E+00  9.911736532933E-01  9.687009245819E-01
  9.457719871600E-01  9.224512026298E-01  8.988026448354E-01  8.748896839600E-01
  8.507745842978E-01  8.265181258629E-01  8.021792592301E-01  7.778147951976E-01
  7.534791385934E-01  7.292240722132E-01  7.050985983799E-01  6.811488434494E-01
  6.574180149782E-01  6.339463798364E-01  6.107712607792E-01  5.879270569395E-01
  5.654452741006E-01  5.433545639097E-01  5.216807897094E-01  5.004471258361E-01
  4.796741366797E-01  4.593798602691E-01  4.395799051403E-01  4.202875391163E-01
  4.015137895217E-01  3.832675419566E-01  3.655556422853E-01  3.483830001261E-01
  3.317526928379E-01  3.156660712508E-01  3.001228576138E-01  2.851212642459E-01
  2.706581254985E-01  2.567290037759E-01  2.433282872358E-01  2.304492918917E-01
  2.180843531982E-01  2.062249178296E-01  1.948616317632E-01  1.839844232688E-01
  1.735825886142E-01  1.636448701355E-01  1.541595267681E-01  1.451144155086E-01
  1.364970794602E-01  1.282948119429E-01  1.204947163741E-01  1.130837617824E-01
  1.060488341922E-01  9.937678457050E-02  9.305447351097E-02  8.706881282606E-02
  8.140680286980E-02  7.605557118803E-02  7.100240226737E-02  6.623476493606E-02
  6.174034516388E-02  5.750707167014E-02  5.352313578578E-02  4.977700821819E-02
  4.625745307274E-02  4.295353989086E-02  3.985465367380E-02  3.695050280305E-02
  3.423112523964E-02  3.168689305132E-02  2.930851529259E-02  2.708703955621E-02
  2.501385205159E-02  2.308067632579E-02  2.127957107516E-02  1.960292663148E-02
  1.804346037035E-02  1.659421148810E-02  1.524853508326E-02  1.400009553271E-02
  1.284285925622E-02  1.177108711376E-02  1.077932638445E-02  9.862402358901E-03
  9.015409793556E-03  8.233704148206E-03  7.512892594213E-03  6.848824976077E-03
  6.237584690808E-03  5.675479547893E-03  5.159032687591E-03  4.684973596663E-03
  4.250229076717E-03  3.851914484646E-03  3.487325062143E-03  3.153927307791E-03
  2.849350504219E-03  2.571379328128E-03  2.317944780522E-03  2.087117211953E-03
  1.877100306627E-03  1.686222643526E-03  1.512929790071E-03  1.355777671812E-03
  1.213425973045E-03  1.084631649040E-03  9.682436147719E-04  8.631970935454E-04
  7.685074246358E-04  6.832647232598E-04  6.066290376583E-04  5.378256520761E-04
  4.761405225438E-04  4.209161574544E-04  3.715482503812E-04  3.274813050946E-04
  2.882051462094E-04  2.532524601182E-04  2.221958013370E-04  1.946441735808E-04
  1.702407797302E-04  1.486607142979E-04  1.296082453783E-04  1.128148158681E-04
  9.803706762035E-05  8.505469132498E-05  7.366871133542E-05  6.369975524469E-05
  5.498636891044E-05  4.738354757843E-05  4.076127882296E-05  3.500321734760E-05
  3.000545132434E-05  2.567534157051E-05  2.193046429525E-05  1.869762572665E-05
  1.591195441563E-05  1.351606415103E-05  1.145928949380E-05  9.696987677338E-06
  8.189899976761E-06  6.903569420726E-06  5.807813557189E-06  4.876248792846E-06
  4.085859870903E-06  3.416611262445E-06  2.851097502778E-06  2.374229579655E-06
  1.972954434052E-06  1.636004477398E-06  1.353674393150E-06  1.117622769141E-06
  9.206962340477E-07  7.567739172275E-07  6.206302130992E-07  5.078139879368E-07
  4.145425180017E-07  3.376085893727E-07  2.742993295616E-07  2.223254611275E-07
  1.797598013426E-07  1.449839226429E-07  1.166420347839E-07  9.360114459541E-08
  7.491690290597E-08  5.980404387888E-08  4.761145474998E-08  3.780038072452E-08
  2.992698325487E-08  2.362378562799E-08  1.859494776074E-08  1.458922419213E-08
  1.141128273338E-08  8.900752885015E-09  6.923499312644E-09  5.370513459605E-09
  4.154144918231E-09  3.204109869926E-09  2.464206716161E-09  1.889621057224E-09
  1.444720449196E-09  1.101255045701E-09  8.368936402095E-10  6.340360617648E-10
  4.788526032359E-10  3.605094078785E-10  2.705457109331E-10  2.023747074985E-10
  1.508847529767E-10  1.121217351377E-10  8.303690662527E-11  6.128733703393E-11
  4.507852399305E-11  3.304067005550E-11  2.413175274216E-11  1.756184539685E-11
  1.273423475008E-11  9.199768185570E-12  6.621584251687E-12  4.747963115371E-12
  3.391503889426E-12  2.413213537082E-12  1.710394411138E-12  1.207458556460E-12
</data>
</radfunc>
</valence-charge>
<semilocal-potentials set="scalar_relativistic">
<slps n="3" l="s" rc="1.30580963316" flavor="Troullier-Martins">
<radfunc>
<data>
 -2.274771688419E+00 -2.282892280081E+00 -2.306827051125E+00 -2.345719832096E+00
 -2.398520961047E+00 -2.463165320691E+00 -2.537713127219E+00 -2.619045018134E+00
 -2.698254461689E+00 -2.774031454765E+00 -2.838868925033E+00 -2.886850879952E+00
 -2.915419742032E+00 -2.926189082917E+00 -2.918078283745E+00 -2.892385068487E+00
 -2.857563007218E+00 -2.811534205314E+00 -2.756020189092E+00 -2.693301604692E+00
 -2.639657331266E+00 -2.584351780457E+00 -2.528596850040E+00 -2.473437733696E+00
 -2.419715650889E+00 -2.380745700314E+00 -2.343112194800E+00 -2.306937833976E+00
 -2.272292552336E+00 -2.239201967031E+00 -2.207655967034E+00 -2.177616839495E+00
 -2.149026520182E+00 -2.121812716936E+00 -2.095893791456E+00 -2.071182393101E+00
 -2.055334319196E+00 -2.039955365628E+00 -2.025017950574E+00 -2.010494263267E+00
 -1.996356240290E+00 -1.982575505529E+00 -1.969123287625E+00 -1.955970333448E+00
 -1.943086758991E+00 -1.930438860937E+00 -1.917986714263E+00 -1.905709158605E+00
 -1.893580037823E+00 -1.881573522312E+00 -1.869663903962E+00 -1.857825558065E+00
 -1.846032950845E+00 -1.834260690422E+00 -1.822483629324E+00 -1.810677026364E+00
 -1.798816775540E+00 -1.786879709743E+00 -1.774843987295E+00 -1.762689569915E+00
 -1.750398801468E+00 -1.737957098024E+00 -1.725353761051E+00 -1.712582927218E+00
 -1.706134456526E+00 -1.699644669982E+00 -1.693114712755E+00 -1.686546269951E+00
 -1.679941616875E+00 -1.673303672691E+00 -1.666636057615E+00 -1.659943151661E+00
 -1.653230193580E+00 -1.646503123970E+00 -1.639769614543E+00 -1.633035692534E+00
 -1.626308965373E+00 -1.619602160305E+00 -1.612927954194E+00 -1.606299445568E+00
 -1.599731539045E+00 -1.593240677156E+00 -1.586845045852E+00 -1.580564677117E+00
 -1.574421572184E+00 -1.568439828159E+00 -1.562645768792E+00 -1.557068079005E+00
 -1.551737942603E+00 -1.546689182482E+00 -1.541958402481E+00 -1.537585129857E+00
 -1.533611957126E+00 -1.530084681800E+00 -1.527052442274E+00 -1.524567847812E+00
 -1.522687100249E+00 -1.521470104652E+00 -1.520980565761E+00 -1.521286066562E+00
 -1.522458124871E+00 -1.524572223220E+00 -1.527707806105E+00 -1.531948246702E+00
 -1.537380741692E+00 -1.544096140736E+00 -1.552189258235E+00 -1.561754271633E+00
 -1.572895845066E+00 -1.585719002703E+00 -1.600325037732E+00 -1.616821247654E+00
 -1.635314277794E+00 -1.655910739717E+00 -1.678715910921E+00 -1.703832640549E+00
 -1.731360079874E+00 -1.761392289096E+00 -1.794016732955E+00 -1.829312691167E+00
 -1.867349623619E+00 -1.908185547603E+00 -1.951865504787E+00 -1.998420218765E+00
 -2.047865083357E+00 -2.100199473996E+00 -2.155407367359E+00 -2.213455798762E+00
 -2.274299732648E+00 -2.337885631214E+00 -2.404149896522E+00 -2.473026634461E+00
 -2.544450269135E+00 -2.618354752851E+00 -2.694675411031E+00 -2.773340850521E+00
 -2.854259418683E+00 -2.937296211061E+00 -3.022240679433E+00 -3.108766266646E+00
 -3.196386225913E+00 -3.284412415280E+00 -3.371925623200E+00 -3.457765951479E+00
 -3.540549487337E+00 -3.618713301822E+00 -3.690585895586E+00 -3.754476344350E+00
 -3.808773008807E+00 -3.852045153684E+00 -3.883143903162E+00 -3.901293842070E+00
 -3.906184596478E+00 -3.898060996618E+00 -3.877811884890E+00 -3.847068908094E+00
 -3.808297778654E+00 -3.764911909975E+00 -3.720516988240E+00 -3.675866413935E+00
 -3.631055966767E+00 -3.586273069896E+00 -3.541742915272E+00 -3.497713310321E+00
 -3.454395092071E+00 -3.411957199858E+00 -3.370515361186E+00 -3.330124640762E+00
 -3.290781317616E+00 -3.252430769009E+00 -3.214979402527E+00 -3.178307235590E+00
 -3.142281670711E+00 -3.106774742375E+00 -3.071669951090E+00 -3.036869132733E+00
 -3.002297961299E+00 -2.967898954669E+00 -2.933634478521E+00 -2.899489106787E+00
 -2.865461487329E+00 -2.831562018360E+00 -2.797808896751E+00 -2.764226821970E+00
 -2.730840406235E+00 -2.697679286778E+00 -2.664770846005E+00 -2.632134371600E+00
 -2.599792443065E+00 -2.567762378837E+00 -2.536057856868E+00 -2.504685977042E+00
 -2.473657675783E+00 -2.442982172853E+00 -2.412658800111E+00 -2.382688614829E+00
 -2.353072557759E+00 -2.323811828020E+00 -2.294904756330E+00 -2.266349893745E+00
 -2.238145023497E+00 -2.210287642551E+00 -2.182774511251E+00 -2.155603548567E+00
 -2.128770459458E+00 -2.102270200243E+00 -2.076100447585E+00 -2.050257178896E+00
 -2.024736075378E+00 -1.999533287746E+00 -1.974644871823E+00 -1.950066538721E+00
 -1.925794572697E+00 -1.901825919557E+00 -1.878156569562E+00 -1.854782956164E+00
 -1.831701500824E+00 -1.808907305437E+00 -1.786397215612E+00 -1.764168583299E+00
 -1.742217422154E+00 -1.720540581757E+00 -1.699134537057E+00 -1.677995964604E+00
 -1.657121297707E+00 -1.636507122548E+00 -1.616150571550E+00 -1.596048304242E+00
 -1.576197224612E+00 -1.556594043949E+00 -1.537234862704E+00 -1.518116964688E+00
 -1.499237758779E+00 -1.480594160632E+00 -1.462183094579E+00 -1.444001725253E+00
 -1.426047130677E+00 -1.408315710815E+00 -1.390804638695E+00 -1.373511385884E+00
 -1.356433088604E+00 -1.339567128050E+00 -1.322910769411E+00 -1.306461147247E+00
 -1.290215757732E+00 -1.274171787151E+00 -1.258326517481E+00 -1.242678360849E+00
 -1.227225101487E+00 -1.211964037204E+00 -1.196892952346E+00 -1.182009687212E+00
 -1.167312004074E+00 -1.152797524070E+00 -1.138464238628E+00 -1.124309849520E+00
 -1.110331563088E+00 -1.096527300523E+00 -1.082895179392E+00 -1.069433116290E+00
 -1.056139017863E+00 -1.043010829871E+00 -1.030046504567E+00 -1.017244077796E+00
 -1.004601945669E+00 -9.921183001859E-01 -9.797913446594E-01 -9.676193381623E-01
 -9.556003689954E-01 -9.437327697729E-01 -9.320147502549E-01 -9.204452164749E-01
 -9.090220897629E-01 -8.977427236403E-01 -8.866054938822E-01 -8.756085145932E-01
 -8.647502097263E-01 -8.540278617154E-01 -8.434381611316E-01 -8.329801051193E-01
 -8.226524993721E-01 -8.124538127413E-01 -8.023803001147E-01 -7.924288806893E-01
 -7.825999216357E-01 -7.728929915265E-01 -7.633050575472E-01 -7.538583089703E-01
 -7.445140110543E-01 -7.352772193825E-01 -7.261496599370E-01 -7.171325531142E-01
 -7.082260138132E-01 -6.994292120232E-01 -6.907411770003E-01 -6.821607990071E-01
 -6.736868460912E-01 -6.653180761604E-01 -6.570532297520E-01 -6.488910318112E-01
 -6.408302190668E-01 -6.328695378123E-01 -6.250077466963E-01 -6.172436189647E-01
 -6.095759418561E-01 -6.020035174686E-01 -5.945251627452E-01 -5.871397092680E-01
 -5.798460029604E-01 -5.726429039582E-01 -5.655292866169E-01 -5.585040393178E-01
 -5.515660642440E-01 -5.447142772045E-01 -5.379476074751E-01 -5.312649976377E-01
 -5.246654034103E-01 -5.181477934843E-01 -5.117111493648E-01 -5.053544652105E-01
 -4.990767476762E-01 -4.928770157582E-01 -4.867543006405E-01 -4.807076455433E-01
 -4.747361055740E-01 -4.688387475789E-01 -4.630146499975E-01 -4.572629027187E-01
 -4.515826069383E-01 -4.459728750185E-01 -4.404328303492E-01 -4.349616072111E-01
 -4.295583506404E-01 -4.242222162947E-01 -4.189523703216E-01 -4.137479892282E-01
 -4.086082597521E-01 -4.035323787347E-01 -3.985195529954E-01 -3.935689992077E-01
 -3.886799437767E-01 -3.838516227183E-01 -3.790832815397E-01 -3.743741751216E-01
 -3.697235676015E-01 -3.651307322589E-01 -3.605949514016E-01 -3.561155162537E-01
 -3.516917268446E-01 -3.473228918997E-01 -3.430083287323E-01 -3.387473631369E-01
 -3.345393292841E-01 -3.303835696161E-01 -3.262794347441E-01 -3.222262833470E-01
 -3.182234820710E-01 -3.142704054304E-01 -3.103664357102E-01 -3.065109628695E-01
 -3.027033844460E-01 -2.989431054617E-01 -2.952295383305E-01 -2.915621027657E-01
 -2.879402256897E-01 -2.843633411443E-01 -2.808308902024E-01 -2.773423208803E-01
 -2.738970880518E-01 -2.704946533629E-01 -2.671344851474E-01 -2.638160583444E-01
 -2.605388544156E-01 -2.573023612645E-01 -2.541060731566E-01 -2.509494906400E-01
</data>
</radfunc>
</slps>
<slps n="3" l="p" rc="1.85310132603" flavor="Troullier-Martins">
<radfunc>
<data>
 -4.486615506734E+00 -4.494736102014E+00 -4.518670926700E+00 -4.557563940022E+00
 -4.610365703539E+00 -4.675011425713E+00 -4.749561804483E+00 -4.830898165720E+00
 -4.910114471539E+00 -4.985901986297E+00 -5.050754643180E+00 -5.098757185820E+00
 -5.127352177449E+00 -5.138158525470E+00 -5.130091468509E+00 -5.104457143448E+00
 -5.069699432432E+00 -5.023753003075E+00 -4.968344377401E+00 -4.905760558926E+00
 -4.852250609187E+00 -4.797108425609E+00 -4.741552087048E+00 -4.686634249225E+00
 -4.633205127814E+00 -4.594495251136E+00 -4.557162294497E+00 -4.521335099056E+00
 -4.487090632485E+00 -4.454462555720E+00 -4.423449944133E+00 -4.394025559558E+00
 -4.366143260405E+00 -4.339744298793E+00 -4.314762389438E+00 -4.291127542701E+00
 -4.276084260053E+00 -4.261587157364E+00 -4.247615554373E+00 -4.234149079180E+00
 -4.221167671939E+00 -4.208651550730E+00 -4.196581152611E+00 -4.184937067415E+00
 -4.173699904528E+00 -4.162847114487E+00 -4.152350589081E+00 -4.142201640699E+00
 -4.132387223003E+00 -4.122895219703E+00 -4.113714188094E+00 -4.104833247859E+00
 -4.096241989409E+00 -4.087930394461E+00 -4.079888771074E+00 -4.072107704177E+00
 -4.064578021481E+00 -4.057290773701E+00 -4.050237227036E+00 -4.043408865128E+00
 -4.036797397035E+00 -4.030394767395E+00 -4.024193164657E+00 -4.018185023197E+00
 -4.015251201695E+00 -4.012363015131E+00 -4.009519580980E+00 -4.006720027791E+00
 -4.003963493419E+00 -4.001249122880E+00 -3.998576065754E+00 -3.995943470967E+00
 -3.993350517374E+00 -3.990796183936E+00 -3.988280201262E+00 -3.985799593322E+00
 -3.983351814253E+00 -3.980938194768E+00 -3.978558673250E+00 -3.976212163420E+00
 -3.973897828625E+00 -3.971614697636E+00 -3.969361748203E+00 -3.967137881753E+00
 -3.964941912772E+00 -3.962772555735E+00 -3.960628410514E+00 -3.958507946075E+00
 -3.956409482239E+00 -3.954331169251E+00 -3.952270964870E+00 -3.950226608663E+00
 -3.948195593122E+00 -3.946175131199E+00 -3.944162119780E+00 -3.942153098583E+00
 -3.940144203886E+00 -3.938131116440E+00 -3.936109002836E+00 -3.934072449561E+00
 -3.932015388852E+00 -3.929931015463E+00 -3.927811692675E+00 -3.925648854567E+00
 -3.923432868713E+00 -3.921152872119E+00 -3.918797135005E+00 -3.916348564562E+00
 -3.913795996153E+00 -3.911124305986E+00 -3.908310641781E+00 -3.905334573735E+00
 -3.902171960329E+00 -3.898796209325E+00 -3.895177755001E+00 -3.891283891927E+00
 -3.887078600483E+00 -3.882522432719E+00 -3.877572488600E+00 -3.872182526309E+00
 -3.866303263938E+00 -3.859882946488E+00 -3.852868271108E+00 -3.845205784391E+00
 -3.836843901764E+00 -3.827735546723E+00 -3.817842394814E+00 -3.807137244154E+00
 -3.795613070806E+00 -3.783291025465E+00 -3.770223504199E+00 -3.756506682055E+00
 -3.742287958529E+00 -3.727769956948E+00 -3.713216986694E+00 -3.698951235037E+00
 -3.685342978794E+00 -3.672790576629E+00 -3.661690012672E+00 -3.652395088292E+00
 -3.645172037611E+00 -3.640154918978E+00 -3.637309839898E+00 -3.636415980077E+00
 -3.637069016437E+00 -3.638708289905E+00 -3.640664064162E+00 -3.642217278806E+00
 -3.642661724501E+00 -3.641360947082E+00 -3.637795149461E+00 -3.631588091548E+00
 -3.622521818706E+00 -3.610536065365E+00 -3.595710310124E+00 -3.578237311542E+00
 -3.558367573603E+00 -3.536350991861E+00 -3.512423635786E+00 -3.486853575200E+00
 -3.459964249785E+00 -3.432066847152E+00 -3.403449551482E+00 -3.374383647480E+00
 -3.345101452059E+00 -3.315791139276E+00 -3.286584160752E+00 -3.257551231204E+00
 -3.228702538365E+00 -3.199992503523E+00 -3.171330829188E+00 -3.142595506800E+00
 -3.113649023729E+00 -3.084359066867E+00 -3.054611682377E+00 -3.024320812996E+00
 -2.993435461092E+00 -2.961945236942E+00 -2.929881584829E+00 -2.897311307722E+00
 -2.864331899350E+00 -2.831063384229E+00 -2.797637735890E+00 -2.764189116998E+00
 -2.730837637044E+00 -2.697679274907E+00 -2.664770846005E+00 -2.632134371600E+00
 -2.599792443065E+00 -2.567762378837E+00 -2.536057856868E+00 -2.504685977042E+00
 -2.473657675783E+00 -2.442982172853E+00 -2.412658800111E+00 -2.382688614829E+00
 -2.353072557759E+00 -2.323811828020E+00 -2.294904756330E+00 -2.266349893745E+00
 -2.238145023497E+00 -2.210287642551E+00 -2.182774511251E+00 -2.155603548567E+00
 -2.128770459458E+00 -2.102270200243E+00 -2.076100447585E+00 -2.050257178896E+00
 -2.024736075378E+00 -1.999533287746E+00 -1.974644871823E+00 -1.950066538721E+00
 -1.925794572697E+00 -1.901825919557E+00 -1.878156569562E+00 -1.854782956164E+00
 -1.831701500824E+00 -1.808907305437E+00 -1.786397215612E+00 -1.764168583299E+00
 -1.742217422154E+00 -1.720540581757E+00 -1.699134537057E+00 -1.677995964604E+00
 -1.657121297707E+00 -1.636507122548E+00 -1.616150571550E+00 -1.596048304242E+00
 -1.576197224612E+00 -1.556594043949E+00 -1.537234862704E+00 -1.518116964688E+00
 -1.499237758779E+00 -1.480594160632E+00 -1.462183094579E+00 -1.444001725253E+00
 -1.426047130677E+00 -1.408315710815E+00 -1.390804638695E+00 -1.373511385884E+00
 -1.356433088604E+00 -1.339567128050E+00 -1.322910769411E+00 -1.306461147247E+00
 -1.290215757732E+00 -1.274171787151E+00 -1.258326517481E+00 -1.242678360849E+00
 -1.227225101487E+00 -1.211964037204E+00 -1.196892952346E+00 -1.182009687212E+00
 -1.167312004074E+00 -1.152797524070E+00 -1.138464238628E+00 -1.124309849520E+00