Siesta Version  : v4.1.5-1-g384057250
Architecture    : gcc
Compiler version: GNU Fortran (Ubuntu 11.3.0-1ubuntu1~22.04) 11.3.0
Compiler flags  : mpifort -O2 -fPIC -ftree-vectorize -fallow-argument-mismatch
PP flags        : -DFC_HAVE_ABORT -DMPI -DSIESTA__FLOOK -DSIESTA__METIS -DSIESTA__MUMPS -DCDF -DNCDF -DNCDF_4 -DNCDF_PARALLEL -DSIESTA__MRRR -DSIESTA__ELPA
Libraries       : libncdf.a libfdict.a  -lflookall -ldl -lnetcdff -lnetcdf -lhdf5_hl -lhdf5 -lhdf5_fortran -lz -lscalapack-openmpi -lopenblas -lmetis -lzmumps -lcmumps -ldmumps -lmumps_common -lpord -lsmumps -lesmumps -lscotch -lscotcherr -fopenmp -lelpa
PARALLEL version
NetCDF support
NetCDF-4 support
NetCDF-4 MPI-IO support
METIS ordering support
Lua support

* Running on 4 nodes in parallel
>> Start of run:  22-MAY-2023  17:10:21

                           ***********************       
                           *  WELCOME TO SIESTA  *       
                           ***********************       

reinit: Reading from standard input
reinit: Dumped input in INPUT_TMP.74571
************************** Dump of input data file ****************************
SystemLabel      GC
NumberOfAtoms    29
NumberOfSpecies  4
%block ChemicalSpeciesLabel
    1    8  O
    2    7  N
    3   14  Si
    4    1  H
%endblock ChemicalSpeciesLabel
# Single point calculation
MD.TypeOfRun                CG
MD.Steps                    0
SCF.MustConverge            F # In case it does not. There can be 2 very close atoms
AtomicCoordinatesFormat NotScaledCartesianAng
%block AtomicCoordinatesAndAtomicSpecies
0.854927710    3.902811360    0.000000000       1
-3.151486600   0.823854130    0.000000000       2
1.928518680    1.174000900    0.000000000       2
0.979899500    -1.830275890   0.000000000       2
-2.159258930   -2.028004800   0.000000000       2
3.785319770    -1.112700660   0.000000000       2
-1.345933810   0.976250250    0.000000000       3
-0.599439880   -1.096077170   0.000000000       3
0.453182890    2.350510230    0.000000000       3
2.133302030    -0.576510800   0.000000000       3
-3.516065660   -0.842056510   0.000000000       3
2.824527830    1.754723110    0.000000000       4
-4.877551690   -1.469214660   0.000000000       4
3.994952020    -2.143204000   0.000000000       4
4.620903610    -0.483666060   0.000000000       4
-2.279085180   -3.081514090   0.000000000       4
5.204700419    5.293737467    -0.000000000      3
7.073659909    6.553381097    -0.000000000      3
6.614727529    2.551999247    -0.000000000      3
8.682320249    5.058590467    -0.000000000      3
5.264230369    3.608785007    -0.000000000      2
3.574701219    5.923797697    -0.000000000      2
8.258616399    3.343089657    -0.000000000      2
7.354023609    8.023603617    -0.000000000      4
10.177731629   5.277443007    -0.000000000      4
3.330242229    6.942263647    -0.000000000      4
2.747960039    5.266949567    -0.000000000      4
6.674003289    0.969557217    -0.000000000      1
9.030271989    2.616122297    -0.000000000      4
%endblock AtomicCoordinatesAndAtomicSpecies
%include ../../../Defaults.fdf
************************** End of input data file *****************************

reinit: -----------------------------------------------------------------------
reinit: System Name: 
reinit: -----------------------------------------------------------------------
reinit: System Label: GC
reinit: -----------------------------------------------------------------------

initatom: Reading input for the pseudopotentials and atomic orbitals ----------
Species number:   1 Atomic number:    8 Label: O
Species number:   2 Atomic number:    7 Label: N
Species number:   3 Atomic number:   14 Label: Si
Species number:   4 Atomic number:    1 Label: H

Ground state valence configuration:   2s02  2p04
Reading pseudopotential information in formatted form from O.psf

Pseudopotential generated from a relativistic atomic calculation

Valence configuration for pseudopotential generation:
2s( 2.00) rc: 0.45
2p( 4.00) rc: 0.92
3d( 0.00) rc: 2.24
4f( 0.00) rc: 0.25
Ground state valence configuration:   2s02  2p03
Reading pseudopotential information in formatted form from N.psf

Pseudopotential generated from a relativistic atomic calculation

Valence configuration for pseudopotential generation:
2s( 2.00) rc: 0.94
2p( 3.00) rc: 0.59
3d( 0.00) rc: 3.46
4f( 0.00) rc: 2.47
Ground state valence configuration:   3s02  3p02
Reading pseudopotential information in formatted form from Si.psf

Pseudopotential generated from a relativistic atomic calculation

Valence configuration for pseudopotential generation:
3s( 2.00) rc: 1.67
3p( 2.00) rc: 2.04
3d( 0.00) rc: 2.89
4f( 0.00) rc: 2.49
Ground state valence configuration:   1s01
Reading pseudopotential information in formatted form from H.psf

Pseudopotential generated from a relativistic atomic calculation

Valence configuration for pseudopotential generation:
1s( 1.00) rc: 0.01
2p( 0.00) rc: 0.60
3d( 0.00) rc: 1.99
4f( 0.00) rc: 2.49
For O, standard SIESTA heuristics set lmxkb to 3
 (one more than the basis l, including polarization orbitals).
Use PS.lmax or PS.KBprojectors blocks to override.
For N, standard SIESTA heuristics set lmxkb to 3
 (one more than the basis l, including polarization orbitals).
Use PS.lmax or PS.KBprojectors blocks to override.
For Si, standard SIESTA heuristics set lmxkb to 3
 (one more than the basis l, including polarization orbitals).
Use PS.lmax or PS.KBprojectors blocks to override.
For H, standard SIESTA heuristics set lmxkb to 2
 (one more than the basis l, including polarization orbitals).
Use PS.lmax or PS.KBprojectors blocks to override.

<basis_specs>
===============================================================================
O                    Z=   8    Mass=  16.000        Charge= 0.17977+309
Lmxo=1 Lmxkb= 3    BasisType=split      Semic=F
L=0  Nsemic=0  Cnfigmx=2
          i=1  nzeta=2  polorb=0  (2s)
            splnorm:   0.28000    
               vcte:    0.0000    
               rinn:    0.0000    
               qcoe:    0.0000    
               qyuk:    0.0000    
               qwid:   0.10000E-01
                rcs:    0.0000      0.0000    
            lambdas:    1.0000      1.0000    
L=1  Nsemic=0  Cnfigmx=2
          i=1  nzeta=2  polorb=1  (2p)
            splnorm:   0.28000    
               vcte:    0.0000    
               rinn:    0.0000    
               qcoe:    0.0000    
               qyuk:    0.0000    
               qwid:   0.10000E-01
                rcs:    0.0000      0.0000    
            lambdas:    1.0000      1.0000    
-------------------------------------------------------------------------------
L=0  Nkbl=1  erefs: 0.17977+309
L=1  Nkbl=1  erefs: 0.17977+309
L=2  Nkbl=1  erefs: 0.17977+309
L=3  Nkbl=1  erefs: 0.17977+309
===============================================================================
</basis_specs>

atom: Called for O                     (Z =   8)

read_vps: Pseudopotential generation method:
read_vps: ATM4.2.7  Troullier-Martins                       
Valence charge for ps generation:    6.00000

xc_check: Exchange-correlation functional:
xc_check: GGA Perdew, Burke & Ernzerhof 1996
V l=0 = -2*Zval/r beyond r=  1.1000
V l=1 = -2*Zval/r beyond r=  1.1000
V l=2 = -2*Zval/r beyond r=  2.2154
V l=3 = -2*Zval/r beyond r=  1.1000
All V_l potentials equal beyond r=  2.2154
This should be close to max(r_c) in ps generation
All pots = -2*Zval/r beyond r=  2.2154

VLOCAL1: 99.0% of the norm of Vloc inside      8.845 Ry
VLOCAL1: 99.9% of the norm of Vloc inside     20.157 Ry
atom: Maximum radius for 4*pi*r*r*local-pseudopot. charge    2.67231
atom: Maximum radius for r*vlocal+2*Zval:    2.32897
GHOST: No ghost state for L =  0
GHOST: No ghost state for L =  1
GHOST: No ghost state for L =  2
GHOST: No ghost state for L =  3

KBgen: Kleinman-Bylander projectors: 
   l= 0   rc=  2.243238   el= -1.759686   Ekb=**********   kbcos= -0.171774
   l= 1   rc=  2.328968   el= -0.663873   Ekb=-14.506792   kbcos= -0.519897
   l= 2   rc=  2.573941   el=  0.002031   Ekb= -1.137373   kbcos= -0.019581
   l= 3   rc=  2.606321   el=  0.003153   Ekb= -1.013546   kbcos= -0.003122

KBgen: Total number of Kleinman-Bylander projectors:   16
atom: -------------------------------------------------------------------------

atom: SANKEY-TYPE ORBITALS:
atom: Selected multiple-zeta basis: split     

SPLIT: Orbitals with angular momentum L= 0

SPLIT: Basis orbitals for state 2s

SPLIT: PAO cut-off radius determined from an
SPLIT: energy shift=  0.002000 Ry

   izeta = 1
                 lambda =    1.000000
                     rc =    4.243912
                 energy =   -1.758270
                kinetic =    3.286084
    potential(screened) =   -5.044353
       potential(ionic) =  -12.921184

   izeta = 2
                 rmatch =    2.187845
              splitnorm =    0.280000
                 energy =   -0.885018
                kinetic =    8.134434
    potential(screened) =   -9.019452
       potential(ionic) =  -17.710645

SPLIT: Orbitals with angular momentum L= 1

SPLIT: Basis orbitals for state 2p

SPLIT: PAO cut-off radius determined from an
SPLIT: energy shift=  0.002000 Ry

   izeta = 1
                 lambda =    1.000000
                     rc =    5.314825
                 energy =   -0.661986
                kinetic =    4.917472
    potential(screened) =   -5.579458
       potential(ionic) =  -13.236259

   izeta = 2
                 rmatch =    2.160663
              splitnorm =    0.280000
                 energy =   -0.068760
                kinetic =    9.183374
    potential(screened) =   -9.252135
       potential(ionic) =  -18.274251

POLgen: Perturbative polarization orbital with L=  2

POLgen: Polarization orbital for state 2p

   izeta = 1
                     rc =    5.314825
                 energy =    1.970580
                kinetic =    3.886128
    potential(screened) =   -1.915547
       potential(ionic) =   -7.749584
atom: Total number of Sankey-type orbitals: 13

atm_pop: Valence configuration (for local Pseudopot. screening):
 2s( 2.00)                                                            
 2p( 4.00)                                                            
Vna: chval, zval:    6.00000   6.00000

Vna:  Cut-off radius for the neutral-atom potential:   5.314825

atom: _________________________________________________________________________

<basis_specs>
===============================================================================
N                    Z=   7    Mass=  14.010        Charge= 0.17977+309
Lmxo=1 Lmxkb= 3    BasisType=split      Semic=F
L=0  Nsemic=0  Cnfigmx=2
          i=1  nzeta=2  polorb=0  (2s)
            splnorm:   0.28000    
               vcte:    0.0000    
               rinn:    0.0000    
               qcoe:    0.0000    
               qyuk:    0.0000    
               qwid:   0.10000E-01
                rcs:    0.0000      0.0000    
            lambdas:    1.0000      1.0000    
L=1  Nsemic=0  Cnfigmx=2
          i=1  nzeta=2  polorb=1  (2p)
            splnorm:   0.28000    
               vcte:    0.0000    
               rinn:    0.0000    
               qcoe:    0.0000    
               qyuk:    0.0000    
               qwid:   0.10000E-01
                rcs:    0.0000      0.0000    
            lambdas:    1.0000      1.0000    
-------------------------------------------------------------------------------
L=0  Nkbl=1  erefs: 0.17977+309
L=1  Nkbl=1  erefs: 0.17977+309
L=2  Nkbl=1  erefs: 0.17977+309
L=3  Nkbl=1  erefs: 0.17977+309
===============================================================================
</basis_specs>

atom: Called for N                     (Z =   7)

read_vps: Pseudopotential generation method:
read_vps: ATM4.2.7  Troullier-Martins                       
Valence charge for ps generation:    5.00000

xc_check: Exchange-correlation functional:
xc_check: GGA Perdew, Burke & Ernzerhof 1996
V l=0 = -2*Zval/r beyond r=  1.2889
V l=1 = -2*Zval/r beyond r=  1.2889
V l=2 = -2*Zval/r beyond r=  3.4178
V l=3 = -2*Zval/r beyond r=  2.4084
All V_l potentials equal beyond r=  3.3753
This should be close to max(r_c) in ps generation
All pots = -2*Zval/r beyond r=  3.4178

VLOCAL1: 99.0% of the norm of Vloc inside      3.810 Ry
VLOCAL1: 99.9% of the norm of Vloc inside      8.683 Ry
atom: Maximum radius for 4*pi*r*r*local-pseudopot. charge    4.02088
atom: Maximum radius for r*vlocal+2*Zval:    3.54838
GHOST: No ghost state for L =  0
GHOST: No ghost state for L =  1
GHOST: No ghost state for L =  2
GHOST: No ghost state for L =  3

KBgen: Kleinman-Bylander projectors: 
   l= 0   rc=  3.417763   el= -1.365098   Ekb= -4.433130   kbcos= -0.707855
   l= 1   rc=  3.375302   el= -0.521201   Ekb=-13.264039   kbcos= -0.535594
   l= 2   rc=  3.872880   el=  0.001991   Ekb= -0.641094   kbcos= -0.062456
   l= 3   rc=  3.970931   el=  0.003093   Ekb= -0.474517   kbcos= -0.018236

KBgen: Total number of Kleinman-Bylander projectors:   16
atom: -------------------------------------------------------------------------

atom: SANKEY-TYPE ORBITALS:
atom: Selected multiple-zeta basis: split     

SPLIT: Orbitals with angular momentum L= 0

SPLIT: Basis orbitals for state 2s

SPLIT: PAO cut-off radius determined from an
SPLIT: energy shift=  0.002000 Ry

   izeta = 1
                 lambda =    1.000000
                     rc =    4.730425
                 energy =   -1.363399
                kinetic =    1.245246
    potential(screened) =   -2.608645
       potential(ionic) =   -8.121105

   izeta = 2
                 rmatch =    2.531849
              splitnorm =    0.280000
                 energy =   -0.959908
                kinetic =    2.409435
    potential(screened) =   -3.369343
       potential(ionic) =   -9.427975

SPLIT: Orbitals with angular momentum L= 1

SPLIT: Basis orbitals for state 2p

SPLIT: PAO cut-off radius determined from an
SPLIT: energy shift=  0.002000 Ry

   izeta = 1
                 lambda =    1.000000
                     rc =    5.924108
                 energy =   -0.519262
                kinetic =    3.672940
    potential(screened) =   -4.192202
       potential(ionic) =   -9.518354

   izeta = 2
                 rmatch =    2.531849
              splitnorm =    0.280000
                 energy =   -0.104258
                kinetic =    6.807538
    potential(screened) =   -6.911796
       potential(ionic) =  -13.149920

POLgen: Perturbative polarization orbital with L=  2

POLgen: Polarization orbital for state 2p

   izeta = 1
                     rc =    5.924108
                 energy =    1.427508
                kinetic =    2.872379
    potential(screened) =   -1.444871
       potential(ionic) =   -5.563644
atom: Total number of Sankey-type orbitals: 13

atm_pop: Valence configuration (for local Pseudopot. screening):
 2s( 2.00)                                                            
 2p( 3.00)                                                            
Vna: chval, zval:    5.00000   5.00000

Vna:  Cut-off radius for the neutral-atom potential:   5.924108

atom: _________________________________________________________________________

<basis_specs>
===============================================================================
Si                   Z=  14    Mass=  28.090        Charge= 0.17977+309
Lmxo=1 Lmxkb= 3    BasisType=split      Semic=F
L=0  Nsemic=0  Cnfigmx=3
          i=1  nzeta=2  polorb=0  (3s)
            splnorm:   0.28000    
               vcte:    0.0000    
               rinn:    0.0000    
               qcoe:    0.0000    
               qyuk:    0.0000    
               qwid:   0.10000E-01
                rcs:    0.0000      0.0000    
            lambdas:    1.0000      1.0000    
L=1  Nsemic=0  Cnfigmx=3
          i=1  nzeta=2  polorb=1  (3p)
            splnorm:   0.28000    
               vcte:    0.0000    
               rinn:    0.0000    
               qcoe:    0.0000    
               qyuk:    0.0000    
               qwid:   0.10000E-01
                rcs:    0.0000      0.0000    
            lambdas:    1.0000      1.0000    
-------------------------------------------------------------------------------
L=0  Nkbl=1  erefs: 0.17977+309
L=1  Nkbl=1  erefs: 0.17977+309
L=2  Nkbl=1  erefs: 0.17977+309
L=3  Nkbl=1  erefs: 0.17977+309
===============================================================================
</basis_specs>

atom: Called for Si                    (Z =  14)

read_vps: Pseudopotential generation method:
read_vps: ATM4.2.7  Troullier-Martins                       
Valence charge for ps generation:    4.00000

xc_check: Exchange-correlation functional:
xc_check: GGA Perdew, Burke & Ernzerhof 1996
V l=0 = -2*Zval/r beyond r=  2.7826
V l=1 = -2*Zval/r beyond r=  2.7826
V l=2 = -2*Zval/r beyond r=  2.9253
V l=3 = -2*Zval/r beyond r=  2.7826
All V_l potentials equal beyond r=  2.8530
This should be close to max(r_c) in ps generation
All pots = -2*Zval/r beyond r=  2.9253

VLOCAL1: 99.0% of the norm of Vloc inside      5.333 Ry
VLOCAL1: 99.9% of the norm of Vloc inside     12.154 Ry
atom: Maximum radius for 4*pi*r*r*local-pseudopot. charge    3.39869
atom: Maximum radius for r*vlocal+2*Zval:    2.96205
GHOST: No ghost state for L =  0
GHOST: No ghost state for L =  1
GHOST: No ghost state for L =  2
GHOST: No ghost state for L =  3

KBgen: Kleinman-Bylander projectors: 
   l= 0   rc=  3.075247   el= -0.794092   Ekb=  5.879390   kbcos=  0.167461
   l= 1   rc=  3.153101   el= -0.300068   Ekb=  2.642817   kbcos=  0.058301
   l= 2   rc=  3.273594   el=  0.001958   Ekb= -1.185135   kbcos= -0.104411
   l= 3   rc=  3.232927   el=  0.003046   Ekb= -0.497174   kbcos= -0.015889

KBgen: Total number of Kleinman-Bylander projectors:   16
atom: -------------------------------------------------------------------------

atom: SANKEY-TYPE ORBITALS:
atom: Selected multiple-zeta basis: split     

SPLIT: Orbitals with angular momentum L= 0

SPLIT: Basis orbitals for state 3s

SPLIT: PAO cut-off radius determined from an
SPLIT: energy shift=  0.002000 Ry

   izeta = 1
                 lambda =    1.000000
                     rc =    6.429618
                 energy =   -0.792283
                kinetic =    0.525293
    potential(screened) =   -1.317576
       potential(ionic) =   -3.744923

   izeta = 2
                 rmatch =    3.998416
              splitnorm =    0.280000
                 energy =   -0.583081
                kinetic =    1.069570
    potential(screened) =   -1.652651
       potential(ionic) =   -4.235185

SPLIT: Orbitals with angular momentum L= 1

SPLIT: Basis orbitals for state 3p

SPLIT: PAO cut-off radius determined from an
SPLIT: energy shift=  0.002000 Ry

   izeta = 1
                 lambda =    1.000000
                     rc =    8.464845
                 energy =   -0.298236
                kinetic =    0.785360
    potential(screened) =   -1.083596
       potential(ionic) =   -3.273779

   izeta = 2
                 rmatch =    4.587816
              splitnorm =    0.280000
                 energy =   -0.131871
                kinetic =    1.403687
    potential(screened) =   -1.535557
       potential(ionic) =   -4.015310

POLgen: Perturbative polarization orbital with L=  2

POLgen: Polarization orbital for state 3p

   izeta = 1
                     rc =    8.464845
                 energy =    0.321949
                kinetic =    1.055677
    potential(screened) =   -0.733728
       potential(ionic) =   -2.672950
atom: Total number of Sankey-type orbitals: 13

atm_pop: Valence configuration (for local Pseudopot. screening):
 3s( 2.00)                                                            
 3p( 2.00)                                                            
Vna: chval, zval:    4.00000   4.00000

Vna:  Cut-off radius for the neutral-atom potential:   8.464845

atom: _________________________________________________________________________

<basis_specs>
===============================================================================
H                    Z=   1    Mass=  1.0100        Charge= 0.17977+309
Lmxo=0 Lmxkb= 2    BasisType=split      Semic=F
L=0  Nsemic=0  Cnfigmx=1
          i=1  nzeta=2  polorb=1  (1s)
            splnorm:   0.62000    
               vcte:    0.0000    
               rinn:    0.0000    
               qcoe:    0.0000    
               qyuk:    0.0000    
               qwid:   0.10000E-01
                rcs:    0.0000      0.0000    
            lambdas:    1.0000      1.0000    
-------------------------------------------------------------------------------
L=0  Nkbl=1  erefs: 0.17977+309
L=1  Nkbl=1  erefs: 0.17977+309
L=2  Nkbl=1  erefs: 0.17977+309
===============================================================================
</basis_specs>

atom: Called for H                     (Z =   1)

read_vps: Pseudopotential generation method:
read_vps: ATM4.2.7  Troullier-Martins                       
Valence charge for ps generation:    1.00000

xc_check: Exchange-correlation functional:
xc_check: GGA Perdew, Burke & Ernzerhof 1996
V l=0 = -2*Zval/r beyond r=  0.0098
V l=1 = -2*Zval/r beyond r=  0.5817
V l=2 = -2*Zval/r beyond r=  1.9372
All V_l potentials equal beyond r=  1.9372
This should be close to max(r_c) in ps generation
All pots = -2*Zval/r beyond r=  1.9372

VLOCAL1: 99.0% of the norm of Vloc inside     11.567 Ry
VLOCAL1: 99.9% of the norm of Vloc inside     26.362 Ry
atom: Maximum radius for 4*pi*r*r*local-pseudopot. charge    2.25106
atom: Maximum radius for r*vlocal+2*Zval:    1.91306
GHOST: No ghost state for L =  0
GHOST: No ghost state for L =  1
GHOST: No ghost state for L =  2

KBgen: Kleinman-Bylander projectors: 
   l= 0   rc=  2.036604   el= -0.477180   Ekb= -6.081590   kbcos= -0.277285
   l= 1   rc=  2.195416   el=  0.001076   Ekb= -0.926943   kbcos= -0.034643
   l= 2   rc=  2.251056   el=  0.002010   Ekb= -0.130941   kbcos= -0.009788

KBgen: Total number of Kleinman-Bylander projectors:    9
atom: -------------------------------------------------------------------------

atom: SANKEY-TYPE ORBITALS:
atom: Selected multiple-zeta basis: split     

SPLIT: Orbitals with angular momentum L= 0

SPLIT: Basis orbitals for state 1s

SPLIT: PAO cut-off radius determined from an
SPLIT: energy shift=  0.002000 Ry

   izeta = 1
                 lambda =    1.000000
                     rc =    6.518340
                 energy =   -0.475305
                kinetic =    0.912139
    potential(screened) =   -1.387444
       potential(ionic) =   -1.907295

   izeta = 2
                 rmatch =    2.141150
              splitnorm =    0.620000
                 energy =    0.566467
                kinetic =    3.772856
    potential(screened) =   -3.206389
       potential(ionic) =   -3.759093

POLgen: Perturbative polarization orbital with L=  1

POLgen: Polarization orbital for state 1s

   izeta = 1
                     rc =    6.518340
                 energy =    0.533861
                kinetic =    1.121086
    potential(screened) =   -0.587225
       potential(ionic) =   -1.053027
atom: Total number of Sankey-type orbitals:  5

atm_pop: Valence configuration (for local Pseudopot. screening):
 1s( 1.00)                                                            
Vna: chval, zval:    1.00000   1.00000

Vna:  Cut-off radius for the neutral-atom potential:   6.518340

atom: _________________________________________________________________________

prinput: Basis input ----------------------------------------------------------

PAO.BasisType split     

%block ChemicalSpeciesLabel
    1    8 O                       # Species index, atomic number, species label
    2    7 N                       # Species index, atomic number, species label
    3   14 Si                      # Species index, atomic number, species label
    4    1 H                       # Species index, atomic number, species label
%endblock ChemicalSpeciesLabel

%block PAO.Basis                 # Define Basis set
O                     2                    # Species label, number of l-shells
 n=2   0   2                         # n, l, Nzeta 
   4.244      2.188   
   1.000      1.000   
 n=2   1   2 P   1                   # n, l, Nzeta, Polarization, NzetaPol
   5.315      2.161   
   1.000      1.000   
N                     2                    # Species label, number of l-shells
 n=2   0   2                         # n, l, Nzeta 
   4.730      2.532   
   1.000      1.000   
 n=2   1   2 P   1                   # n, l, Nzeta, Polarization, NzetaPol
   5.924      2.532   
   1.000      1.000   
Si                    2                    # Species label, number of l-shells
 n=3   0   2                         # n, l, Nzeta 
   6.430      3.998   
   1.000      1.000   
 n=3   1   2 P   1                   # n, l, Nzeta, Polarization, NzetaPol
   8.465      4.588   
   1.000      1.000   
H                     1                    # Species label, number of l-shells
 n=1   0   2 P   1                   # n, l, Nzeta, Polarization, NzetaPol
   6.518      2.141   
   1.000      1.000   
%endblock PAO.Basis

prinput: ----------------------------------------------------------------------

Dumping basis to NetCDF file O.ion.nc
Dumping basis to NetCDF file N.ion.nc
Dumping basis to NetCDF file Si.ion.nc
Dumping basis to NetCDF file H.ion.nc
coor:   Atomic-coordinates input format  =     Cartesian coordinates
coor:                                          (in Angstroms)

siesta: Atomic coordinates (Bohr) and species
siesta:      1.61558   7.37525   0.00000  1        1
siesta:     -5.95545   1.55686   0.00000  2        2
siesta:      3.64437   2.21854   0.00000  2        3
siesta:      1.85174  -3.45872   0.00000  2        4
siesta:     -4.08041  -3.83238   0.00000  2        5
siesta:      7.15322  -2.10270   0.00000  2        6
siesta:     -2.54345   1.84485   0.00000  3        7
siesta:     -1.13278  -2.07129   0.00000  3        8
siesta:      0.85639   4.44182   0.00000  3        9
siesta:      4.03136  -1.08945   0.00000  3       10
siesta:     -6.64440  -1.59126   0.00000  3       11
siesta:      5.33759   3.31595   0.00000  4       12
siesta:     -9.21724  -2.77641   0.00000  4       13
siesta:      7.54937  -4.05007   0.00000  4       14
siesta:      8.73225  -0.91400   0.00000  4       15
siesta:     -4.30685  -5.82322   0.00000  4       16
siesta:      9.83546  10.00372  -0.00000  3       17
siesta:     13.36729  12.38410  -0.00000  3       18
siesta:     12.50003   4.82258  -0.00000  3       19
siesta:     16.40721   9.55935  -0.00000  3       20
siesta:      9.94796   6.81962  -0.00000  2       21
siesta:      6.75521  11.19436  -0.00000  2       22
siesta:     15.60653   6.31753  -0.00000  2       23
siesta:     13.89710  15.16242  -0.00000  4       24
siesta:     19.23313   9.97293  -0.00000  4       25
siesta:      6.29325  13.11898  -0.00000  4       26
siesta:      5.19289   9.95310  -0.00000  4       27
siesta:     12.61204   1.83220  -0.00000  1       28
siesta:     17.06475   4.94376  -0.00000  4       29

siesta: Automatic unit cell vectors (Ang):
siesta:   24.149394    0.000000    0.000000
siesta:    0.000000   19.804212    0.000000
siesta:    0.000000    0.000000    9.854683

siesta: System type = molecule  

initatomlists: Number of atoms, orbitals, and projectors:     29   297   394

siesta: ******************** Simulation parameters ****************************
siesta:
siesta: The following are some of the parameters of the simulation.
siesta: A complete list of the parameters used, including default values,
siesta: can be found in file out.fdf
siesta:
redata: Spin configuration                          = spin-orbit
redata: Number of spin components                   = 8
redata: Time-Reversal Symmetry                      = F
redata: Spin spiral                                 = F
############################################################
This spin-orbit implementation uses a local approximation.
From 4.2 and onwards the full non-local approximation is implemented
You are strongly advised to use >=4.2 versions!
############################################################
redata: Long output                                 =   F
redata: Number of Atomic Species                    =        4
redata: Charge density info will appear in .RHO file
redata: Write Mulliken Pop.                         = Atomic and Orbital charges
redata: Matel table size (NRTAB)                    =     1024
redata: Mesh Cutoff                                 =   340.0000 Ry
redata: Net charge of the system                    =     0.0000 |e|
redata: Min. number of SCF Iter                     =        1
redata: Max. number of SCF Iter                     =      200
redata: SCF mix quantity                            = Hamiltonian
redata: Mix DM or H after convergence               =   F
redata: Recompute H after scf cycle                 =   F
redata: Mix DM in first SCF step                    =   T
redata: Write Pulay info on disk                    =   F
redata: New DM Occupancy tolerance                  = 0.000000000001
redata: No kicks to SCF
redata: DM Mixing Weight for Kicks                  =     0.5000
redata: Require Harris convergence for SCF          =   F
redata: Harris energy tolerance for SCF             =     0.000100 eV
redata: Require DM convergence for SCF              =   T
redata: DM tolerance for SCF                        =     0.000008
redata: Require EDM convergence for SCF             =   F
redata: EDM tolerance for SCF                       =     0.001000 eV
redata: Require H convergence for SCF               =   T
redata: Hamiltonian tolerance for SCF               =     0.000001 eV
redata: Require (free) Energy convergence for SCF   =   F
redata: (free) Energy tolerance for SCF             =     0.000100 eV
redata: Using Saved Data (generic)                  =   F
redata: Use continuation files for DM               =   F
redata: Neglect nonoverlap interactions             =   F
redata: Method of Calculation                       = Diagonalization
redata: Electronic Temperature                      =   299.9978 K
redata: Fix the spin of the system                  =   F
redata: Dynamics option                             = Single-point calculation
mix.SCF: Pulay mixing                            = Pulay
mix.SCF:    Variant                              = stable
mix.SCF:    History steps                        = 6
mix.SCF:    Linear mixing weight                 =     0.250000
mix.SCF:    Mixing weight                        =     0.250000
mix.SCF:    SVD condition                        = 0.1000E-07
mix.SCF:    Restart steps                        = 24
mix.SCF:    Restart save steps                   = 3
mix.SCF: Spin-component mixing                   all
redata: Save all siesta data in one NC              =   F
redata: ***********************************************************************

%block SCF.Mixers
  Pulay
%endblock SCF.Mixers

%block SCF.Mixer.Pulay
  # Mixing method
  method pulay
  variant stable

  # Mixing options
  weight 0.2500
  weight.linear 0.2500
  history 6
  restart 24
  restart.save 3
%endblock SCF.Mixer.Pulay

DM_history_depth set to one: no extrapolation allowed by default for geometry relaxation
Size of DM history Fstack: 1
Total number of electrons:    98.000000
Total ionic charge:    98.000000

* ProcessorY, Blocksize:    2  24


* Orbital distribution balance (max,min):    81    72


Time-reversal symmetry not used.

siesta: k-grid: Number of k-points =     1
siesta: k-grid: Cutoff (effective) =     4.927 Ang
siesta: k-grid: Supercell and displacements
siesta: k-grid:    1   0   0      0.000
siesta: k-grid:    0   1   0      0.000
siesta: k-grid:    0   0   1      0.000

diag: Algorithm                                     = ELPA-1stage
diag: Parallel over k                               =   F
diag: Use parallel 2D distribution                  =   T
diag: Parallel block-size                           = 24
diag: Parallel distribution                         =     2 x     2
diag: Used triangular part                          = Lower
diag: Absolute tolerance                            =  0.100E-15
diag: Orthogonalization factor                      =  0.100E-05
diag: Memory factor                                 =  1.0000


ts: **************************************************************
ts: Save H and S matrices                           =    F
ts: Save DM and EDM matrices                        =    F
ts: Only save the overlap matrix S                  =    F
ts: **************************************************************

************************ Begin: TS CHECKS AND WARNINGS ************************
************************ End: TS CHECKS AND WARNINGS **************************


                     ====================================
                        Single-point calculation
                     ====================================

outcoor: Atomic coordinates (Ang):                          
    0.85492771    3.90281136    0.00000000   1       1  O
   -3.15148660    0.82385413    0.00000000   2       2  N
    1.92851868    1.17400090    0.00000000   2       3  N
    0.97989950   -1.83027589    0.00000000   2       4  N
   -2.15925893   -2.02800480    0.00000000   2       5  N
    3.78531977   -1.11270066    0.00000000   2       6  N
   -1.34593381    0.97625025    0.00000000   3       7  Si
   -0.59943988   -1.09607717    0.00000000   3       8  Si
    0.45318289    2.35051023    0.00000000   3       9  Si
    2.13330203   -0.57651080    0.00000000   3      10  Si
   -3.51606566   -0.84205651    0.00000000   3      11  Si
    2.82452783    1.75472311    0.00000000   4      12  H
   -4.87755169   -1.46921466    0.00000000   4      13  H
    3.99495202   -2.14320400    0.00000000   4      14  H
    4.62090361   -0.48366606    0.00000000   4      15  H
   -2.27908518   -3.08151409    0.00000000   4      16  H
    5.20470042    5.29373747    0.00000000   3      17  Si
    7.07365991    6.55338110    0.00000000   3      18  Si
    6.61472753    2.55199925    0.00000000   3      19  Si
    8.68232025    5.05859047    0.00000000   3      20  Si
    5.26423037    3.60878501    0.00000000   2      21  N
    3.57470122    5.92379770    0.00000000   2      22  N
    8.25861640    3.34308966    0.00000000   2      23  N
    7.35402361    8.02360362    0.00000000   4      24  H
   10.17773163    5.27744301    0.00000000   4      25  H
    3.33024223    6.94226365    0.00000000   4      26  H
    2.74796004    5.26694957    0.00000000   4      27  H
    6.67400329    0.96955722    0.00000000   1      28  O
    9.03027199    2.61612230    0.00000000   4      29  H

outcell: Unit cell vectors (Ang):
       24.149394    0.000000    0.000000
        0.000000   19.804212    0.000000
        0.000000    0.000000    9.854683

outcell: Cell vector modules (Ang)   :   24.149394   19.804212    9.854683
outcell: Cell angles (23,13,12) (deg):     90.0000     90.0000     90.0000
outcell: Cell volume (Ang**3)        :   4713.0982
<dSpData1D:S at geom step 0
  <sparsity:sparsity for geom step 0
    nrows_g=297 nrows=81 sparsity=.2129 nnzs=18783, refcount: 8>
  <dData1D:(new from dSpData1D) n=18783, refcount: 1>
refcount: 1>
new_DM -- step:     1
Initializing Density Matrix...
DM filled with atomic data:
<dSpData2D:DM initialized from atoms
  <sparsity:sparsity for geom step 0
    nrows_g=297 nrows=81 sparsity=.2129 nnzs=18783, refcount: 9>
  <dData2D:DM n=18783 m=8, refcount: 1>
refcount: 1>
     spin moment: S , {S} =   56.00000   0.00000   0.00000  56.00000
No. of atoms with KB's overlaping orbs in proc 0. Max # of overlaps:      29     189

Initializing spin-orbit part of the Hamiltonian
  Adding spin-orbit effects for O 
  Adding spin-orbit effects for N 
  Adding spin-orbit effects for Si
  Adding spin-orbit effects for H 


New grid distribution:   1
           1       1:  135    1:   60    1:   30
           2       1:  135    1:   60   31:   60
           3       1:  135   61:  120    1:   30
           4       1:  135   61:  120   31:   60

InitMesh: MESH =   270 x   240 x   120 =     7776000
InitMesh: (bp) =   135 x   120 x    60 =      972000
InitMesh: Mesh cutoff (required, used) =   340.000   345.475 Ry
ExtMesh (bp) on 0 =   239 x   172 x   142 =     5837336
New grid distribution:   2
           1      36:  135    1:   30    1:   60
           2       1:   35    1:   27    1:   60
           3      36:  135   31:  120    1:   60
           4       1:   35   28:  120    1:   60
New grid distribution:   3
           1      45:  135    1:   36    1:   60
           2       1:   44    1:   40    1:   60
           3      45:  135   37:  120    1:   60
           4       1:   44   41:  120    1:   60
Setting up quadratic distribution...
ExtMesh (bp) on 0 =   204 x   142 x   172 =     4982496
PhiOnMesh: Number of (b)points on node 0 =               180000
PhiOnMesh: nlist on node 0 =              2697348

stepf: Fermi-Dirac step function

siesta: Program's energy decomposition (eV):
siesta: Ebs     =      -611.024060
siesta: Eions   =      3585.165840
siesta: Ena     =       384.861966
siesta: Ekin    =      3371.379661
siesta: Enl     =     -3303.798871
siesta: Eso     =        -0.003393
siesta: Edftu   =         0.000000
siesta: DEna    =       154.505016
siesta: DUscf   =        80.254515
siesta: DUext   =         0.000000
siesta: Exc     =     -1204.282981
siesta: eta*DQ  =         0.000000
siesta: Emadel  =         0.000000
siesta: Emeta   =         0.000000
siesta: Emolmec =         0.000000
siesta: Ekinion =         0.000000
siesta: Eharris =     -4025.497734
siesta: Etot    =     -4102.249926
siesta: FreeEng =     -4102.251396

        iscf     Eharris(eV)        E_KS(eV)     FreeEng(eV)     dDmax    Ef(eV) dHmax(eV)
   scf:    1    -4025.497734    -4102.249926    -4102.251396  0.960623 -4.889995 21.010557
     spin moment: S , {S} =    2.00777   0.00000   0.00000   2.00777
timer: Routine,Calls,Time,% = IterSCF        1      12.824  17.12
   scf:    2    -4149.985965    -4137.806284    -4137.810936  0.464755 -4.212917 11.447283
     spin moment: S , {S} =    1.96499  -0.00000   0.00000   1.96499
   scf:    3    -4112.317566    -4135.464587    -4135.488345  0.435484 -4.303894 11.246151
     spin moment: S , {S} =    2.00187  -0.00000  -0.00000   2.00187
   scf:    4    -4150.438748    -4145.895742    -4145.895743  0.286961 -3.938026  5.858275
     spin moment: S , {S} =    0.00010  -0.00000  -0.00000   0.00010
   scf:    5    -4147.085860    -4146.587272    -4146.587272  0.037927 -3.737001  4.171207
     spin moment: S , {S} =    0.00006   0.00000   0.00000   0.00006
   scf:    6    -4147.326965    -4146.961565    -4146.961565  0.024887 -3.643558  2.088042
     spin moment: S , {S} =    0.00003   0.00000  -0.00000   0.00003
   scf:    7    -4147.313414    -4147.135976    -4147.135976  0.022144 -3.824629  0.885014
     spin moment: S , {S} =    0.00001   0.00000   0.00000   0.00001
   scf:    8    -4147.254931    -4147.193811    -4147.193811  0.012476 -3.826732  0.484041
     spin moment: S , {S} =    0.00000  -0.00000  -0.00000   0.00000
   scf:    9    -4147.234750    -4147.213578    -4147.213578  0.007103 -3.782027  0.323385
     spin moment: S , {S} =    0.00000   0.00000   0.00000   0.00000
   scf:   10    -4147.263484    -4147.233990    -4147.233990  0.018509 -3.810547  0.169836
     spin moment: S , {S} =    0.00000   0.00000   0.00000  -0.00000
   scf:   11    -4147.237143    -4147.235496    -4147.235496  0.005220 -3.804458  0.047244
     spin moment: S , {S} =    0.00000   0.00000   0.00000  -0.00000
   scf:   12    -4147.236237    -4147.235875    -4147.235875  0.001560 -3.797375  0.028630
     spin moment: S , {S} =    0.00000   0.00000   0.00000   0.00000
   scf:   13    -4147.236310    -4147.236082    -4147.236082  0.001728 -3.796911  0.022097
     spin moment: S , {S} =    0.00000   0.00000   0.00000   0.00000
   scf:   14    -4147.236402    -4147.236230    -4147.236230  0.001750 -3.797515  0.016869
     spin moment: S , {S} =    0.00000   0.00000   0.00000   0.00000
   scf:   15    -4147.236457    -4147.236330    -4147.236330  0.001799 -3.796828  0.011617
     spin moment: S , {S} =    0.00000   0.00000   0.00000   0.00000
   scf:   16    -4147.236471    -4147.236387    -4147.236387  0.001781 -3.796510  0.006081
     spin moment: S , {S} =    0.00000   0.00000   0.00000   0.00000
   scf:   17    -4147.236417    -4147.236399    -4147.236399  0.000822 -3.796692  0.003458
     spin moment: S , {S} =    0.00000   0.00000   0.00000   0.00000
   scf:   18    -4147.236408    -4147.236403    -4147.236403  0.000449 -3.796734  0.001370
     spin moment: S , {S} =    0.00000   0.00000   0.00000   0.00000
   scf:   19    -4147.236405    -4147.236404    -4147.236404  0.000200 -3.796736  0.000743
     spin moment: S , {S} =    0.00000   0.00000   0.00000   0.00000
   scf:   20    -4147.236404    -4147.236404    -4147.236404  0.000064 -3.796732  0.000483
     spin moment: S , {S} =    0.00000   0.00000   0.00000   0.00000
   scf:   21    -4147.236404    -4147.236404    -4147.236404  0.000056 -3.796733  0.000185
     spin moment: S , {S} =    0.00000   0.00000   0.00000   0.00000
   scf:   22    -4147.236404    -4147.236404    -4147.236404  0.000029 -3.796737  0.000087
     spin moment: S , {S} =    0.00000   0.00000   0.00000  -0.00000
   scf:   23    -4147.236404    -4147.236404    -4147.236404  0.000003 -3.796736  0.000091
     spin moment: S , {S} =    0.00000   0.00000   0.00000  -0.00000
   scf:   24    -4147.236404    -4147.236404    -4147.236404  0.000005 -3.796733  0.000087
     spin moment: S , {S} =    0.00000   0.00000   0.00000  -0.00000
mix: Pulay -- resetting history
   scf:   25    -4147.236404    -4147.236404    -4147.236404  0.000007 -3.796728  0.000055
     spin moment: S , {S} =    0.00000   0.00000   0.00000  -0.00000
   scf:   26    -4147.236404    -4147.236404    -4147.236404  0.000006 -3.796724  0.000035
     spin moment: S , {S} =    0.00000   0.00000   0.00000  -0.00000
   scf:   27    -4147.236404    -4147.236404    -4147.236404  0.000004 -3.796722  0.000022
     spin moment: S , {S} =    0.00000   0.00000   0.00000  -0.00000
   scf:   28    -4147.236404    -4147.236404    -4147.236404  0.000003 -3.796721  0.000009
     spin moment: S , {S} =    0.00000   0.00000   0.00000  -0.00000
   scf:   29    -4147.236404    -4147.236404    -4147.236404  0.000001 -3.796722  0.000005
     spin moment: S , {S} =    0.00000   0.00000   0.00000  -0.00000
   scf:   30    -4147.236404    -4147.236404    -4147.236404  0.000001 -3.796722  0.000002
     spin moment: S , {S} =    0.00000   0.00000   0.00000  -0.00000
   scf:   31    -4147.236404    -4147.236404    -4147.236404  0.000000 -3.796722  0.000001
     spin moment: S , {S} =    0.00000   0.00000   0.00000  -0.00000
   scf:   32    -4147.236404    -4147.236404    -4147.236404  0.000000 -3.796722  0.000001
     spin moment: S , {S} =    0.00000   0.00000   0.00000  -0.00000

SCF Convergence by DM+H criterion
max |DM_out - DM_in|         :     0.0000001772
max |H_out - H_in|      (eV) :     0.0000009030
SCF cycle converged after 32 iterations

Using DM_out to compute the final energy and forces
No. of atoms with KB's overlaping orbs in proc 0. Max # of overlaps:      29     189

siesta: E_KS(eV) =            -4147.2364

siesta: E_KS - E_eggbox =     -4147.2364
     spin moment: S , {S} =    0.00000   0.00000   0.00000  -0.00000

siesta: Atomic forces (eV/Ang):
     1    1.550168   -2.875347    0.000000
     2   -0.058945   -0.015342   -0.000000
     3   -0.296504    0.216931   -0.000000
     4   -0.337967   -0.097701    0.000000
     5   -0.032108    0.014428    0.000000
     6   -0.354129   -0.019432    0.000000
     7   -0.026791    0.093091   -0.000000
     8    0.205706   -0.071945    0.000000
     9    0.200045   -0.443353    0.000000
    10    0.574111   -0.034017   -0.000000
    11   -0.019616    0.034891    0.000000
    12    0.054338   -0.052523    0.000000
    13    0.008587    0.079000   -0.000000
    14    0.036110    0.012251   -0.000000
    15    0.575659    0.329429   -0.000000
    16    0.051682    0.167219    0.000000
    17   -0.529079    0.353253   -0.000000
    18    0.091518   -0.075953    0.000000
    19    0.025933    0.558933   -0.000000
    20   -0.023257    0.161535   -0.000000
    21    0.143270   -0.497587    0.000000
    22    0.483996   -0.022318    0.000000
    23   -0.089432   -0.247907    0.000000
    24   -0.100785    0.038293    0.000000
    25    0.008871    0.006647   -0.000000
    26   -0.095273    0.114705    0.000000
    27   -0.326035   -0.237972    0.000000
    28    2.128662    2.180914    0.000000
    29    0.090739    0.119436   -0.000000
----------------------------------------
   Tot    3.939474   -0.210443   -0.000000
----------------------------------------
   Max    2.875347
   Res    0.514255    sqrt( Sum f_i^2 / 3N )
----------------------------------------
   Max    2.875347    constrained

Stress tensor Voigt[x,y,z,yz,xz,xy] (kbar):        1.07        0.20       -0.08        0.00        0.00        0.50
(Free)E + p*V (eV/cell)    -4148.4048
Target enthalpy (eV/cell)    -4147.2364

mulliken: Atomic and Orbital Populations:

Species: O                   

Atom      Orb        Charge      Spin       Svec
----------------------------------------------------------------
    1  1 2s         1.75280   0.00000      0.000   0.000   0.000
    1  2 2s         0.05761   0.00000     -0.000  -0.000   0.000
    1  3 2py        1.42666   0.00000     -0.000  -0.000   0.000
    1  4 2pz        1.56963   0.00000      0.000   0.000   0.000
    1  5 2px        1.62758   0.00000      0.000  -0.000   0.000
    1  6 2py        0.04636   0.00000      0.000   0.000   0.000
    1  7 2pz       -0.00952   0.00000     -0.000   0.000   0.000
    1  8 2px        0.00276   0.00000      0.000   0.000   0.000
    1  9 3Pdxy      0.00688   0.00000     -0.000   0.000   0.000
    1 10 3Pdyz      0.00879   0.00000      0.000  -0.000  -0.000
    1 11 3Pdz2      0.00148   0.00000     -0.000  -0.000  -0.000
    1 12 3Pdxz      0.00031   0.00000      0.000  -0.000   0.000
    1 13 3Pdx2-y2   0.00660   0.00000      0.000  -0.000  -0.000
    1     Total     6.49795   0.00000      0.000   0.000   0.000

   28  1 2s         1.74114   0.00000      0.000   0.000   0.000
   28  2 2s         0.06450   0.00000     -0.000  -0.000   0.000
   28  3 2py        1.42025   0.00000      0.000  -0.000   0.000
   28  4 2pz        1.56075   0.00000     -0.000   0.000   0.000
   28  5 2px        1.63936   0.00000      0.000  -0.000   0.000
   28  6 2py        0.04797   0.00000     -0.000   0.000   0.000
   28  7 2pz       -0.00604   0.00000      0.000  -0.000   0.000
   28  8 2px        0.00896   0.00000     -0.000   0.000   0.000
   28  9 3Pdxy      0.00687   0.00000     -0.000  -0.000   0.000
   28 10 3Pdyz      0.00989   0.00000      0.000  -0.000  -0.000
   28 11 3Pdz2      0.00112   0.00000      0.000  -0.000  -0.000
   28 12 3Pdxz     -0.00014   0.00000     -0.000   0.000   0.000
   28 13 3Pdx2-y2   0.00750   0.00000      0.000  -0.000  -0.000
   28     Total     6.50213   0.00000      0.000   0.000   0.000

----------------------------------------------------------------
Total              13.00008   0.00000      0.000   0.000   0.000


Species: N                   

Atom      Orb        Charge      Spin       Svec
----------------------------------------------------------------
    2  1 2s         1.54843   0.00000      0.000  -0.000  -0.000
    2  2 2s         0.08475   0.00000      0.000   0.000   0.000
    2  3 2py        1.03200   0.00000     -0.000   0.000  -0.000
    2  4 2pz        1.22414   0.00000     -0.000  -0.000  -0.000
    2  5 2px        1.00723   0.00000     -0.000  -0.000  -0.000
    2  6 2py        0.19263   0.00000      0.000   0.000   0.000
    2  7 2pz        0.05445   0.00000      0.000  -0.000   0.000
    2  8 2px        0.19049   0.00000      0.000   0.000   0.000
    2  9 3Pdxy      0.00840   0.00000      0.000  -0.000   0.000
    2 10 3Pdyz      0.01081   0.00000      0.000   0.000   0.000
    2 11 3Pdz2      0.00194   0.00000      0.000  -0.000   0.000
    2 12 3Pdxz      0.00754   0.00000      0.000   0.000   0.000
    2 13 3Pdx2-y2   0.00891   0.00000      0.000  -0.000  -0.000
    2     Total     5.37169   0.00000     -0.000  -0.000  -0.000

    3  1 2s         1.39837   0.00000     -0.000  -0.000   0.000
    3  2 2s         0.11836   0.00000      0.000   0.000   0.000
    3  3 2py        0.93852   0.00000     -0.000  -0.000   0.000
    3  4 2pz        1.53927   0.00000     -0.000  -0.000   0.000
    3  5 2px        1.09845   0.00000     -0.000  -0.000   0.000
    3  6 2py        0.25005   0.00000     -0.000   0.000   0.000
    3  7 2pz        0.00719   0.00000     -0.000   0.000   0.000
    3  8 2px        0.17014   0.00000     -0.000  -0.000   0.000
    3  9 3Pdxy      0.00417   0.00000      0.000   0.000   0.000
    3 10 3Pdyz      0.00403   0.00000     -0.000  -0.000  -0.000
    3 11 3Pdz2      0.00075   0.00000     -0.000   0.000  -0.000
    3 12 3Pdxz      0.00259   0.00000      0.000   0.000  -0.000
    3 13 3Pdx2-y2   0.00284   0.00000     -0.000   0.000  -0.000
    3     Total     5.53472   0.00000     -0.000  -0.000   0.000

    4  1 2s         1.46970   0.00000     -0.000  -0.000   0.000
    4  2 2s         0.11666   0.00000      0.000   0.000   0.000
    4  3 2py        1.10369   0.00000     -0.000  -0.000   0.000
    4  4 2pz        1.29255   0.00000     -0.000  -0.000   0.000
    4  5 2px        0.84123   0.00000     -0.000  -0.000   0.000
    4  6 2py        0.15626   0.00000      0.000  -0.000   0.000
    4  7 2pz        0.05326   0.00000      0.000   0.000   0.000
    4  8 2px        0.28674   0.00000      0.000   0.000   0.000
    4  9 3Pdxy      0.00857   0.00000     -0.000  -0.000  -0.000
    4 10 3Pdyz      0.01077   0.00000     -0.000   0.000  -0.000
    4 11 3Pdz2      0.00132   0.00000      0.000   0.000   0.000
    4 12 3Pdxz      0.00487   0.00000     -0.000   0.000   0.000
    4 13 3Pdx2-y2   0.00853   0.00000      0.000   0.000  -0.000
    4     Total     5.35417   0.00000     -0.000  -0.000   0.000

    5  1 2s         1.37353   0.00000     -0.000  -0.000  -0.000
    5  2 2s         0.12899   0.00000      0.000   0.000   0.000
    5  3 2py        1.02739   0.00000     -0.000   0.000  -0.000
    5  4 2pz        1.50115   0.00000     -0.000   0.000  -0.000
    5  5 2px        1.05897   0.00000     -0.000   0.000  -0.000
    5  6 2py        0.20318   0.00000      0.000  -0.000   0.000
    5  7 2pz        0.01348   0.00000     -0.000   0.000   0.000
    5  8 2px        0.20264   0.00000      0.000  -0.000   0.000
    5  9 3Pdxy      0.00367   0.00000      0.000  -0.000   0.000
    5 10 3Pdyz      0.00250   0.00000     -0.000  -0.000   0.000
    5 11 3Pdz2      0.00138   0.00000     -0.000   0.000   0.000
    5 12 3Pdxz      0.00676   0.00000      0.000   0.000   0.000
    5 13 3Pdx2-y2   0.00573   0.00000     -0.000  -0.000   0.000
    5     Total     5.52938   0.00000     -0.000   0.000  -0.000

    6  1 2s         1.26215   0.00000     -0.000   0.000  -0.000
    6  2 2s         0.18209   0.00000      0.000  -0.000   0.000
    6  3 2py        1.08046   0.00000     -0.000  -0.000  -0.000
    6  4 2pz        1.56111   0.00000     -0.000   0.000  -0.000
    6  5 2px        0.97884   0.00000     -0.000  -0.000  -0.000
    6  6 2py        0.18968   0.00000      0.000  -0.000   0.000
    6  7 2pz        0.02970   0.00000      0.000  -0.000   0.000
    6  8 2px        0.25217   0.00000      0.000  -0.000   0.000
    6  9 3Pdxy      0.00233   0.00000     -0.000  -0.000   0.000
    6 10 3Pdyz      0.00007   0.00000      0.000   0.000  -0.000
    6 11 3Pdz2      0.00151   0.00000      0.000   0.000  -0.000
    6 12 3Pdxz      0.00303   0.00000     -0.000   0.000  -0.000
    6 13 3Pdx2-y2   0.00313   0.00000      0.000   0.000   0.000
    6     Total     5.54625   0.00000     -0.000  -0.000  -0.000

   21  1 2s         1.40428   0.00000      0.000   0.000   0.000
   21  2 2s         0.13490   0.00000     -0.000  -0.000  -0.000
   21  3 2py        0.87367   0.00000      0.000   0.000   0.000
   21  4 2pz        1.30398   0.00000     -0.000   0.000   0.000
   21  5 2px        1.16375   0.00000     -0.000   0.000   0.000
   21  6 2py        0.28098   0.00000     -0.000  -0.000   0.000
   21  7 2pz        0.04802   0.00000      0.000   0.000   0.000
   21  8 2px        0.16126   0.00000      0.000  -0.000   0.000
   21  9 3Pdxy      0.00623   0.00000      0.000  -0.000   0.000
   21 10 3Pdyz      0.00494   0.00000      0.000   0.000  -0.000
   21 11 3Pdz2     -0.00015   0.00000      0.000  -0.000  -0.000
   21 12 3Pdxz      0.00586   0.00000     -0.000  -0.000  -0.000
   21 13 3Pdx2-y2   0.00574   0.00000     -0.000   0.000  -0.000
   21     Total     5.39346   0.00000      0.000   0.000   0.000

   22  1 2s         1.28038   0.00000      0.000   0.000   0.000
   22  2 2s         0.17429   0.00000     -0.000  -0.000  -0.000
   22  3 2py        1.07511   0.00000      0.000   0.000  -0.000
   22  4 2pz        1.53655   0.00000      0.000   0.000  -0.000
   22  5 2px        1.01230   0.00000      0.000   0.000  -0.000
   22  6 2py        0.19435   0.00000     -0.000   0.000   0.000
   22  7 2pz        0.02844   0.00000      0.000  -0.000   0.000
   22  8 2px        0.23130   0.00000     -0.000  -0.000   0.000
   22  9 3Pdxy      0.00336   0.00000     -0.000  -0.000   0.000
   22 10 3Pdyz      0.00008   0.00000     -0.000  -0.000  -0.000
   22 11 3Pdz2      0.00240   0.00000     -0.000  -0.000   0.000
   22 12 3Pdxz      0.00305   0.00000      0.000  -0.000   0.000
   22 13 3Pdx2-y2   0.00339   0.00000      0.000  -0.000   0.000
   22     Total     5.54500   0.00000      0.000   0.000  -0.000

   23  1 2s         1.38747   0.00000     -0.000  -0.000   0.000
   23  2 2s         0.12240   0.00000      0.000   0.000  -0.000
   23  3 2py        0.99584   0.00000     -0.000   0.000  -0.000
   23  4 2pz        1.52479   0.00000     -0.000   0.000   0.000
   23  5 2px        1.07117   0.00000     -0.000   0.000   0.000
   23  6 2py        0.22262   0.00000     -0.000  -0.000   0.000
   23  7 2pz        0.00505   0.00000      0.000  -0.000  -0.000
   23  8 2px        0.19307   0.00000     -0.000  -0.000   0.000
   23  9 3Pdxy      0.00529   0.00000      0.000  -0.000   0.000
   23 10 3Pdyz      0.00453   0.00000     -0.000  -0.000  -0.000
   23 11 3Pdz2      0.00066   0.00000     -0.000  -0.000  -0.000
   23 12 3Pdxz      0.00230   0.00000     -0.000  -0.000  -0.000
   23 13 3Pdx2-y2   0.00123   0.00000     -0.000  -0.000  -0.000
   23     Total     5.53641   0.00000     -0.000   0.000   0.000

----------------------------------------------------------------
Total              56.81116   0.00000      0.000   0.000   0.000


Species: Si                  

Atom      Orb        Charge      Spin       Svec
----------------------------------------------------------------
    7  1 3s         0.68776   0.00000      0.000  -0.000   0.000
    7  2 3s         0.35805   0.00000     -0.000   0.000   0.000
    7  3 3py        0.46312   0.00000     -0.000  -0.000   0.000
    7  4 3pz        0.70515   0.00000     -0.000  -0.000   0.000
    7  5 3px        0.13360   0.00000     -0.000   0.000   0.000
    7  6 3py        0.27897   0.00000     -0.000   0.000   0.000
    7  7 3pz        0.25850   0.00000      0.000   0.000   0.000
    7  8 3px        0.42361   0.00000      0.000  -0.000   0.000
    7  9 3Pdxy      0.24283   0.00000     -0.000   0.000   0.000
    7 10 3Pdyz      0.03005   0.00000     -0.000  -0.000  -0.000
    7 11 3Pdz2      0.01189   0.00000      0.000  -0.000  -0.000
    7 12 3Pdxz      0.13867   0.00000     -0.000   0.000  -0.000
    7 13 3Pdx2-y2   0.11360   0.00000     -0.000   0.000  -0.000
    7     Total     3.84581   0.00000     -0.000  -0.000   0.000

    8  1 3s         0.64784   0.00000      0.000   0.000  -0.000
    8  2 3s         0.37113   0.00000     -0.000  -0.000   0.000
    8  3 3py        0.38877   0.00000     -0.000  -0.000  -0.000
    8  4 3pz        0.51686   0.00000     -0.000  -0.000   0.000
    8  5 3px       -0.02861   0.00000     -0.000  -0.000  -0.000
    8  6 3py        0.30345   0.00000      0.000   0.000  -0.000
    8  7 3pz        0.20395   0.00000     -0.000   0.000   0.000
    8  8 3px        0.52029   0.00000      0.000   0.000  -0.000
    8  9 3Pdxy      0.26024   0.00000     -0.000   0.000  -0.000
    8 10 3Pdyz      0.11035   0.00000     -0.000  -0.000   0.000
    8 11 3Pdz2      0.01295   0.00000      0.000  -0.000   0.000
    8 12 3Pdxz      0.15742   0.00000      0.000  -0.000  -0.000
    8 13 3Pdx2-y2   0.18867   0.00000      0.000   0.000  -0.000
    8     Total     3.65332   0.00000     -0.000  -0.000  -0.000

    9  1 3s         0.62700   0.00000      0.000   0.000  -0.000
    9  2 3s         0.35847   0.00000     -0.000  -0.000  -0.000
    9  3 3py        0.10057   0.00000     -0.000  -0.000  -0.000
    9  4 3pz        0.48110   0.00000      0.000  -0.000  -0.000
    9  5 3px        0.36337   0.00000     -0.000   0.000  -0.000
    9  6 3py        0.42395   0.00000      0.000  -0.000  -0.000
    9  7 3pz        0.18412   0.00000     -0.000   0.000  -0.000
    9  8 3px        0.27229   0.00000      0.000  -0.000  -0.000
    9  9 3Pdxy      0.30428   0.00000     -0.000   0.000  -0.000
    9 10 3Pdyz      0.19283   0.00000      0.000   0.000  -0.000
    9 11 3Pdz2      0.01401   0.00000     -0.000   0.000  -0.000
    9 12 3Pdxz      0.09177   0.00000      0.000  -0.000  -0.000
    9 13 3Pdx2-y2   0.15755   0.00000      0.000  -0.000  -0.000
    9     Total     3.57130   0.00000      0.000   0.000  -0.000

   10  1 3s         0.48097   0.00000     -0.000   0.000  -0.000
   10  2 3s         0.38078   0.00000      0.000  -0.000   0.000
   10  3 3py        0.23745   0.00000      0.000   0.000  -0.000
   10  4 3pz        0.40991   0.00000      0.000  -0.000  -0.000
   10  5 3px        0.10241   0.00000     -0.000  -0.000  -0.000
   10  6 3py        0.33495   0.00000     -0.000  -0.000  -0.000
   10  7 3pz        0.22031   0.00000     -0.000   0.000  -0.000
   10  8 3px        0.42656   0.00000     -0.000   0.000  -0.000
   10  9 3Pdxy      0.16431   0.00000      0.000   0.000  -0.000
   10 10 3Pdyz      0.14563   0.00000      0.000   0.000  -0.000
   10 11 3Pdz2      0.01097   0.00000     -0.000   0.000  -0.000
   10 12 3Pdxz      0.17227   0.00000      0.000   0.000  -0.000
   10 13 3Pdx2-y2   0.32034   0.00000      0.000   0.000  -0.000
   10     Total     3.40687   0.00000      0.000   0.000  -0.000

   11  1 3s         0.55892   0.00000      0.000   0.000   0.000
   11  2 3s         0.38179   0.00000     -0.000  -0.000   0.000
   11  3 3py        0.30515   0.00000      0.000  -0.000   0.000
   11  4 3pz        0.54426   0.00000      0.000   0.000   0.000
   11  5 3px        0.13981   0.00000      0.000  -0.000   0.000
   11  6 3py        0.30254   0.00000     -0.000   0.000   0.000
   11  7 3pz        0.17659   0.00000      0.000  -0.000   0.000
   11  8 3px        0.43133   0.00000     -0.000   0.000   0.000
   11  9 3Pdxy      0.24418   0.00000      0.000   0.000   0.000
   11 10 3Pdyz      0.12507   0.00000      0.000  -0.000   0.000
   11 11 3Pdz2      0.00941   0.00000      0.000   0.000   0.000
   11 12 3Pdxz      0.05292   0.00000      0.000   0.000   0.000
   11 13 3Pdx2-y2   0.18408   0.00000      0.000   0.000   0.000
   11     Total     3.45604   0.00000      0.000  -0.000   0.000

   17  1 3s         0.64573   0.00000      0.000  -0.000   0.000
   17  2 3s         0.35853   0.00000     -0.000   0.000  -0.000
   17  3 3py        0.24560   0.00000      0.000  -0.000  -0.000
   17  4 3pz        0.42386   0.00000      0.000  -0.000  -0.000
   17  5 3px        0.22605   0.00000     -0.000  -0.000  -0.000
   17  6 3py        0.36742   0.00000     -0.000   0.000  -0.000
   17  7 3pz        0.21429   0.00000     -0.000  -0.000   0.000
   17  8 3px        0.38260   0.00000      0.000   0.000  -0.000
   17  9 3Pdxy      0.29166   0.00000      0.000  -0.000  -0.000
   17 10 3Pdyz      0.13757   0.00000      0.000   0.000   0.000
   17 11 3Pdz2      0.00932   0.00000     -0.000  -0.000   0.000
   17 12 3Pdxz      0.14874   0.00000      0.000   0.000  -0.000
   17 13 3Pdx2-y2   0.17140   0.00000     -0.000  -0.000  -0.000
   17     Total     3.62278   0.00000      0.000  -0.000  -0.000

   18  1 3s         0.74482   0.00000     -0.000  -0.000   0.000
   18  2 3s         0.33971   0.00000      0.000   0.000   0.000
   18  3 3py        0.08266   0.00000      0.000  -0.000   0.000
   18  4 3pz        0.82265   0.00000     -0.000   0.000   0.000
   18  5 3px        0.54503   0.00000     -0.000   0.000  -0.000
   18  6 3py        0.51742   0.00000     -0.000   0.000   0.000
   18  7 3pz        0.19781   0.00000      0.000   0.000   0.000
   18  8 3px        0.25396   0.00000      0.000   0.000   0.000
   18  9 3Pdxy      0.10818   0.00000      0.000   0.000  -0.000
   18 10 3Pdyz      0.02787   0.00000     -0.000  -0.000  -0.000
   18 11 3Pdz2      0.00920   0.00000     -0.000  -0.000  -0.000
   18 12 3Pdxz      0.02978   0.00000      0.000   0.000  -0.000
   18 13 3Pdx2-y2   0.10485   0.00000     -0.000   0.000  -0.000
   18     Total     3.78393   0.00000     -0.000   0.000   0.000

   19  1 3s         0.45733   0.00000      0.000   0.000  -0.000
   19  2 3s         0.36402   0.00000     -0.000  -0.000  -0.000
   19  3 3py        0.08169   0.00000     -0.000  -0.000  -0.000
   19  4 3pz        0.41508   0.00000     -0.000  -0.000  -0.000
   19  5 3px        0.32746   0.00000     -0.000   0.000  -0.000
   19  6 3py        0.46480   0.00000      0.000   0.000  -0.000
   19  7 3pz        0.18801   0.00000      0.000  -0.000  -0.000
   19  8 3px        0.25688   0.00000      0.000  -0.000  -0.000
   19  9 3Pdxy      0.34649   0.00000     -0.000   0.000  -0.000
   19 10 3Pdyz      0.19086   0.00000      0.000   0.000  -0.000
   19 11 3Pdz2      0.01449   0.00000     -0.000  -0.000  -0.000
   19 12 3Pdxz      0.08910   0.00000     -0.000  -0.000  -0.000
   19 13 3Pdx2-y2   0.23392   0.00000      0.000   0.000  -0.000
   19     Total     3.43014   0.00000     -0.000  -0.000  -0.000

   20  1 3s         0.67440   0.00000     -0.000  -0.000   0.000
   20  2 3s         0.37929   0.00000      0.000  -0.000  -0.000
   20  3 3py        0.33899   0.00000     -0.000  -0.000  -0.000
   20  4 3pz        0.58697   0.00000     -0.000  -0.000  -0.000
   20  5 3px        0.13965   0.00000      0.000   0.000   0.000
   20  6 3py        0.28813   0.00000     -0.000   0.000   0.000
   20  7 3pz        0.16284   0.00000     -0.000  -0.000  -0.000
   20  8 3px        0.49908   0.00000     -0.000  -0.000   0.000
   20  9 3Pdxy      0.10250   0.00000     -0.000  -0.000  -0.000
   20 10 3Pdyz      0.13388   0.00000      0.000  -0.000  -0.000
   20 11 3Pdz2      0.00745   0.00000     -0.000  -0.000   0.000
   20 12 3Pdxz      0.02670   0.00000     -0.000  -0.000  -0.000
   20 13 3Pdx2-y2   0.17233   0.00000      0.000   0.000   0.000
   20     Total     3.51223   0.00000      0.000  -0.000  -0.000

----------------------------------------------------------------
Total              89.09358   0.00000     -0.000  -0.000   0.000


Species: H                   

Atom      Orb        Charge      Spin       Svec
----------------------------------------------------------------
   12  1 1s         0.48095   0.00000      0.000   0.000  -0.000
   12  2 1s         0.18673   0.00000     -0.000  -0.000   0.000
   12  3 2Ppy       0.02953   0.00000     -0.000  -0.000  -0.000
   12  4 2Ppz       0.03294   0.00000     -0.000   0.000  -0.000
   12  5 2Ppx       0.02622   0.00000     -0.000   0.000  -0.000
   12     Total     0.75636   0.00000      0.000   0.000  -0.000

   13  1 1s         1.02097   0.00000     -0.000   0.000  -0.000
   13  2 1s         0.09454   0.00000      0.000  -0.000   0.000
   13  3 2Ppy       0.01982   0.00000      0.000   0.000   0.000
   13  4 2Ppz       0.02019   0.00000      0.000   0.000   0.000
   13  5 2Ppx       0.03314   0.00000     -0.000  -0.000   0.000
   13     Total     1.18867   0.00000     -0.000   0.000  -0.000

   14  1 1s         0.47188   0.00000      0.000  -0.000  -0.000
   14  2 1s         0.19870   0.00000      0.000   0.000   0.000
   14  3 2Ppy       0.01898   0.00000      0.000  -0.000  -0.000
   14  4 2Ppz       0.04768   0.00000      0.000  -0.000  -0.000
   14  5 2Ppx       0.01804   0.00000     -0.000  -0.000  -0.000
   14     Total     0.75529   0.00000      0.000  -0.000  -0.000

   15  1 1s         0.44983   0.00000      0.000   0.000   0.000
   15  2 1s         0.19994   0.00000     -0.000   0.000   0.000
   15  3 2Ppy       0.00944   0.00000      0.000   0.000  -0.000
   15  4 2Ppz       0.04253   0.00000      0.000  -0.000  -0.000
   15  5 2Ppx       0.03996   0.00000     -0.000   0.000  -0.000
   15     Total     0.74169   0.00000      0.000   0.000   0.000

   16  1 1s         0.50720   0.00000      0.000   0.000  -0.000
   16  2 1s         0.18757   0.00000     -0.000  -0.000   0.000
   16  3 2Ppy       0.03002   0.00000      0.000   0.000  -0.000
   16  4 2Ppz       0.03941   0.00000     -0.000   0.000  -0.000
   16  5 2Ppx       0.02316   0.00000     -0.000  -0.000   0.000
   16     Total     0.78736   0.00000     -0.000   0.000  -0.000

   24  1 1s         1.05732   0.00000     -0.000  -0.000  -0.000
   24  2 1s         0.07604   0.00000      0.000   0.000   0.000
   24  3 2Ppy       0.03159   0.00000      0.000  -0.000   0.000
   24  4 2Ppz       0.03111   0.00000      0.000   0.000  -0.000
   24  5 2Ppx       0.01762   0.00000      0.000  -0.000  -0.000
   24     Total     1.21369   0.00000     -0.000   0.000  -0.000

   25  1 1s         1.04709   0.00000     -0.000   0.000  -0.000
   25  2 1s         0.08428   0.00000      0.000   0.000   0.000
   25  3 2Ppy       0.01170   0.00000     -0.000  -0.000  -0.000
   25  4 2Ppz       0.01807   0.00000      0.000   0.000  -0.000
   25  5 2Ppx       0.03638   0.00000      0.000   0.000   0.000
   25     Total     1.19753   0.00000     -0.000   0.000  -0.000

   26  1 1s         0.48035   0.00000      0.000   0.000  -0.000
   26  2 1s         0.19836   0.00000      0.000  -0.000   0.000
   26  3 2Ppy       0.01972   0.00000      0.000  -0.000   0.000
   26  4 2Ppz       0.05083   0.00000      0.000  -0.000  -0.000
   26  5 2Ppx       0.01674   0.00000     -0.000  -0.000  -0.000
   26     Total     0.76599   0.00000      0.000  -0.000   0.000

   27  1 1s         0.44636   0.00000      0.000  -0.000   0.000
   27  2 1s         0.19761   0.00000     -0.000   0.000   0.000
   27  3 2Ppy       0.01329   0.00000     -0.000  -0.000  -0.000
   27  4 2Ppz       0.03836   0.00000      0.000   0.000  -0.000
   27  5 2Ppx       0.04478   0.00000      0.000   0.000   0.000
   27     Total     0.74040   0.00000      0.000  -0.000   0.000

   29  1 1s         0.48653   0.00000     -0.000   0.000  -0.000
   29  2 1s         0.18810   0.00000      0.000  -0.000   0.000
   29  3 2Ppy       0.02518   0.00000      0.000  -0.000  -0.000
   29  4 2Ppz       0.03459   0.00000      0.000  -0.000  -0.000
   29  5 2Ppx       0.02505   0.00000      0.000  -0.000  -0.000
   29     Total     0.75945   0.00000      0.000  -0.000  -0.000

----------------------------------------------------------------
Total              98.00000   0.00000      0.000   0.000  -0.000


siesta: Eigenvalues (eV):
ik =     1
  -22.3596  -22.3596  -22.0312  -22.0312  -21.3674  -21.3674  -21.2568  -21.2568  -21.2405  -21.2405
  -21.1546  -21.1546  -20.5592  -20.5592  -19.7091  -19.7091  -19.5756  -19.5756  -19.3589  -19.3589
  -14.7492  -14.7492  -13.8292  -13.8292  -13.2707  -13.2707  -13.1405  -13.1405  -12.8661  -12.8661
  -12.7764  -12.7764  -12.5863  -12.5863  -12.1252  -12.1252  -12.0734  -12.0734  -11.9615  -11.9615
  -11.2040  -11.2040  -10.7882  -10.7882  -10.6606  -10.6606  -10.5261  -10.5261  -10.1266  -10.1266
   -9.6221   -9.6221   -9.0568   -9.0568   -8.9601   -8.9601   -8.7838   -8.7838   -8.6180   -8.6180
   -8.5093   -8.5093   -8.4949   -8.4949   -8.0803   -8.0803   -8.0670   -8.0670   -7.8784   -7.8784
   -7.6100   -7.6100   -7.4335   -7.4335   -7.1772   -7.1772   -6.9394   -6.9394   -6.7085   -6.7085
   -6.6426   -6.6426   -6.4503   -6.4503   -6.3536   -6.3536   -6.3036   -6.3036   -6.2428   -6.2428
   -6.2263   -6.2263   -6.0044   -6.0044   -5.5128   -5.5128   -4.3577   -4.3577   -3.2344   -3.2344
   -2.3956   -2.3956   -2.2796   -2.2796   -2.2490   -2.2490   -1.9562   -1.9562   -1.8994   -1.8994
   -1.8117   -1.8117   -1.7683   -1.7683   -1.6417   -1.6417   -1.3084   -1.3084   -1.2509   -1.2509
   -1.0754   -1.0754   -0.6624   -0.6624   -0.4159   -0.4159   -0.3175   -0.3175    0.2985    0.2985
    0.3644    0.3644    0.4884    0.4884    0.7030    0.7030    0.7781    0.7781    1.1869    1.1869
    1.2906    1.2906    1.3503    1.3503    1.4246    1.4246    1.4300    1.4300    1.7498    1.7498
    2.0011    2.0011    2.0735    2.0735    2.5772    2.5772    2.6932    2.6932    2.7187    2.7187
    2.7834    2.7834    2.9536    2.9536    3.0210    3.0210    3.3648    3.3648    3.4309    3.4309
    3.7698    3.7698    3.9485    3.9485    4.0991    4.0991    4.1595    4.1595    4.2987    4.2987
    4.5024    4.5024    4.6660    4.6660    4.7077    4.7077    4.7733    4.7733    4.9599    4.9599
    5.1006    5.1006    5.2348    5.2348    5.2700    5.2700    5.5718    5.5718    5.5964    5.5964
    5.9167    5.9167    6.0087    6.0087    6.0197    6.0197    6.3381    6.3381    6.3759    6.3759
    6.4603    6.4603    6.5504    6.5504    6.6075    6.6075    6.6890    6.6890    7.0518    7.0518
    7.0604    7.0604    7.2189    7.2189    7.4644    7.4644    7.7580    7.7580    7.8862    7.8862
    8.0116    8.0116    8.0645    8.0645    8.1362    8.1362    8.2998    8.2998    8.6232    8.6232
    8.7351    8.7351    8.9021    8.9021    8.9316    8.9316    8.9836    8.9836    9.2761    9.2761
    9.3503    9.3503    9.7013    9.7013    9.7742    9.7742    9.7869    9.7869    9.9778    9.9779
   10.0908   10.0908   10.3612   10.3612   10.4683   10.4683   10.9468   10.9468   11.0168   11.0168
   11.2006   11.2006   11.2884   11.2884   11.9090   11.9090   12.1138   12.1138   12.1902   12.1902
   12.2366   12.2366   12.3052   12.3052   12.3427   12.3427   12.6007   12.6007   12.8039   12.8039
   12.9919   12.9919   13.1235   13.1235   13.5448   13.5448   13.6050   13.6050   13.9511   13.9511
   14.0605   14.0605   14.0942   14.0942   14.3067   14.3067   14.4994   14.4994   14.7468   14.7468
   15.1900   15.1900   15.6039   15.6039   16.0350   16.0350   16.5842   16.5842   16.7326   16.7326
   17.0283   17.0283   17.4743   17.4743   17.7631   17.7631   18.4940   18.4940   18.6754   18.6754
   19.3287   19.3287   19.6199   19.6199   20.0352   20.0352   20.1863   20.1863   20.4343   20.4343
   21.2191   21.2191   21.5094   21.5094   21.9831   21.9831   22.5021   22.5021   22.7523   22.7523
   23.2127   23.2127   23.5899   23.5899   23.7388   23.7388   23.9914   23.9914   24.6702   24.6702
   24.9314   24.9314   25.0526   25.0526   26.3538   26.3538   27.2779   27.2779   28.4595   28.4595
   28.8875   28.8875   29.2849   29.2849   29.5370   29.5370   30.0799   30.0799   30.1181   30.1181
   30.4504   30.4504   30.7711   30.7711   30.7952   30.7952   30.9325   30.9325   31.1849   31.1849
   31.4899   31.4899   31.7820   31.7820   32.3567   32.3567   32.9234   32.9234   33.5315   33.5315
   34.2115   34.2115   34.4179   34.4179   34.4998   34.4998   34.5970   34.5970   34.6346   34.6346
   35.2952   35.2952   35.5712   35.5712   35.8518   35.8518   36.6410   36.6410   37.0004   37.0004
   37.0609   37.0609   38.0730   38.0730   38.2866   38.2866   38.3580   38.3580   38.7536   38.7536
   38.8361   38.8361   39.4235   39.4235   40.3304   40.3304   40.4521   40.4521   40.7262   40.7262
   40.8471   40.8471   41.0376   41.0376   41.3927   41.3927   41.6307   41.6307   42.1802   42.1802
   42.8034   42.8034   42.9857   42.9857   43.4027   43.4027   43.5378   43.5378   43.8675   43.8675
   44.0706   44.0706   44.5492   44.5492   44.6201   44.6201   44.9245   44.9245   45.1037   45.1037
   45.2560   45.2560   46.2752   46.2752   46.5913   46.5913   47.4625   47.4625   47.5868   47.5868
   48.0114   48.0114   49.2491   49.2491   49.4596   49.4596   49.4936   49.4936   50.7460   50.7460
   50.7742   50.7742   51.1818   51.1818   51.2813   51.2813   51.5551   51.5551   51.5756   51.5756
   52.1684   52.1684   52.6195   52.6195   53.5523   53.5523   55.0622   55.0622   55.0779   55.0779
   55.4442   55.4442   55.7812   55.7812   56.2382   56.2382   56.5453   56.5453   57.2492   57.2492
   57.3020   57.3020   58.2334   58.2334   58.2645   58.2645   59.8988   59.8988   60.2071   60.2071
   60.8294   60.8294   61.1882   61.1882   61.9771   61.9771   62.3110   62.3110   63.4093   63.4093
   64.6207   64.6207   64.8064   64.8064   65.3736   65.3736   65.9848   65.9848   67.1605   67.1605
   67.7108   67.7108   68.9252   68.9252   69.1437   69.1437   71.0495   71.0495   71.1510   71.1510
   74.7011   74.7011   85.5364   85.5364   90.8912   90.8912   91.8223   91.8223   93.9070   93.9070
   98.5602   98.5602   99.9324   99.9324  102.8886  102.8886  103.5866  103.5866  104.6759  104.6759
  112.3406  112.3406  114.0684  114.0684  124.2672  124.2672  126.7568  126.7568  133.3067  133.3067
  143.6970  143.6970  144.0051  144.0051
siesta: Fermi energy =      -3.796722 eV

siesta: Program's energy decomposition (eV):
siesta: Ebs     =     -1134.661038
siesta: Eions   =      3585.165840
siesta: Ena     =       384.861966
siesta: Ekin    =      2907.744355
siesta: Enl     =     -2795.620853
siesta: Eso     =        -0.004268
siesta: Edftu   =         0.000000
siesta: DEna    =        47.788151
siesta: DUscf   =        14.030001
siesta: DUext   =         0.000000
siesta: Exc     =     -1120.869917
siesta: eta*DQ  =         0.000000
siesta: Emadel  =         0.000000
siesta: Emeta   =         0.000000
siesta: Emolmec =         0.000000
siesta: Ekinion =         0.000000
siesta: Eharris =     -4147.236404
siesta: Etot    =     -4147.236404
siesta: FreeEng =     -4147.236404

siesta: Final energy (eV):
siesta:  Band Struct. =   -1134.661038
siesta:       Kinetic =    2907.744355
siesta:       Hartree =    8706.098802
siesta:       Edftu   =       0.000000
siesta:       Eso     =      -0.004268
siesta:    Ext. field =       0.000000
siesta:   Exch.-corr. =   -1120.869917
siesta:  Ion-electron =  -19999.565469
siesta:       Ion-ion =    5359.360093
siesta:       Ekinion =       0.000000
siesta:         Total =   -4147.236404
siesta:         Fermi =      -3.796722

siesta: Atomic forces (eV/Ang):
siesta:      1    1.550168   -2.875347    0.000000
siesta:      2   -0.058945   -0.015342   -0.000000
siesta:      3   -0.296504    0.216931   -0.000000
siesta:      4   -0.337967   -0.097701    0.000000
siesta:      5   -0.032108    0.014428    0.000000
siesta:      6   -0.354129   -0.019432    0.000000
siesta:      7   -0.026791    0.093091   -0.000000
siesta:      8    0.205706   -0.071945    0.000000
siesta:      9    0.200045   -0.443353    0.000000
siesta:     10    0.574111   -0.034017   -0.000000
siesta:     11   -0.019616    0.034891    0.000000
siesta:     12    0.054338   -0.052523    0.000000
siesta:     13    0.008587    0.079000   -0.000000
siesta:     14    0.036110    0.012251   -0.000000
siesta:     15    0.575659    0.329429   -0.000000
siesta:     16    0.051682    0.167219    0.000000
siesta:     17   -0.529079    0.353253   -0.000000
siesta:     18    0.091518   -0.075953    0.000000
siesta:     19    0.025933    0.558933   -0.000000
siesta:     20   -0.023257    0.161535   -0.000000
siesta:     21    0.143270   -0.497587    0.000000
siesta:     22    0.483996   -0.022318    0.000000
siesta:     23   -0.089432   -0.247907    0.000000
siesta:     24   -0.100785    0.038293    0.000000
siesta:     25    0.008871    0.006647   -0.000000
siesta:     26   -0.095273    0.114705    0.000000
siesta:     27   -0.326035   -0.237972    0.000000
siesta:     28    2.128662    2.180914    0.000000
siesta:     29    0.090739    0.119436   -0.000000
siesta: ----------------------------------------
siesta:    Tot    3.939474   -0.210443   -0.000000

siesta: Stress tensor (static) (eV/Ang**3):
siesta:     0.000668    0.000310   -0.000000
siesta:     0.000310    0.000124   -0.000000
siesta:     0.000000    0.000000   -0.000048

siesta: Cell volume =       4713.098203 Ang**3

siesta: Pressure (static):
siesta:                Solid            Molecule  Units
siesta:          -0.00000270          0.00000093  Ry/Bohr**3
siesta:          -0.00024790          0.00008528  eV/Ang**3
siesta:          -0.39717884          0.13663328  kBar
(Free)E+ p_basis*V_orbitals  =       -4127.385987
(Free)Eharris+ p_basis*V_orbitals  =       -4127.385987
     spin moment: S , {S} =    0.00000   0.00000   0.00000  -0.00000

siesta: Electric dipole (a.u.)  =    1.476782    0.082445    0.000000
siesta: Electric dipole (Debye) =    3.753607    0.209553    0.000000

cite: Please see "GC.bib" for an exhaustive BiBTeX file.
cite: Please clearly indicate Siesta version in published work: v4.1.5-1-g384057250
cite: This calculation has made use of the following articles
cite: which are encouraged to be cited in a published work.
        Primary SIESTA paper
          DOI: www.doi.org/10.1088/0953-8984/14/11/302
        Spin-orbit coupling (on-site approximation)
          DOI: www.doi.org/10.1088/0953-8984/19/19/489001


WARNING: alloc-realloc-dealloc name mismatch
         Name: atomlist isa
         Size:              -116. Bytes
         Node:     0
         Subsequent mismatches will not be reported
>> End of run:  22-MAY-2023  17:15:12
Job completed
