Siesta Version  : v4.1.5-1-g384057250
Architecture    : gcc
Compiler version: GNU Fortran (Ubuntu 11.3.0-1ubuntu1~22.04) 11.3.0
Compiler flags  : mpifort -O2 -fPIC -ftree-vectorize -fallow-argument-mismatch
PP flags        : -DFC_HAVE_ABORT -DMPI -DSIESTA__FLOOK -DSIESTA__METIS -DSIESTA__MUMPS -DCDF -DNCDF -DNCDF_4 -DNCDF_PARALLEL -DSIESTA__MRRR -DSIESTA__ELPA
Libraries       : libncdf.a libfdict.a  -lflookall -ldl -lnetcdff -lnetcdf -lhdf5_hl -lhdf5 -lhdf5_fortran -lz -lscalapack-openmpi -lopenblas -lmetis -lzmumps -lcmumps -ldmumps -lmumps_common -lpord -lsmumps -lesmumps -lscotch -lscotcherr -fopenmp -lelpa
PARALLEL version
NetCDF support
NetCDF-4 support
NetCDF-4 MPI-IO support
METIS ordering support
Lua support

* Running on 4 nodes in parallel
>> Start of run:   4-JUL-2023  10:06:50

                           ***********************       
                           *  WELCOME TO SIESTA  *       
                           ***********************       

reinit: Reading from standard input
reinit: Dumped input in INPUT_TMP.37342
************************** Dump of input data file ****************************
SystemLabel      GC
NumberOfAtoms    29
NumberOfSpecies  4
%block ChemicalSpeciesLabel
    1    8  O
    2    7  N
    3   14  Si
    4    1  H
%endblock ChemicalSpeciesLabel
# Single point calculation
MD.TypeOfRun                CG
MD.Steps                    0
SCF.MustConverge            F # In case it does not. There can be 2 very close atoms
AtomicCoordinatesFormat NotScaledCartesianAng
%block AtomicCoordinatesAndAtomicSpecies
0.958671510    3.803529300    0.000000000       1
-3.038688210   0.998073330    0.000000000       2
2.066567750    1.099065770    0.000000000       2
1.029569860    -1.834680850   0.000000000       2
-2.108567660   -1.881798240   0.000000000       2
3.912411070    -1.180894430   0.000000000       2
-1.235636790   1.044983000    0.000000000       3
-0.501909240   -1.031832280   0.000000000       3
0.629463280    2.232755840    0.000000000       3
2.280054370    -0.658293540   0.000000000       3
-3.424812990   -0.662324160   0.000000000       3
2.965974160    1.682263990    0.000000000       4
-4.796229390   -1.238728480   0.000000000       4
4.096559410    -2.214148760   0.000000000       4
4.792108680    -0.529147250   0.000000000       4
-2.266861300   -2.922393730   0.000000000       4
3.997305750    4.373919280    0.000000000       3
5.922783500    5.565548610    0.000000000       3
5.457977110    1.639364910    0.000000000       3
7.529157030    4.086411500    0.000000000       3
4.099590290    2.664564590    0.000000000       2
2.417927660    5.044148770    0.000000000       2
7.111047010    2.354528590    0.000000000       2
6.231274320    7.030209970    0.000000000       4
9.020829940    4.286390960    0.000000000       4
2.233301220    6.079022500    0.000000000       4
1.525835870    4.372860040    0.000000000       4
5.447846510    0.041136390    0.000000000       1
7.887645390    1.632698390    0.000000000       4
%endblock AtomicCoordinatesAndAtomicSpecies
%include ../../../Defaults.fdf
************************** End of input data file *****************************

reinit: -----------------------------------------------------------------------
reinit: System Name: 
reinit: -----------------------------------------------------------------------
reinit: System Label: GC
reinit: -----------------------------------------------------------------------

initatom: Reading input for the pseudopotentials and atomic orbitals ----------
Species number:   1 Atomic number:    8 Label: O
Species number:   2 Atomic number:    7 Label: N
Species number:   3 Atomic number:   14 Label: Si
Species number:   4 Atomic number:    1 Label: H

Ground state valence configuration:   2s02  2p04
Reading pseudopotential information in formatted form from O.psf

Pseudopotential generated from a relativistic atomic calculation

Valence configuration for pseudopotential generation:
2s( 2.00) rc: 0.45
2p( 4.00) rc: 0.92
3d( 0.00) rc: 2.24
4f( 0.00) rc: 0.25
Ground state valence configuration:   2s02  2p03
Reading pseudopotential information in formatted form from N.psf

Pseudopotential generated from a relativistic atomic calculation

Valence configuration for pseudopotential generation:
2s( 2.00) rc: 0.94
2p( 3.00) rc: 0.59
3d( 0.00) rc: 3.46
4f( 0.00) rc: 2.47
Ground state valence configuration:   3s02  3p02
Reading pseudopotential information in formatted form from Si.psf

Pseudopotential generated from a relativistic atomic calculation

Valence configuration for pseudopotential generation:
3s( 2.00) rc: 1.67
3p( 2.00) rc: 2.04
3d( 0.00) rc: 2.89
4f( 0.00) rc: 2.49
Ground state valence configuration:   1s01
Reading pseudopotential information in formatted form from H.psf

Pseudopotential generated from a relativistic atomic calculation

Valence configuration for pseudopotential generation:
1s( 1.00) rc: 0.01
2p( 0.00) rc: 0.60
3d( 0.00) rc: 1.99
4f( 0.00) rc: 2.49
For O, standard SIESTA heuristics set lmxkb to 3
 (one more than the basis l, including polarization orbitals).
Use PS.lmax or PS.KBprojectors blocks to override.
For N, standard SIESTA heuristics set lmxkb to 3
 (one more than the basis l, including polarization orbitals).
Use PS.lmax or PS.KBprojectors blocks to override.
For Si, standard SIESTA heuristics set lmxkb to 3
 (one more than the basis l, including polarization orbitals).
Use PS.lmax or PS.KBprojectors blocks to override.
For H, standard SIESTA heuristics set lmxkb to 2
 (one more than the basis l, including polarization orbitals).
Use PS.lmax or PS.KBprojectors blocks to override.

<basis_specs>
===============================================================================
O                    Z=   8    Mass=  16.000        Charge= 0.17977+309
Lmxo=1 Lmxkb= 3    BasisType=split      Semic=F
L=0  Nsemic=0  Cnfigmx=2
          i=1  nzeta=2  polorb=0  (2s)
            splnorm:   0.28000    
               vcte:    0.0000    
               rinn:    0.0000    
               qcoe:    0.0000    
               qyuk:    0.0000    
               qwid:   0.10000E-01
                rcs:    0.0000      0.0000    
            lambdas:    1.0000      1.0000    
L=1  Nsemic=0  Cnfigmx=2
          i=1  nzeta=2  polorb=1  (2p)
            splnorm:   0.28000    
               vcte:    0.0000    
               rinn:    0.0000    
               qcoe:    0.0000    
               qyuk:    0.0000    
               qwid:   0.10000E-01
                rcs:    0.0000      0.0000    
            lambdas:    1.0000      1.0000    
-------------------------------------------------------------------------------
L=0  Nkbl=1  erefs: 0.17977+309
L=1  Nkbl=1  erefs: 0.17977+309
L=2  Nkbl=1  erefs: 0.17977+309
L=3  Nkbl=1  erefs: 0.17977+309
===============================================================================
</basis_specs>

atom: Called for O                     (Z =   8)

read_vps: Pseudopotential generation method:
read_vps: ATM4.2.7  Troullier-Martins                       
Valence charge for ps generation:    6.00000

xc_check: Exchange-correlation functional:
xc_check: GGA Perdew, Burke & Ernzerhof 1996
V l=0 = -2*Zval/r beyond r=  1.1000
V l=1 = -2*Zval/r beyond r=  1.1000
V l=2 = -2*Zval/r beyond r=  2.2154
V l=3 = -2*Zval/r beyond r=  1.1000
All V_l potentials equal beyond r=  2.2154
This should be close to max(r_c) in ps generation
All pots = -2*Zval/r beyond r=  2.2154

VLOCAL1: 99.0% of the norm of Vloc inside      8.845 Ry
VLOCAL1: 99.9% of the norm of Vloc inside     20.157 Ry
atom: Maximum radius for 4*pi*r*r*local-pseudopot. charge    2.67231
atom: Maximum radius for r*vlocal+2*Zval:    2.32897
GHOST: No ghost state for L =  0
GHOST: No ghost state for L =  1
GHOST: No ghost state for L =  2
GHOST: No ghost state for L =  3

KBgen: Kleinman-Bylander projectors: 
   l= 0   rc=  2.243238   el= -1.759686   Ekb=**********   kbcos= -0.171774
   l= 1   rc=  2.328968   el= -0.663873   Ekb=-14.506792   kbcos= -0.519897
   l= 2   rc=  2.573941   el=  0.002031   Ekb= -1.137373   kbcos= -0.019581
   l= 3   rc=  2.606321   el=  0.003153   Ekb= -1.013546   kbcos= -0.003122

KBgen: Total number of Kleinman-Bylander projectors:   16
atom: -------------------------------------------------------------------------

atom: SANKEY-TYPE ORBITALS:
atom: Selected multiple-zeta basis: split     

SPLIT: Orbitals with angular momentum L= 0

SPLIT: Basis orbitals for state 2s

SPLIT: PAO cut-off radius determined from an
SPLIT: energy shift=  0.002000 Ry

   izeta = 1
                 lambda =    1.000000
                     rc =    4.243912
                 energy =   -1.758270
                kinetic =    3.286084
    potential(screened) =   -5.044353
       potential(ionic) =  -12.921184

   izeta = 2
                 rmatch =    2.187845
              splitnorm =    0.280000
                 energy =   -0.885018
                kinetic =    8.134434
    potential(screened) =   -9.019452
       potential(ionic) =  -17.710645

SPLIT: Orbitals with angular momentum L= 1

SPLIT: Basis orbitals for state 2p

SPLIT: PAO cut-off radius determined from an
SPLIT: energy shift=  0.002000 Ry

   izeta = 1
                 lambda =    1.000000
                     rc =    5.314825
                 energy =   -0.661986
                kinetic =    4.917472
    potential(screened) =   -5.579458
       potential(ionic) =  -13.236259

   izeta = 2
                 rmatch =    2.160663
              splitnorm =    0.280000
                 energy =   -0.068760
                kinetic =    9.183374
    potential(screened) =   -9.252135
       potential(ionic) =  -18.274251

POLgen: Perturbative polarization orbital with L=  2

POLgen: Polarization orbital for state 2p

   izeta = 1
                     rc =    5.314825
                 energy =    1.970580
                kinetic =    3.886128
    potential(screened) =   -1.915547
       potential(ionic) =   -7.749584
atom: Total number of Sankey-type orbitals: 13

atm_pop: Valence configuration (for local Pseudopot. screening):
 2s( 2.00)                                                            
 2p( 4.00)                                                            
Vna: chval, zval:    6.00000   6.00000

Vna:  Cut-off radius for the neutral-atom potential:   5.314825

atom: _________________________________________________________________________

<basis_specs>
===============================================================================
N                    Z=   7    Mass=  14.010        Charge= 0.17977+309
Lmxo=1 Lmxkb= 3    BasisType=split      Semic=F
L=0  Nsemic=0  Cnfigmx=2
          i=1  nzeta=2  polorb=0  (2s)
            splnorm:   0.28000    
               vcte:    0.0000    
               rinn:    0.0000    
               qcoe:    0.0000    
               qyuk:    0.0000    
               qwid:   0.10000E-01
                rcs:    0.0000      0.0000    
            lambdas:    1.0000      1.0000    
L=1  Nsemic=0  Cnfigmx=2
          i=1  nzeta=2  polorb=1  (2p)
            splnorm:   0.28000    
               vcte:    0.0000    
               rinn:    0.0000    
               qcoe:    0.0000    
               qyuk:    0.0000    
               qwid:   0.10000E-01
                rcs:    0.0000      0.0000    
            lambdas:    1.0000      1.0000    
-------------------------------------------------------------------------------
L=0  Nkbl=1  erefs: 0.17977+309
L=1  Nkbl=1  erefs: 0.17977+309
L=2  Nkbl=1  erefs: 0.17977+309
L=3  Nkbl=1  erefs: 0.17977+309
===============================================================================
</basis_specs>

atom: Called for N                     (Z =   7)

read_vps: Pseudopotential generation method:
read_vps: ATM4.2.7  Troullier-Martins                       
Valence charge for ps generation:    5.00000

xc_check: Exchange-correlation functional:
xc_check: GGA Perdew, Burke & Ernzerhof 1996
V l=0 = -2*Zval/r beyond r=  1.2889
V l=1 = -2*Zval/r beyond r=  1.2889
V l=2 = -2*Zval/r beyond r=  3.4178
V l=3 = -2*Zval/r beyond r=  2.4084
All V_l potentials equal beyond r=  3.3753
This should be close to max(r_c) in ps generation
All pots = -2*Zval/r beyond r=  3.4178

VLOCAL1: 99.0% of the norm of Vloc inside      3.810 Ry
VLOCAL1: 99.9% of the norm of Vloc inside      8.683 Ry
atom: Maximum radius for 4*pi*r*r*local-pseudopot. charge    4.02088
atom: Maximum radius for r*vlocal+2*Zval:    3.54838
GHOST: No ghost state for L =  0
GHOST: No ghost state for L =  1
GHOST: No ghost state for L =  2
GHOST: No ghost state for L =  3

KBgen: Kleinman-Bylander projectors: 
   l= 0   rc=  3.417763   el= -1.365098   Ekb= -4.433130   kbcos= -0.707855
   l= 1   rc=  3.375302   el= -0.521201   Ekb=-13.264039   kbcos= -0.535594
   l= 2   rc=  3.872880   el=  0.001991   Ekb= -0.641094   kbcos= -0.062456
   l= 3   rc=  3.970931   el=  0.003093   Ekb= -0.474517   kbcos= -0.018236

KBgen: Total number of Kleinman-Bylander projectors:   16
atom: -------------------------------------------------------------------------

atom: SANKEY-TYPE ORBITALS:
atom: Selected multiple-zeta basis: split     

SPLIT: Orbitals with angular momentum L= 0

SPLIT: Basis orbitals for state 2s

SPLIT: PAO cut-off radius determined from an
SPLIT: energy shift=  0.002000 Ry

   izeta = 1
                 lambda =    1.000000
                     rc =    4.730425
                 energy =   -1.363399
                kinetic =    1.245246
    potential(screened) =   -2.608645
       potential(ionic) =   -8.121105

   izeta = 2
                 rmatch =    2.531849
              splitnorm =    0.280000
                 energy =   -0.959908
                kinetic =    2.409435
    potential(screened) =   -3.369343
       potential(ionic) =   -9.427975

SPLIT: Orbitals with angular momentum L= 1

SPLIT: Basis orbitals for state 2p

SPLIT: PAO cut-off radius determined from an
SPLIT: energy shift=  0.002000 Ry

   izeta = 1
                 lambda =    1.000000
                     rc =    5.924108
                 energy =   -0.519262
                kinetic =    3.672940
    potential(screened) =   -4.192202
       potential(ionic) =   -9.518354

   izeta = 2
                 rmatch =    2.531849
              splitnorm =    0.280000
                 energy =   -0.104258
                kinetic =    6.807538
    potential(screened) =   -6.911796
       potential(ionic) =  -13.149920

POLgen: Perturbative polarization orbital with L=  2

POLgen: Polarization orbital for state 2p

   izeta = 1
                     rc =    5.924108
                 energy =    1.427508
                kinetic =    2.872379
    potential(screened) =   -1.444871
       potential(ionic) =   -5.563644
atom: Total number of Sankey-type orbitals: 13

atm_pop: Valence configuration (for local Pseudopot. screening):
 2s( 2.00)                                                            
 2p( 3.00)                                                            
Vna: chval, zval:    5.00000   5.00000

Vna:  Cut-off radius for the neutral-atom potential:   5.924108

atom: _________________________________________________________________________

<basis_specs>
===============================================================================
Si                   Z=  14    Mass=  28.090        Charge= 0.17977+309
Lmxo=1 Lmxkb= 3    BasisType=split      Semic=F
L=0  Nsemic=0  Cnfigmx=3
          i=1  nzeta=2  polorb=0  (3s)
            splnorm:   0.28000    
               vcte:    0.0000    
               rinn:    0.0000    
               qcoe:    0.0000    
               qyuk:    0.0000    
               qwid:   0.10000E-01
                rcs:    0.0000      0.0000    
            lambdas:    1.0000      1.0000    
L=1  Nsemic=0  Cnfigmx=3
          i=1  nzeta=2  polorb=1  (3p)
            splnorm:   0.28000    
               vcte:    0.0000    
               rinn:    0.0000    
               qcoe:    0.0000    
               qyuk:    0.0000    
               qwid:   0.10000E-01
                rcs:    0.0000      0.0000    
            lambdas:    1.0000      1.0000    
-------------------------------------------------------------------------------
L=0  Nkbl=1  erefs: 0.17977+309
L=1  Nkbl=1  erefs: 0.17977+309
L=2  Nkbl=1  erefs: 0.17977+309
L=3  Nkbl=1  erefs: 0.17977+309
===============================================================================
</basis_specs>

atom: Called for Si                    (Z =  14)

read_vps: Pseudopotential generation method:
read_vps: ATM4.2.7  Troullier-Martins                       
Valence charge for ps generation:    4.00000

xc_check: Exchange-correlation functional:
xc_check: GGA Perdew, Burke & Ernzerhof 1996
V l=0 = -2*Zval/r beyond r=  2.7826
V l=1 = -2*Zval/r beyond r=  2.7826
V l=2 = -2*Zval/r beyond r=  2.9253
V l=3 = -2*Zval/r beyond r=  2.7826
All V_l potentials equal beyond r=  2.8530
This should be close to max(r_c) in ps generation
All pots = -2*Zval/r beyond r=  2.9253

VLOCAL1: 99.0% of the norm of Vloc inside      5.333 Ry
VLOCAL1: 99.9% of the norm of Vloc inside     12.154 Ry
atom: Maximum radius for 4*pi*r*r*local-pseudopot. charge    3.39869
atom: Maximum radius for r*vlocal+2*Zval:    2.96205
GHOST: No ghost state for L =  0
GHOST: No ghost state for L =  1
GHOST: No ghost state for L =  2
GHOST: No ghost state for L =  3

KBgen: Kleinman-Bylander projectors: 
   l= 0   rc=  3.075247   el= -0.794092   Ekb=  5.879390   kbcos=  0.167461
   l= 1   rc=  3.153101   el= -0.300068   Ekb=  2.642817   kbcos=  0.058301
   l= 2   rc=  3.273594   el=  0.001958   Ekb= -1.185135   kbcos= -0.104411
   l= 3   rc=  3.232927   el=  0.003046   Ekb= -0.497174   kbcos= -0.015889

KBgen: Total number of Kleinman-Bylander projectors:   16
atom: -------------------------------------------------------------------------

atom: SANKEY-TYPE ORBITALS:
atom: Selected multiple-zeta basis: split     

SPLIT: Orbitals with angular momentum L= 0

SPLIT: Basis orbitals for state 3s

SPLIT: PAO cut-off radius determined from an
SPLIT: energy shift=  0.002000 Ry

   izeta = 1
                 lambda =    1.000000
                     rc =    6.429618
                 energy =   -0.792283
                kinetic =    0.525293
    potential(screened) =   -1.317576
       potential(ionic) =   -3.744923

   izeta = 2
                 rmatch =    3.998416
              splitnorm =    0.280000
                 energy =   -0.583081
                kinetic =    1.069570
    potential(screened) =   -1.652651
       potential(ionic) =   -4.235185

SPLIT: Orbitals with angular momentum L= 1

SPLIT: Basis orbitals for state 3p

SPLIT: PAO cut-off radius determined from an
SPLIT: energy shift=  0.002000 Ry

   izeta = 1
                 lambda =    1.000000
                     rc =    8.464845
                 energy =   -0.298236
                kinetic =    0.785360
    potential(screened) =   -1.083596
       potential(ionic) =   -3.273779

   izeta = 2
                 rmatch =    4.587816
              splitnorm =    0.280000
                 energy =   -0.131871
                kinetic =    1.403687
    potential(screened) =   -1.535557
       potential(ionic) =   -4.015310

POLgen: Perturbative polarization orbital with L=  2

POLgen: Polarization orbital for state 3p

   izeta = 1
                     rc =    8.464845
                 energy =    0.321949
                kinetic =    1.055677
    potential(screened) =   -0.733728
       potential(ionic) =   -2.672950
atom: Total number of Sankey-type orbitals: 13

atm_pop: Valence configuration (for local Pseudopot. screening):
 3s( 2.00)                                                            
 3p( 2.00)                                                            
Vna: chval, zval:    4.00000   4.00000

Vna:  Cut-off radius for the neutral-atom potential:   8.464845

atom: _________________________________________________________________________

<basis_specs>
===============================================================================
H                    Z=   1    Mass=  1.0100        Charge= 0.17977+309
Lmxo=0 Lmxkb= 2    BasisType=split      Semic=F
L=0  Nsemic=0  Cnfigmx=1
          i=1  nzeta=2  polorb=1  (1s)
            splnorm:   0.62000    
               vcte:    0.0000    
               rinn:    0.0000    
               qcoe:    0.0000    
               qyuk:    0.0000    
               qwid:   0.10000E-01
                rcs:    0.0000      0.0000    
            lambdas:    1.0000      1.0000    
-------------------------------------------------------------------------------
L=0  Nkbl=1  erefs: 0.17977+309
L=1  Nkbl=1  erefs: 0.17977+309
L=2  Nkbl=1  erefs: 0.17977+309
===============================================================================
</basis_specs>

atom: Called for H                     (Z =   1)

read_vps: Pseudopotential generation method:
read_vps: ATM4.2.7  Troullier-Martins                       
Valence charge for ps generation:    1.00000

xc_check: Exchange-correlation functional:
xc_check: GGA Perdew, Burke & Ernzerhof 1996
V l=0 = -2*Zval/r beyond r=  0.0098
V l=1 = -2*Zval/r beyond r=  0.5817
V l=2 = -2*Zval/r beyond r=  1.9372
All V_l potentials equal beyond r=  1.9372
This should be close to max(r_c) in ps generation
All pots = -2*Zval/r beyond r=  1.9372

VLOCAL1: 99.0% of the norm of Vloc inside     11.567 Ry
VLOCAL1: 99.9% of the norm of Vloc inside     26.362 Ry
atom: Maximum radius for 4*pi*r*r*local-pseudopot. charge    2.25106
atom: Maximum radius for r*vlocal+2*Zval:    1.91306
GHOST: No ghost state for L =  0
GHOST: No ghost state for L =  1
GHOST: No ghost state for L =  2

KBgen: Kleinman-Bylander projectors: 
   l= 0   rc=  2.036604   el= -0.477180   Ekb= -6.081590   kbcos= -0.277285
   l= 1   rc=  2.195416   el=  0.001076   Ekb= -0.926943   kbcos= -0.034643
   l= 2   rc=  2.251056   el=  0.002010   Ekb= -0.130941   kbcos= -0.009788

KBgen: Total number of Kleinman-Bylander projectors:    9
atom: -------------------------------------------------------------------------

atom: SANKEY-TYPE ORBITALS:
atom: Selected multiple-zeta basis: split     

SPLIT: Orbitals with angular momentum L= 0

SPLIT: Basis orbitals for state 1s

SPLIT: PAO cut-off radius determined from an
SPLIT: energy shift=  0.002000 Ry

   izeta = 1
                 lambda =    1.000000
                     rc =    6.518340
                 energy =   -0.475305
                kinetic =    0.912139
    potential(screened) =   -1.387444
       potential(ionic) =   -1.907295

   izeta = 2
                 rmatch =    2.141150
              splitnorm =    0.620000
                 energy =    0.566467
                kinetic =    3.772856
    potential(screened) =   -3.206389
       potential(ionic) =   -3.759093

POLgen: Perturbative polarization orbital with L=  1

POLgen: Polarization orbital for state 1s

   izeta = 1
                     rc =    6.518340
                 energy =    0.533861
                kinetic =    1.121086
    potential(screened) =   -0.587225
       potential(ionic) =   -1.053027
atom: Total number of Sankey-type orbitals:  5

atm_pop: Valence configuration (for local Pseudopot. screening):
 1s( 1.00)                                                            
Vna: chval, zval:    1.00000   1.00000

Vna:  Cut-off radius for the neutral-atom potential:   6.518340

atom: _________________________________________________________________________

prinput: Basis input ----------------------------------------------------------

PAO.BasisType split     

%block ChemicalSpeciesLabel
    1    8 O                       # Species index, atomic number, species label
    2    7 N                       # Species index, atomic number, species label
    3   14 Si                      # Species index, atomic number, species label
    4    1 H                       # Species index, atomic number, species label
%endblock ChemicalSpeciesLabel

%block PAO.Basis                 # Define Basis set
O                     2                    # Species label, number of l-shells
 n=2   0   2                         # n, l, Nzeta 
   4.244      2.188   
   1.000      1.000   
 n=2   1   2 P   1                   # n, l, Nzeta, Polarization, NzetaPol
   5.315      2.161   
   1.000      1.000   
N                     2                    # Species label, number of l-shells
 n=2   0   2                         # n, l, Nzeta 
   4.730      2.532   
   1.000      1.000   
 n=2   1   2 P   1                   # n, l, Nzeta, Polarization, NzetaPol
   5.924      2.532   
   1.000      1.000   
Si                    2                    # Species label, number of l-shells
 n=3   0   2                         # n, l, Nzeta 
   6.430      3.998   
   1.000      1.000   
 n=3   1   2 P   1                   # n, l, Nzeta, Polarization, NzetaPol
   8.465      4.588   
   1.000      1.000   
H                     1                    # Species label, number of l-shells
 n=1   0   2 P   1                   # n, l, Nzeta, Polarization, NzetaPol
   6.518      2.141   
   1.000      1.000   
%endblock PAO.Basis

prinput: ----------------------------------------------------------------------

Dumping basis to NetCDF file O.ion.nc
Dumping basis to NetCDF file N.ion.nc
Dumping basis to NetCDF file Si.ion.nc
Dumping basis to NetCDF file H.ion.nc
coor:   Atomic-coordinates input format  =     Cartesian coordinates
coor:                                          (in Angstroms)

siesta: Atomic coordinates (Bohr) and species
siesta:      1.81163   7.18763   0.00000  1        1
siesta:     -5.74229   1.88609   0.00000  2        2
siesta:      3.90525   2.07693   0.00000  2        3
siesta:      1.94561  -3.46705   0.00000  2        4
siesta:     -3.98462  -3.55608   0.00000  2        5
siesta:      7.39339  -2.23157   0.00000  2        6
siesta:     -2.33502   1.97473   0.00000  3        7
siesta:     -0.94847  -1.94988   0.00000  3        8
siesta:      1.18951   4.21930   0.00000  3        9
siesta:      4.30868  -1.24399   0.00000  3       10
siesta:     -6.47196  -1.25161   0.00000  3       11
siesta:      5.60488   3.17902   0.00000  4       12
siesta:     -9.06356  -2.34086   0.00000  4       13
siesta:      7.74138  -4.18414   0.00000  4       14
siesta:      9.05578  -0.99994   0.00000  4       15
siesta:     -4.28375  -5.52253   0.00000  4       16
siesta:      7.55382   8.26551   0.00000  3       17
siesta:     11.19244  10.51737   0.00000  3       18
siesta:     10.31409   3.09795   0.00000  3       19
siesta:     14.22805   7.72220   0.00000  3       20
siesta:      7.74711   5.03530   0.00000  2       21
siesta:      4.56922   9.53206   0.00000  2       22
siesta:     13.43794   4.44942   0.00000  2       23
siesta:     11.77541  13.28518   0.00000  4       24
siesta:     17.04690   8.10011   0.00000  4       25
siesta:      4.22033  11.48769   0.00000  4       26
siesta:      2.88341   8.26351   0.00000  4       27
siesta:     10.29494   0.07774   0.00000  1       28
siesta:     14.90550   3.08535   0.00000  4       29

siesta: Automatic unit cell vectors (Ang):
siesta:   22.787348    0.000000    0.000000
siesta:    0.000000   18.536447    0.000000
siesta:    0.000000    0.000000    9.854683

siesta: System type = molecule  

initatomlists: Number of atoms, orbitals, and projectors:     29   297   394

siesta: ******************** Simulation parameters ****************************
siesta:
siesta: The following are some of the parameters of the simulation.
siesta: A complete list of the parameters used, including default values,
siesta: can be found in file out.fdf
siesta:
redata: Spin configuration                          = spin-orbit
redata: Number of spin components                   = 8
redata: Time-Reversal Symmetry                      = F
redata: Spin spiral                                 = F
############################################################
This spin-orbit implementation uses a local approximation.
From 4.2 and onwards the full non-local approximation is implemented
You are strongly advised to use >=4.2 versions!
############################################################
redata: Long output                                 =   F
redata: Number of Atomic Species                    =        4
redata: Charge density info will appear in .RHO file
redata: Write Mulliken Pop.                         = Atomic and Orbital charges
redata: Matel table size (NRTAB)                    =     1024
redata: Mesh Cutoff                                 =   340.0000 Ry
redata: Net charge of the system                    =     0.0000 |e|
redata: Min. number of SCF Iter                     =        1
redata: Max. number of SCF Iter                     =      200
redata: SCF mix quantity                            = Hamiltonian
redata: Mix DM or H after convergence               =   F
redata: Recompute H after scf cycle                 =   F
redata: Mix DM in first SCF step                    =   T
redata: Write Pulay info on disk                    =   F
redata: New DM Occupancy tolerance                  = 0.000000000001
redata: No kicks to SCF
redata: DM Mixing Weight for Kicks                  =     0.5000
redata: Require Harris convergence for SCF          =   F
redata: Harris energy tolerance for SCF             =     0.000100 eV
redata: Require DM convergence for SCF              =   T
redata: DM tolerance for SCF                        =     0.000008
redata: Require EDM convergence for SCF             =   F
redata: EDM tolerance for SCF                       =     0.001000 eV
redata: Require H convergence for SCF               =   T
redata: Hamiltonian tolerance for SCF               =     0.000001 eV
redata: Require (free) Energy convergence for SCF   =   F
redata: (free) Energy tolerance for SCF             =     0.000100 eV
redata: Using Saved Data (generic)                  =   F
redata: Use continuation files for DM               =   F
redata: Neglect nonoverlap interactions             =   F
redata: Method of Calculation                       = Diagonalization
redata: Electronic Temperature                      =   299.9978 K
redata: Fix the spin of the system                  =   F
redata: Dynamics option                             = Single-point calculation
mix.SCF: Pulay mixing                            = Pulay
mix.SCF:    Variant                              = stable
mix.SCF:    History steps                        = 6
mix.SCF:    Linear mixing weight                 =     0.250000
mix.SCF:    Mixing weight                        =     0.250000
mix.SCF:    SVD condition                        = 0.1000E-07
mix.SCF:    Restart steps                        = 24
mix.SCF:    Restart save steps                   = 3
mix.SCF: Spin-component mixing                   all
redata: Save all siesta data in one NC              =   F
redata: ***********************************************************************

%block SCF.Mixers
  Pulay
%endblock SCF.Mixers

%block SCF.Mixer.Pulay
  # Mixing method
  method pulay
  variant stable

  # Mixing options
  weight 0.2500
  weight.linear 0.2500
  history 6
  restart 24
  restart.save 3
%endblock SCF.Mixer.Pulay

DM_history_depth set to one: no extrapolation allowed by default for geometry relaxation
Size of DM history Fstack: 1
Total number of electrons:    98.000000
Total ionic charge:    98.000000

* ProcessorY, Blocksize:    2  24


* Orbital distribution balance (max,min):    81    72


Time-reversal symmetry not used.

siesta: k-grid: Number of k-points =     1
siesta: k-grid: Cutoff (effective) =     4.927 Ang
siesta: k-grid: Supercell and displacements
siesta: k-grid:    1   0   0      0.000
siesta: k-grid:    0   1   0      0.000
siesta: k-grid:    0   0   1      0.000

diag: Algorithm                                     = ELPA-1stage
diag: Parallel over k                               =   F
diag: Use parallel 2D distribution                  =   T
diag: Parallel block-size                           = 24
diag: Parallel distribution                         =     2 x     2
diag: Used triangular part                          = Lower
diag: Absolute tolerance                            =  0.100E-15
diag: Orthogonalization factor                      =  0.100E-05
diag: Memory factor                                 =  1.0000


ts: **************************************************************
ts: Save H and S matrices                           =    F
ts: Save DM and EDM matrices                        =    F
ts: Only save the overlap matrix S                  =    F
ts: **************************************************************

************************ Begin: TS CHECKS AND WARNINGS ************************
************************ End: TS CHECKS AND WARNINGS **************************


                     ====================================
                        Single-point calculation
                     ====================================

outcoor: Atomic coordinates (Ang):                          
    0.95867151    3.80352930    0.00000000   1       1  O
   -3.03868821    0.99807333    0.00000000   2       2  N
    2.06656775    1.09906577    0.00000000   2       3  N
    1.02956986   -1.83468085    0.00000000   2       4  N
   -2.10856766   -1.88179824    0.00000000   2       5  N
    3.91241107   -1.18089443    0.00000000   2       6  N
   -1.23563679    1.04498300    0.00000000   3       7  Si
   -0.50190924   -1.03183228    0.00000000   3       8  Si
    0.62946328    2.23275584    0.00000000   3       9  Si
    2.28005437   -0.65829354    0.00000000   3      10  Si
   -3.42481299   -0.66232416    0.00000000   3      11  Si
    2.96597416    1.68226399    0.00000000   4      12  H
   -4.79622939   -1.23872848    0.00000000   4      13  H
    4.09655941   -2.21414876    0.00000000   4      14  H
    4.79210868   -0.52914725    0.00000000   4      15  H
   -2.26686130   -2.92239373    0.00000000   4      16  H
    3.99730575    4.37391928    0.00000000   3      17  Si
    5.92278350    5.56554861    0.00000000   3      18  Si
    5.45797711    1.63936491    0.00000000   3      19  Si
    7.52915703    4.08641150    0.00000000   3      20  Si
    4.09959029    2.66456459    0.00000000   2      21  N
    2.41792766    5.04414877    0.00000000   2      22  N
    7.11104701    2.35452859    0.00000000   2      23  N
    6.23127432    7.03020997    0.00000000   4      24  H
    9.02082994    4.28639096    0.00000000   4      25  H
    2.23330122    6.07902250    0.00000000   4      26  H
    1.52583587    4.37286004    0.00000000   4      27  H
    5.44784651    0.04113639    0.00000000   1      28  O
    7.88764539    1.63269839    0.00000000   4      29  H

outcell: Unit cell vectors (Ang):
       22.787348    0.000000    0.000000
        0.000000   18.536447    0.000000
        0.000000    0.000000    9.854683

outcell: Cell vector modules (Ang)   :   22.787348   18.536447    9.854683
outcell: Cell angles (23,13,12) (deg):     90.0000     90.0000     90.0000
outcell: Cell volume (Ang**3)        :   4162.5834
<dSpData1D:S at geom step 0
  <sparsity:sparsity for geom step 0
    nrows_g=297 nrows=81 sparsity=.2443 nnzs=21550, refcount: 8>
  <dData1D:(new from dSpData1D) n=21550, refcount: 1>
refcount: 1>
new_DM -- step:     1
Initializing Density Matrix...
DM filled with atomic data:
<dSpData2D:DM initialized from atoms
  <sparsity:sparsity for geom step 0
    nrows_g=297 nrows=81 sparsity=.2443 nnzs=21550, refcount: 9>
  <dData2D:DM n=21550 m=8, refcount: 1>
refcount: 1>
     spin moment: S , {S} =   56.00000   0.00000   0.00000  56.00000
No. of atoms with KB's overlaping orbs in proc 0. Max # of overlaps:      29     231

Initializing spin-orbit part of the Hamiltonian
  Adding spin-orbit effects for O 
  Adding spin-orbit effects for N 
  Adding spin-orbit effects for Si
  Adding spin-orbit effects for H 


New grid distribution:   1
           1       1:  128    1:   54    1:   30
           2       1:  128    1:   54   31:   60
           3       1:  128   55:  108    1:   30
           4       1:  128   55:  108   31:   60

InitMesh: MESH =   256 x   216 x   120 =     6635520
InitMesh: (bp) =   128 x   108 x    60 =      829440
InitMesh: Mesh cutoff (required, used) =   340.000   348.814 Ry
ExtMesh (bp) on 0 =   232 x   162 x   142 =     5336928
New grid distribution:   2
           1      28:  128    1:   23    1:   60
           2       1:   27    1:   21    1:   60
           3      28:  128   24:  108    1:   60
           4       1:   27   22:  108    1:   60
New grid distribution:   3
           1      42:  128    1:   32    1:   60
           2       1:   41    1:   37    1:   60
           3      42:  128   33:  108    1:   60
           4       1:   41   38:  108    1:   60
Setting up quadratic distribution...
ExtMesh (bp) on 0 =   205 x   131 x   172 =     4619060
PhiOnMesh: Number of (b)points on node 0 =               139380
PhiOnMesh: nlist on node 0 =              2601956

stepf: Fermi-Dirac step function

siesta: Program's energy decomposition (eV):
siesta: Ebs     =      -576.074750
siesta: Eions   =      3585.165840
siesta: Ena     =       402.598116
siesta: Ekin    =      3448.212130
siesta: Enl     =     -3379.574445
siesta: Eso     =        -0.003504
siesta: Edftu   =         0.000000
siesta: DEna    =       158.525530
siesta: DUscf   =        87.573670
siesta: DUext   =         0.000000
siesta: Exc     =     -1221.386762
siesta: eta*DQ  =         0.000000
siesta: Emadel  =         0.000000
siesta: Emeta   =         0.000000
siesta: Emolmec =         0.000000
siesta: Ekinion =         0.000000
siesta: Eharris =     -3982.936505
siesta: Etot    =     -4089.221106
siesta: FreeEng =     -4089.223158

        iscf     Eharris(eV)        E_KS(eV)     FreeEng(eV)     dDmax    Ef(eV) dHmax(eV)
   scf:    1    -3982.936505    -4089.221106    -4089.223158  0.962003 -4.916897 23.257989
     spin moment: S , {S} =    2.01266  -0.00000  -0.00000   2.01266
timer: Routine,Calls,Time,% = IterSCF        1      13.324  18.33
   scf:    2    -4143.129919    -4129.133092    -4129.133696  0.477599 -4.163462 10.265943
     spin moment: S , {S} =    1.99953   0.00000   0.00000   1.99953
   scf:    3    -4101.896226    -4125.394154    -4125.436255  0.429771 -4.091967 11.045671
     spin moment: S , {S} =    2.23845  -0.00000   0.00000   2.23845
   scf:    4    -4140.857026    -4136.250780    -4136.250794  0.270097 -3.774774  5.746409
     spin moment: S , {S} =    0.00015  -0.00000   0.00000   0.00015
   scf:    5    -4137.562154    -4137.091766    -4137.091767  0.049279 -3.591844  4.969354
     spin moment: S , {S} =    0.00007  -0.00000   0.00000   0.00007
   scf:    6    -4138.088358    -4137.601157    -4137.601157  0.030431 -3.545409  2.412175
     spin moment: S , {S} =    0.00003   0.00000   0.00000   0.00003
   scf:    7    -4137.975087    -4137.788796    -4137.788796  0.018630 -3.610401  1.073820
     spin moment: S , {S} =    0.00001   0.00000   0.00000   0.00001
   scf:    8    -4137.979525    -4137.881507    -4137.881507  0.016876 -3.712525  0.327791
     spin moment: S , {S} =    0.00000   0.00000  -0.00000   0.00000
   scf:    9    -4137.920592    -4137.900355    -4137.900355  0.006904 -3.743897  0.193895
     spin moment: S , {S} =    0.00000   0.00000   0.00000   0.00000
   scf:   10    -4137.932038    -4137.914807    -4137.914807  0.010363 -3.749653  0.102163
     spin moment: S , {S} =    0.00000  -0.00000  -0.00000   0.00000
   scf:   11    -4137.922356    -4137.918302    -4137.918302  0.005619 -3.746572  0.061690
     spin moment: S , {S} =    0.00000   0.00000   0.00000   0.00000
   scf:   12    -4137.921026    -4137.919583    -4137.919583  0.003299 -3.741264  0.044338
     spin moment: S , {S} =    0.00000   0.00000  -0.00000   0.00000
   scf:   13    -4137.921601    -4137.920500    -4137.920500  0.003458 -3.742237  0.032505
     spin moment: S , {S} =    0.00000   0.00000  -0.00000   0.00000
   scf:   14    -4137.921765    -4137.921033    -4137.921033  0.003846 -3.738277  0.019269
     spin moment: S , {S} =    0.00000   0.00000  -0.00000   0.00000
   scf:   15    -4137.921305    -4137.921149    -4137.921149  0.001862 -3.738028  0.011569
     spin moment: S , {S} =    0.00000   0.00000  -0.00000   0.00000
   scf:   16    -4137.921242    -4137.921189    -4137.921189  0.001201 -3.738328  0.007154
     spin moment: S , {S} =    0.00000   0.00000  -0.00000   0.00000
   scf:   17    -4137.921225    -4137.921205    -4137.921205  0.000721 -3.738499  0.004496
     spin moment: S , {S} =    0.00000   0.00000  -0.00000   0.00000
   scf:   18    -4137.921224    -4137.921213    -4137.921213  0.000591 -3.738450  0.002545
     spin moment: S , {S} =    0.00000   0.00000  -0.00000   0.00000
   scf:   19    -4137.921222    -4137.921217    -4137.921217  0.000455 -3.738347  0.000831
     spin moment: S , {S} =    0.00000   0.00000  -0.00000  -0.00000
   scf:   20    -4137.921218    -4137.921217    -4137.921217  0.000112 -3.738329  0.000548
     spin moment: S , {S} =    0.00000   0.00000  -0.00000  -0.00000
   scf:   21    -4137.921217    -4137.921217    -4137.921217  0.000059 -3.738286  0.000358
     spin moment: S , {S} =    0.00000   0.00000  -0.00000  -0.00000
   scf:   22    -4137.921217    -4137.921217    -4137.921217  0.000031 -3.738283  0.000227
     spin moment: S , {S} =    0.00000   0.00000  -0.00000  -0.00000
   scf:   23    -4137.921217    -4137.921217    -4137.921217  0.000016 -3.738289  0.000138
     spin moment: S , {S} =    0.00000  -0.00000  -0.00000  -0.00000
   scf:   24    -4137.921217    -4137.921217    -4137.921217  0.000012 -3.738294  0.000087
     spin moment: S , {S} =    0.00000  -0.00000  -0.00000  -0.00000
mix: Pulay -- resetting history
   scf:   25    -4137.921217    -4137.921217    -4137.921217  0.000007 -3.738294  0.000057
     spin moment: S , {S} =    0.00000   0.00000  -0.00000  -0.00000
   scf:   26    -4137.921217    -4137.921217    -4137.921217  0.000004 -3.738294  0.000036
     spin moment: S , {S} =    0.00000   0.00000  -0.00000  -0.00000
   scf:   27    -4137.921217    -4137.921217    -4137.921217  0.000004 -3.738293  0.000020
     spin moment: S , {S} =    0.00000   0.00000  -0.00000  -0.00000
   scf:   28    -4137.921217    -4137.921217    -4137.921217  0.000002 -3.738292  0.000009
     spin moment: S , {S} =    0.00000   0.00000  -0.00000  -0.00000
   scf:   29    -4137.921217    -4137.921217    -4137.921217  0.000001 -3.738292  0.000005
     spin moment: S , {S} =    0.00000   0.00000  -0.00000  -0.00000
   scf:   30    -4137.921217    -4137.921217    -4137.921217  0.000001 -3.738292  0.000001
     spin moment: S , {S} =    0.00000   0.00000  -0.00000   0.00000
   scf:   31    -4137.921217    -4137.921217    -4137.921217  0.000000 -3.738293  0.000001
     spin moment: S , {S} =    0.00000   0.00000  -0.00000  -0.00000

SCF Convergence by DM+H criterion
max |DM_out - DM_in|         :     0.0000001844
max |H_out - H_in|      (eV) :     0.0000008459
SCF cycle converged after 31 iterations

Using DM_out to compute the final energy and forces
No. of atoms with KB's overlaping orbs in proc 0. Max # of overlaps:      29     231

siesta: E_KS(eV) =            -4137.9212

siesta: E_KS - E_eggbox =     -4137.9212
     spin moment: S , {S} =    0.00000   0.00000  -0.00000  -0.00000

siesta: Atomic forces (eV/Ang):
     1  -18.815003  -22.653979    0.000000
     2   -0.069613    0.000490    0.000000
     3   -2.223000   -0.721881    0.000000
     4   -1.034001   -0.059163   -0.000000
     5   -0.094989    0.130271   -0.000000
     6   -9.511679   -6.626520    0.000000
     7   -0.042204    0.345070   -0.000000
     8    0.448431   -0.405711   -0.000000
     9   -0.277299   -2.084589    0.000000
    10    0.815905   -0.882365    0.000000
    11    0.042833    0.009072    0.000000
    12    0.355253    0.513499   -0.000000
    13   -0.193188    0.020005   -0.000000
    14   -0.530615   -0.599394   -0.000000
    15   -7.747855   -6.840054   -0.000000
    16    0.000394   -0.160018    0.000000
    17   -0.715394    1.958547    0.000000
    18    0.250355   -0.330494   -0.000000
    19    0.945518    1.688893    0.000000
    20    0.120785    0.619269    0.000000
    21    1.727453   -0.082961   -0.000000
    22   10.915739    7.760349   -0.000000
    23   -0.416916   -0.605463    0.000000
    24   -0.063922    0.260654    0.000000
    25    0.001754   -0.108617    0.000000
    26    0.523967    0.576705   -0.000000
    27   11.754863   12.396597   -0.000000
    28   13.241115   13.431269   -0.000000
    29    0.042917    0.030118   -0.000000
----------------------------------------
   Tot   -0.548397   -2.420401    0.000000
----------------------------------------
   Max   22.653979
   Res    4.749186    sqrt( Sum f_i^2 / 3N )
----------------------------------------
   Max   22.653979    constrained

Stress tensor Voigt[x,y,z,yz,xz,xy] (kbar):      -18.67      -14.99       -0.09       -0.00       -0.00      -17.27
(Free)E + p*V (eV/cell)    -4108.6933
Target enthalpy (eV/cell)    -4137.9212

mulliken: Atomic and Orbital Populations:

Species: O                   

Atom      Orb        Charge      Spin       Svec
----------------------------------------------------------------
    1  1 2s         1.52397   0.00000      0.000   0.000   0.000
    1  2 2s         0.14505   0.00000     -0.000  -0.000  -0.000
    1  3 2py        1.16223   0.00000      0.000  -0.000  -0.000
    1  4 2pz        1.68045   0.00000     -0.000  -0.000  -0.000
    1  5 2px        1.55501   0.00000      0.000  -0.000  -0.000
    1  6 2py        0.21060   0.00000     -0.000   0.000  -0.000
    1  7 2pz       -0.00355   0.00000      0.000   0.000  -0.000
    1  8 2px        0.07054   0.00000     -0.000   0.000  -0.000
    1  9 3Pdxy      0.01227   0.00000      0.000  -0.000   0.000
    1 10 3Pdyz      0.00612   0.00000     -0.000   0.000   0.000
    1 11 3Pdz2      0.00304   0.00000     -0.000  -0.000  -0.000
    1 12 3Pdxz      0.00179   0.00000     -0.000  -0.000  -0.000
    1 13 3Pdx2-y2   0.00491   0.00000     -0.000  -0.000  -0.000
    1     Total     6.37243   0.00000      0.000  -0.000  -0.000

   28  1 2s         1.57099   0.00000     -0.000  -0.000   0.000
   28  2 2s         0.12202   0.00000      0.000   0.000  -0.000
   28  3 2py        1.13430   0.00000      0.000  -0.000  -0.000
   28  4 2pz        1.67156   0.00000     -0.000   0.000   0.000
   28  5 2px        1.59445   0.00000      0.000  -0.000  -0.000
   28  6 2py        0.20600   0.00000      0.000   0.000   0.000
   28  7 2pz       -0.01032   0.00000      0.000  -0.000  -0.000
   28  8 2px        0.04918   0.00000     -0.000   0.000   0.000
   28  9 3Pdxy      0.01357   0.00000     -0.000  -0.000  -0.000
   28 10 3Pdyz      0.00721   0.00000     -0.000  -0.000   0.000
   28 11 3Pdz2      0.00302   0.00000     -0.000   0.000   0.000
   28 12 3Pdxz      0.00197   0.00000     -0.000  -0.000   0.000
   28 13 3Pdx2-y2   0.00604   0.00000      0.000  -0.000  -0.000
   28     Total     6.36999   0.00000     -0.000   0.000  -0.000

----------------------------------------------------------------
Total              12.74242   0.00000      0.000   0.000  -0.000


Species: N                   

Atom      Orb        Charge      Spin       Svec
----------------------------------------------------------------
    2  1 2s         1.55149   0.00000      0.000   0.000  -0.000
    2  2 2s         0.08423   0.00000     -0.000  -0.000  -0.000
    2  3 2py        1.04032   0.00000      0.000  -0.000  -0.000
    2  4 2pz        1.22469   0.00000     -0.000  -0.000  -0.000
    2  5 2px        0.99114   0.00000      0.000   0.000  -0.000
    2  6 2py        0.18813   0.00000      0.000   0.000   0.000
    2  7 2pz        0.05630   0.00000      0.000   0.000   0.000
    2  8 2px        0.19551   0.00000     -0.000  -0.000   0.000
    2  9 3Pdxy      0.00850   0.00000     -0.000  -0.000   0.000
    2 10 3Pdyz      0.01114   0.00000      0.000   0.000   0.000
    2 11 3Pdz2      0.00187   0.00000     -0.000  -0.000   0.000
    2 12 3Pdxz      0.00745   0.00000     -0.000  -0.000   0.000
    2 13 3Pdx2-y2   0.00935   0.00000      0.000  -0.000   0.000
    2     Total     5.37013   0.00000      0.000  -0.000  -0.000

    3  1 2s         1.38310   0.00000     -0.000   0.000  -0.000
    3  2 2s         0.12217   0.00000      0.000  -0.000   0.000
    3  3 2py        0.92408   0.00000     -0.000  -0.000  -0.000
    3  4 2pz        1.50686   0.00000     -0.000   0.000  -0.000
    3  5 2px        1.04867   0.00000     -0.000  -0.000  -0.000
    3  6 2py        0.26374   0.00000      0.000   0.000   0.000
    3  7 2pz        0.00801   0.00000      0.000  -0.000   0.000
    3  8 2px        0.20195   0.00000      0.000   0.000   0.000
    3  9 3Pdxy      0.00586   0.00000     -0.000  -0.000  -0.000
    3 10 3Pdyz      0.00394   0.00000     -0.000   0.000  -0.000
    3 11 3Pdz2      0.00062   0.00000     -0.000  -0.000  -0.000
    3 12 3Pdxz      0.00319   0.00000      0.000   0.000  -0.000
    3 13 3Pdx2-y2   0.00255   0.00000      0.000   0.000  -0.000
    3     Total     5.47475   0.00000     -0.000   0.000  -0.000

    4  1 2s         1.46684   0.00000      0.000  -0.000  -0.000
    4  2 2s         0.11929   0.00000      0.000  -0.000   0.000
    4  3 2py        1.12777   0.00000      0.000  -0.000  -0.000
    4  4 2pz        1.26929   0.00000     -0.000   0.000  -0.000
    4  5 2px        0.82464   0.00000      0.000  -0.000  -0.000
    4  6 2py        0.15236   0.00000     -0.000   0.000   0.000
    4  7 2pz        0.05572   0.00000      0.000  -0.000   0.000
    4  8 2px        0.29008   0.00000     -0.000  -0.000   0.000
    4  9 3Pdxy      0.00856   0.00000      0.000  -0.000  -0.000
    4 10 3Pdyz      0.01055   0.00000     -0.000   0.000   0.000
    4 11 3Pdz2      0.00139   0.00000      0.000  -0.000  -0.000
    4 12 3Pdxz      0.00479   0.00000     -0.000  -0.000   0.000
    4 13 3Pdx2-y2   0.00780   0.00000     -0.000   0.000   0.000
    4     Total     5.33907   0.00000     -0.000  -0.000  -0.000

    5  1 2s         1.37101   0.00000     -0.000   0.000  -0.000
    5  2 2s         0.13022   0.00000      0.000  -0.000   0.000
    5  3 2py        1.02686   0.00000      0.000  -0.000   0.000
    5  4 2pz        1.49748   0.00000      0.000  -0.000  -0.000
    5  5 2px        1.05691   0.00000      0.000   0.000  -0.000
    5  6 2py        0.20591   0.00000     -0.000   0.000   0.000
    5  7 2pz        0.01371   0.00000     -0.000  -0.000   0.000
    5  8 2px        0.20602   0.00000     -0.000  -0.000   0.000
    5  9 3Pdxy      0.00382   0.00000     -0.000  -0.000  -0.000
    5 10 3Pdyz      0.00249   0.00000      0.000  -0.000   0.000
    5 11 3Pdz2      0.00141   0.00000      0.000  -0.000   0.000
    5 12 3Pdxz      0.00623   0.00000     -0.000   0.000   0.000
    5 13 3Pdx2-y2   0.00565   0.00000      0.000   0.000   0.000
    5     Total     5.52774   0.00000     -0.000   0.000  -0.000

    6  1 2s         1.32427   0.00000     -0.000  -0.000   0.000
    6  2 2s         0.15460   0.00000     -0.000   0.000   0.000
    6  3 2py        1.11865   0.00000      0.000  -0.000   0.000
    6  4 2pz        1.42035   0.00000      0.000  -0.000  -0.000
    6  5 2px        1.03986   0.00000      0.000  -0.000  -0.000
    6  6 2py        0.16341   0.00000     -0.000   0.000   0.000
    6  7 2pz        0.03958   0.00000     -0.000   0.000   0.000
    6  8 2px        0.21700   0.00000     -0.000   0.000   0.000
    6  9 3Pdxy      0.00576   0.00000     -0.000   0.000   0.000
    6 10 3Pdyz      0.00033   0.00000      0.000   0.000  -0.000
    6 11 3Pdz2      0.00279   0.00000     -0.000   0.000  -0.000
    6 12 3Pdxz      0.00499   0.00000      0.000  -0.000   0.000
    6 13 3Pdx2-y2   0.00515   0.00000      0.000  -0.000  -0.000
    6     Total     5.49672   0.00000      0.000  -0.000   0.000

   21  1 2s         1.39433   0.00000      0.000   0.000   0.000
   21  2 2s         0.12614   0.00000     -0.000  -0.000  -0.000
   21  3 2py        0.91187   0.00000     -0.000  -0.000  -0.000
   21  4 2pz        1.37655   0.00000      0.000  -0.000   0.000
   21  5 2px        1.13650   0.00000     -0.000  -0.000   0.000
   21  6 2py        0.26740   0.00000      0.000   0.000   0.000
   21  7 2pz        0.02881   0.00000      0.000   0.000   0.000
   21  8 2px        0.16737   0.00000      0.000  -0.000  -0.000
   21  9 3Pdxy      0.01082   0.00000     -0.000   0.000   0.000
   21 10 3Pdyz      0.00451   0.00000     -0.000   0.000   0.000
   21 11 3Pdz2      0.00093   0.00000      0.000  -0.000   0.000
   21 12 3Pdxz      0.00529   0.00000      0.000  -0.000   0.000
   21 13 3Pdx2-y2   0.00547   0.00000     -0.000   0.000  -0.000
   21     Total     5.43598   0.00000      0.000  -0.000   0.000

   22  1 2s         1.35026   0.00000     -0.000   0.000  -0.000
   22  2 2s         0.14710   0.00000      0.000  -0.000   0.000
   22  3 2py        1.11135   0.00000     -0.000  -0.000  -0.000
   22  4 2pz        1.36190   0.00000     -0.000  -0.000  -0.000
   22  5 2px        1.06516   0.00000      0.000  -0.000  -0.000
   22  6 2py        0.16950   0.00000     -0.000   0.000   0.000
   22  7 2pz        0.03928   0.00000     -0.000  -0.000   0.000
   22  8 2px        0.19274   0.00000     -0.000   0.000  -0.000
   22  9 3Pdxy      0.00687   0.00000      0.000  -0.000   0.000
   22 10 3Pdyz      0.00058   0.00000      0.000   0.000  -0.000
   22 11 3Pdz2      0.00349   0.00000      0.000  -0.000   0.000
   22 12 3Pdxz      0.00567   0.00000      0.000   0.000   0.000
   22 13 3Pdx2-y2   0.00569   0.00000      0.000   0.000  -0.000
   22     Total     5.45960   0.00000     -0.000  -0.000  -0.000

   23  1 2s         1.35050   0.00000      0.000  -0.000   0.000
   23  2 2s         0.14001   0.00000     -0.000   0.000  -0.000
   23  3 2py        1.01338   0.00000     -0.000  -0.000  -0.000
   23  4 2pz        1.54136   0.00000     -0.000  -0.000  -0.000
   23  5 2px        1.02535   0.00000      0.000  -0.000  -0.000
   23  6 2py        0.21822   0.00000     -0.000   0.000   0.000
   23  7 2pz        0.00503   0.00000      0.000   0.000  -0.000
   23  8 2px        0.21267   0.00000     -0.000   0.000   0.000
   23  9 3Pdxy      0.00578   0.00000      0.000  -0.000   0.000
   23 10 3Pdyz      0.00488   0.00000      0.000  -0.000  -0.000
   23 11 3Pdz2      0.00112   0.00000     -0.000  -0.000   0.000
   23 12 3Pdxz      0.00240   0.00000      0.000   0.000  -0.000
   23 13 3Pdx2-y2   0.00156   0.00000     -0.000  -0.000  -0.000
   23     Total     5.52226   0.00000     -0.000  -0.000  -0.000

----------------------------------------------------------------
Total              56.36865   0.00000     -0.000  -0.000  -0.000


Species: Si                  

Atom      Orb        Charge      Spin       Svec
----------------------------------------------------------------
    7  1 3s         0.65169   0.00000      0.000  -0.000   0.000
    7  2 3s         0.37368   0.00000     -0.000   0.000   0.000
    7  3 3py        0.46167   0.00000      0.000  -0.000   0.000
    7  4 3pz        0.68071   0.00000      0.000  -0.000  -0.000
    7  5 3px        0.11746   0.00000     -0.000   0.000   0.000
    7  6 3py        0.28323   0.00000      0.000   0.000   0.000
    7  7 3pz        0.26668   0.00000     -0.000   0.000   0.000
    7  8 3px        0.44621   0.00000      0.000  -0.000   0.000
    7  9 3Pdxy      0.25302   0.00000     -0.000  -0.000   0.000
    7 10 3Pdyz      0.02937   0.00000     -0.000   0.000   0.000
    7 11 3Pdz2      0.01128   0.00000      0.000  -0.000   0.000
    7 12 3Pdxz      0.15611   0.00000     -0.000  -0.000  -0.000
    7 13 3Pdx2-y2   0.11281   0.00000     -0.000  -0.000   0.000
    7     Total     3.84392   0.00000      0.000  -0.000   0.000

    8  1 3s         0.65368   0.00000     -0.000   0.000   0.000
    8  2 3s         0.37111   0.00000      0.000  -0.000   0.000
    8  3 3py        0.40795   0.00000      0.000  -0.000  -0.000
    8  4 3pz        0.47513   0.00000     -0.000   0.000  -0.000
    8  5 3px       -0.00376   0.00000     -0.000  -0.000  -0.000
    8  6 3py        0.29952   0.00000     -0.000   0.000   0.000
    8  7 3pz        0.20826   0.00000     -0.000   0.000   0.000
    8  8 3px        0.50848   0.00000      0.000   0.000   0.000
    8  9 3Pdxy      0.25234   0.00000     -0.000  -0.000   0.000
    8 10 3Pdyz      0.10822   0.00000     -0.000   0.000  -0.000
    8 11 3Pdz2      0.01408   0.00000      0.000  -0.000   0.000
    8 12 3Pdxz      0.16053   0.00000     -0.000   0.000   0.000
    8 13 3Pdx2-y2   0.20787   0.00000     -0.000  -0.000   0.000
    8     Total     3.66340   0.00000     -0.000   0.000   0.000

    9  1 3s         0.62336   0.00000      0.000   0.000   0.000
    9  2 3s         0.35496   0.00000     -0.000  -0.000  -0.000
    9  3 3py        0.21065   0.00000     -0.000  -0.000   0.000
    9  4 3pz        0.47188   0.00000     -0.000  -0.000   0.000
    9  5 3px        0.32025   0.00000      0.000   0.000   0.000
    9  6 3py        0.32349   0.00000      0.000   0.000   0.000
    9  7 3pz        0.20806   0.00000     -0.000   0.000   0.000
    9  8 3px        0.31975   0.00000     -0.000  -0.000   0.000
    9  9 3Pdxy      0.24808   0.00000     -0.000   0.000   0.000
    9 10 3Pdyz      0.16067   0.00000     -0.000   0.000   0.000
    9 11 3Pdz2      0.01116   0.00000      0.000   0.000   0.000
    9 12 3Pdxz      0.12011   0.00000     -0.000   0.000   0.000
    9 13 3Pdx2-y2   0.19501   0.00000      0.000   0.000   0.000
    9     Total     3.56744   0.00000     -0.000   0.000   0.000

   10  1 3s         0.51717   0.00000     -0.000  -0.000   0.000
   10  2 3s         0.36278   0.00000      0.000   0.000  -0.000
   10  3 3py        0.25710   0.00000     -0.000  -0.000   0.000
   10  4 3pz        0.45647   0.00000     -0.000   0.000   0.000
   10  5 3px        0.08187   0.00000      0.000  -0.000   0.000
   10  6 3py        0.31338   0.00000      0.000   0.000   0.000
   10  7 3pz        0.19901   0.00000      0.000   0.000   0.000
   10  8 3px        0.47059   0.00000     -0.000  -0.000  -0.000
   10  9 3Pdxy      0.20697   0.00000     -0.000  -0.000   0.000
   10 10 3Pdyz      0.12045   0.00000      0.000  -0.000   0.000
   10 11 3Pdz2      0.01135   0.00000     -0.000  -0.000  -0.000
   10 12 3Pdxz      0.19236   0.00000      0.000   0.000   0.000
   10 13 3Pdx2-y2   0.31842   0.00000      0.000   0.000   0.000
   10     Total     3.50792   0.00000      0.000   0.000   0.000

   11  1 3s         0.55224   0.00000     -0.000   0.000   0.000
   11  2 3s         0.38703   0.00000      0.000  -0.000  -0.000
   11  3 3py        0.31424   0.00000      0.000  -0.000   0.000
   11  4 3pz        0.52038   0.00000      0.000   0.000   0.000
   11  5 3px        0.13227   0.00000     -0.000  -0.000   0.000
   11  6 3py        0.29906   0.00000     -0.000  -0.000   0.000
   11  7 3pz        0.18002   0.00000      0.000   0.000   0.000
   11  8 3px        0.44364   0.00000      0.000   0.000   0.000
   11  9 3Pdxy      0.23673   0.00000     -0.000   0.000   0.000
   11 10 3Pdyz      0.13048   0.00000      0.000   0.000   0.000
   11 11 3Pdz2      0.01017   0.00000      0.000   0.000   0.000
   11 12 3Pdxz      0.05400   0.00000     -0.000   0.000   0.000
   11 13 3Pdx2-y2   0.19958   0.00000     -0.000  -0.000   0.000
   11     Total     3.45984   0.00000     -0.000   0.000   0.000

   17  1 3s         0.64900   0.00000     -0.000   0.000   0.000
   17  2 3s         0.34827   0.00000      0.000  -0.000  -0.000
   17  3 3py        0.21930   0.00000     -0.000   0.000  -0.000
   17  4 3pz        0.45787   0.00000      0.000   0.000   0.000
   17  5 3px        0.21671   0.00000      0.000  -0.000   0.000
   17  6 3py        0.36449   0.00000      0.000  -0.000   0.000
   17  7 3pz        0.20531   0.00000      0.000   0.000   0.000
   17  8 3px        0.40062   0.00000     -0.000   0.000  -0.000
   17  9 3Pdxy      0.25932   0.00000      0.000  -0.000   0.000
   17 10 3Pdyz      0.11761   0.00000     -0.000   0.000   0.000
   17 11 3Pdz2      0.00802   0.00000     -0.000   0.000   0.000
   17 12 3Pdxz      0.14659   0.00000     -0.000  -0.000   0.000
   17 13 3Pdx2-y2   0.22710   0.00000      0.000   0.000   0.000
   17     Total     3.62021   0.00000     -0.000   0.000   0.000

   18  1 3s         0.76207   0.00000      0.000   0.000   0.000
   18  2 3s         0.33899   0.00000      0.000  -0.000   0.000
   18  3 3py        0.07230   0.00000      0.000  -0.000   0.000
   18  4 3pz        0.78315   0.00000      0.000   0.000   0.000
   18  5 3px        0.55502   0.00000     -0.000  -0.000   0.000
   18  6 3py        0.52262   0.00000     -0.000   0.000   0.000
   18  7 3pz        0.18821   0.00000     -0.000  -0.000   0.000
   18  8 3px        0.25361   0.00000      0.000   0.000   0.000
   18  9 3Pdxy      0.10599   0.00000     -0.000  -0.000  -0.000
   18 10 3Pdyz      0.02656   0.00000      0.000  -0.000  -0.000
   18 11 3Pdz2      0.01026   0.00000     -0.000  -0.000  -0.000
   18 12 3Pdxz      0.03688   0.00000      0.000  -0.000   0.000
   18 13 3Pdx2-y2   0.10761   0.00000     -0.000   0.000   0.000
   18     Total     3.76327   0.00000      0.000  -0.000   0.000

   19  1 3s         0.48714   0.00000      0.000   0.000  -0.000
   19  2 3s         0.35229   0.00000     -0.000  -0.000  -0.000
   19  3 3py        0.16982   0.00000      0.000  -0.000  -0.000
   19  4 3pz        0.35645   0.00000      0.000   0.000  -0.000
   19  5 3px        0.18495   0.00000     -0.000   0.000   0.000
   19  6 3py        0.38202   0.00000      0.000   0.000   0.000
   19  7 3pz        0.21687   0.00000     -0.000   0.000  -0.000
   19  8 3px        0.34938   0.00000      0.000  -0.000   0.000
   19  9 3Pdxy      0.26823   0.00000     -0.000   0.000   0.000
   19 10 3Pdyz      0.15559   0.00000      0.000   0.000   0.000
   19 11 3Pdz2      0.00957   0.00000      0.000  -0.000  -0.000
   19 12 3Pdxz      0.11651   0.00000     -0.000  -0.000   0.000
   19 13 3Pdx2-y2   0.23970   0.00000      0.000   0.000   0.000
   19     Total     3.28853   0.00000      0.000   0.000  -0.000

   20  1 3s         0.69382   0.00000      0.000   0.000   0.000
   20  2 3s         0.37043   0.00000     -0.000  -0.000  -0.000
   20  3 3py        0.34425   0.00000     -0.000  -0.000  -0.000
   20  4 3pz        0.63686   0.00000      0.000  -0.000  -0.000
   20  5 3px        0.14908   0.00000     -0.000  -0.000   0.000
   20  6 3py        0.27397   0.00000      0.000   0.000   0.000
   20  7 3pz        0.15490   0.00000      0.000  -0.000  -0.000
   20  8 3px        0.49655   0.00000      0.000   0.000   0.000
   20  9 3Pdxy      0.09629   0.00000      0.000  -0.000  -0.000
   20 10 3Pdyz      0.12040   0.00000     -0.000  -0.000  -0.000
   20 11 3Pdz2      0.00930   0.00000     -0.000   0.000   0.000
   20 12 3Pdxz      0.02632   0.00000     -0.000   0.000   0.000
   20 13 3Pdx2-y2   0.18525   0.00000      0.000   0.000   0.000
   20     Total     3.55743   0.00000      0.000  -0.000  -0.000

----------------------------------------------------------------
Total              88.64062   0.00000      0.000  -0.000   0.000


Species: H                   

Atom      Orb        Charge      Spin       Svec
----------------------------------------------------------------
   12  1 1s         0.48576   0.00000      0.000   0.000   0.000
   12  2 1s         0.17086   0.00000     -0.000  -0.000   0.000
   12  3 2Ppy       0.08211   0.00000      0.000  -0.000   0.000
   12  4 2Ppz       0.04705   0.00000      0.000  -0.000  -0.000
   12  5 2Ppx       0.09571   0.00000     -0.000   0.000   0.000
   12     Total     0.88150   0.00000      0.000   0.000   0.000

   13  1 1s         1.01905   0.00000      0.000  -0.000  -0.000
   13  2 1s         0.09718   0.00000     -0.000   0.000   0.000
   13  3 2Ppy       0.01912   0.00000      0.000  -0.000  -0.000
   13  4 2Ppz       0.01978   0.00000     -0.000   0.000   0.000
   13  5 2Ppx       0.03333   0.00000      0.000  -0.000   0.000
   13     Total     1.18846   0.00000      0.000  -0.000  -0.000

   14  1 1s         0.51273   0.00000      0.000   0.000  -0.000
   14  2 1s         0.19127   0.00000     -0.000  -0.000  -0.000
   14  3 2Ppy       0.03160   0.00000     -0.000   0.000  -0.000
   14  4 2Ppz       0.05036   0.00000      0.000   0.000  -0.000
   14  5 2Ppx       0.03330   0.00000     -0.000  -0.000  -0.000
   14     Total     0.81926   0.00000      0.000   0.000  -0.000

   15  1 1s         0.17192   0.00000     -0.000   0.000   0.000
   15  2 1s         0.32663   0.00000      0.000  -0.000   0.000
   15  3 2Ppy       0.09118   0.00000     -0.000  -0.000   0.000
   15  4 2Ppz       0.09140   0.00000      0.000  -0.000  -0.000
   15  5 2Ppx       0.16322   0.00000     -0.000  -0.000  -0.000
   15     Total     0.84435   0.00000     -0.000   0.000   0.000

   16  1 1s         0.50263   0.00000     -0.000   0.000  -0.000
   16  2 1s         0.19058   0.00000      0.000  -0.000  -0.000
   16  3 2Ppy       0.02895   0.00000      0.000  -0.000   0.000
   16  4 2Ppz       0.03903   0.00000     -0.000  -0.000  -0.000
   16  5 2Ppx       0.02406   0.00000     -0.000  -0.000  -0.000
   16     Total     0.78525   0.00000     -0.000   0.000  -0.000

   24  1 1s         1.05737   0.00000      0.000   0.000  -0.000
   24  2 1s         0.07608   0.00000     -0.000  -0.000   0.000
   24  3 2Ppy       0.03096   0.00000      0.000   0.000   0.000
   24  4 2Ppz       0.02898   0.00000     -0.000  -0.000   0.000
   24  5 2Ppx       0.01790   0.00000     -0.000   0.000  -0.000
   24     Total     1.21128   0.00000      0.000   0.000  -0.000

   25  1 1s         1.04588   0.00000     -0.000   0.000  -0.000
   25  2 1s         0.08552   0.00000      0.000   0.000   0.000
   25  3 2Ppy       0.01161   0.00000      0.000  -0.000  -0.000
   25  4 2Ppz       0.01964   0.00000      0.000   0.000  -0.000
   25  5 2Ppx       0.03570   0.00000     -0.000   0.000   0.000
   25     Total     1.19834   0.00000     -0.000   0.000  -0.000

   26  1 1s         0.51228   0.00000     -0.000  -0.000  -0.000
   26  2 1s         0.18996   0.00000      0.000  -0.000   0.000
   26  3 2Ppy       0.03570   0.00000     -0.000  -0.000  -0.000
   26  4 2Ppz       0.04656   0.00000     -0.000  -0.000  -0.000
   26  5 2Ppx       0.03562   0.00000      0.000   0.000  -0.000
   26     Total     0.82012   0.00000     -0.000  -0.000  -0.000

   27  1 1s         0.14063   0.00000     -0.000   0.000  -0.000
   27  2 1s         0.34901   0.00000      0.000  -0.000   0.000
   27  3 2Ppy       0.09915   0.00000      0.000   0.000   0.000
   27  4 2Ppz       0.09815   0.00000     -0.000  -0.000   0.000
   27  5 2Ppx       0.15421   0.00000      0.000   0.000  -0.000
   27     Total     0.84114   0.00000     -0.000   0.000  -0.000

   29  1 1s         0.49288   0.00000     -0.000  -0.000  -0.000
   29  2 1s         0.18751   0.00000      0.000  -0.000  -0.000
   29  3 2Ppy       0.02467   0.00000     -0.000  -0.000  -0.000
   29  4 2Ppz       0.03543   0.00000      0.000   0.000  -0.000
   29  5 2Ppx       0.02919   0.00000     -0.000   0.000  -0.000
   29     Total     0.76968   0.00000     -0.000  -0.000  -0.000

----------------------------------------------------------------
Total              98.00000   0.00000      0.000  -0.000  -0.000


siesta: Eigenvalues (eV):
ik =     1
  -26.2185  -26.2185  -26.1392  -26.1392  -21.7893  -21.7893  -21.2504  -21.2504  -20.9212  -20.9212
  -20.3007  -20.3007  -19.7408  -19.7408  -19.4483  -19.4483  -19.2952  -19.2952  -19.0600  -19.0600
  -15.5181  -15.5181  -15.0648  -15.0648  -14.4953  -14.4953  -13.6456  -13.6456  -13.2425  -13.2425
  -13.1018  -13.1018  -12.7439  -12.7439  -12.4671  -12.4671  -12.1463  -12.1463  -12.0864  -12.0864
  -11.0380  -11.0380  -10.7069  -10.7069  -10.5904  -10.5904  -10.2882  -10.2882   -9.9645   -9.9645
   -9.7887   -9.7887   -9.4121   -9.4121   -9.2327   -9.2327   -8.8740   -8.8740   -8.8252   -8.8252
   -8.7942   -8.7942   -8.6036   -8.6036   -8.5593   -8.5593   -8.3409   -8.3409   -8.2473   -8.2473
   -7.8658   -7.8658   -7.6778   -7.6778   -7.4960   -7.4960   -7.4605   -7.4605   -6.7795   -6.7795
   -6.7336   -6.7336   -6.3537   -6.3537   -6.1173   -6.1173   -6.0272   -6.0272   -5.6100   -5.6100
   -5.4371   -5.4371   -5.3926   -5.3926   -5.3553   -5.3553   -4.3135   -4.3135   -3.1657   -3.1657
   -2.4539   -2.4539   -2.2730   -2.2730   -2.1503   -2.1503   -2.1399   -2.1399   -1.9843   -1.9843
   -1.8754   -1.8754   -1.6149   -1.6149   -1.4576   -1.4576   -1.2201   -1.2201   -0.9507   -0.9507
   -0.8437   -0.8437   -0.6656   -0.6656   -0.3407   -0.3407   -0.2169   -0.2169    0.4695    0.4695
    0.5375    0.5375    0.5466    0.5466    0.7031    0.7031    0.8824    0.8824    1.1639    1.1639
    1.4521    1.4521    1.4671    1.4671    1.5779    1.5779    1.6775    1.6775    2.1244    2.1244
    2.3474    2.3474    2.5971    2.5971    2.6414    2.6414    2.7583    2.7583    2.9373    2.9373
    3.1187    3.1187    3.3713    3.3713    3.4357    3.4357    3.6143    3.6143    3.7506    3.7506
    4.1126    4.1126    4.1604    4.1604    4.3174    4.3174    4.4358    4.4358    4.4763    4.4763
    4.7234    4.7234    4.8332    4.8332    4.9769    4.9769    5.2467    5.2467    5.3663    5.3663
    5.5455    5.5455    5.6926    5.6926    5.7833    5.7833    5.8693    5.8693    5.9433    5.9433
    6.2219    6.2219    6.4747    6.4747    6.5602    6.5602    6.6676    6.6676    6.7489    6.7489
    7.2062    7.2062    7.2120    7.2120    7.3007    7.3007    7.5545    7.5545    7.6684    7.6684
    7.6939    7.6939    7.8462    7.8462    7.8727    7.8727    8.1195    8.1195    8.2495    8.2495
    8.4326    8.4326    8.6880    8.6880    8.7058    8.7058    8.7599    8.7599    9.0467    9.0467
    9.1619    9.1619    9.2183    9.2183    9.7241    9.7241    9.7473    9.7473   10.0283   10.0283
   10.1339   10.1339   10.2110   10.2110   10.3612   10.3612   10.7883   10.7883   11.0337   11.0337
   11.2283   11.2283   11.3853   11.3853   11.4599   11.4599   11.5866   11.5866   11.7521   11.7521
   12.4433   12.4433   12.4930   12.4930   12.6104   12.6104   12.7463   12.7463   12.9367   12.9367
   13.0878   13.0878   13.5602   13.5602   13.6380   13.6380   13.7381   13.7381   13.9755   13.9755
   14.1128   14.1128   14.6128   14.6128   14.7362   14.7362   15.1867   15.1867   15.2023   15.2023
   15.4542   15.4542   15.7821   15.7821   16.3822   16.3822   16.8047   16.8047   17.1509   17.1509
   17.2678   17.2678   17.5187   17.5187   17.6419   17.6419   17.7597   17.7597   18.0525   18.0525
   18.7625   18.7625   18.9857   18.9857   19.3314   19.3314   19.7389   19.7389   20.3621   20.3621
   20.7307   20.7307   20.9107   20.9107   21.4987   21.4987   21.7942   21.7942   22.3328   22.3328
   22.6367   22.6367   23.2599   23.2599   23.6134   23.6134   24.1033   24.1033   24.4544   24.4544
   24.8223   24.8223   25.0601   25.0601   25.3385   25.3385   26.0510   26.0510   27.4359   27.4359
   27.6478   27.6478   28.3969   28.3969   28.7541   28.7541   29.3688   29.3688   29.4950   29.4950
   29.8216   29.8216   30.5585   30.5585   30.6160   30.6160   30.9210   30.9210   30.9997   30.9997
   31.4158   31.4158   31.5366   31.5366   32.0234   32.0234   32.3202   32.3202   33.2256   33.2256
   33.3597   33.3597   34.1037   34.1037   35.1656   35.1656   35.1856   35.1856   35.5146   35.5146
   35.6971   35.6971   36.4529   36.4529   36.5056   36.5056   37.1306   37.1306   37.4091   37.4091
   37.6240   37.6240   38.3482   38.3482   38.6630   38.6630   39.2467   39.2467   39.6121   39.6121
   40.1278   40.1278   40.5770   40.5770   40.9671   40.9671   40.9757   40.9757   41.2358   41.2358
   41.5283   41.5283   42.2807   42.2807   42.8531   42.8531   43.0146   43.0146   43.0392   43.0392
   43.6153   43.6153   43.7910   43.7910   43.8838   43.8838   44.0480   44.0480   44.9362   44.9362
   45.5212   45.5212   45.5374   45.5374   46.1703   46.1703   46.4814   46.4814   46.5567   46.5567
   46.6116   46.6116   46.8932   46.8932   47.0883   47.0883   47.6040   47.6040   48.0794   48.0794
   48.7440   48.7440   49.0948   49.0948   49.5395   49.5395   49.7665   49.7665   50.4104   50.4104
   51.2395   51.2395   51.3607   51.3607   52.0439   52.0439   53.6502   53.6502   54.3086   54.3086
   54.9745   54.9745   55.0279   55.0279   55.6437   55.6437   55.8116   55.8116   56.2087   56.2087
   56.6984   56.6984   57.3140   57.3140   58.6226   58.6226   59.5092   59.5092   59.9027   59.9027
   60.0554   60.0554   60.0982   60.0982   60.3015   60.3015   60.5763   60.5763   61.7614   61.7614
   62.3923   62.3923   63.2829   63.2829   64.6092   64.6092   65.4477   65.4477   65.7359   65.7359
   67.8720   67.8720   68.0225   68.0225   69.5245   69.5245   70.0468   70.0468   71.7870   71.7870
   71.9446   71.9446   73.6745   73.6745   74.2060   74.2060   77.9006   77.9006   83.5626   83.5626
   90.3109   90.3109   90.9923   90.9923   91.9834   91.9834   93.3144   93.3144   93.4033   93.4033
   95.1851   95.1851   98.3212   98.3212  101.7553  101.7553  102.0925  102.0925  103.5208  103.5208
  106.5705  106.5705  109.4847  109.4847  111.6943  111.6943  120.7337  120.7337  123.9980  123.9980
  128.9127  128.9127  130.9639  130.9639  143.7712  143.7712  145.9331  145.9331  148.0105  148.0105
  165.6329  165.6329  182.7370  182.7370
siesta: Fermi energy =      -3.738293 eV

siesta: Program's energy decomposition (eV):
siesta: Ebs     =     -1157.122718
siesta: Eions   =      3585.165840
siesta: Ena     =       402.598116
siesta: Ekin    =      2967.011582
siesta: Enl     =     -2849.744317
siesta: Eso     =        -0.004461
siesta: Edftu   =         0.000000
siesta: DEna    =        48.339500
siesta: DUscf   =        14.788337
siesta: DUext   =         0.000000
siesta: Exc     =     -1135.744134
siesta: eta*DQ  =         0.000000
siesta: Emadel  =         0.000000
siesta: Emeta   =         0.000000
siesta: Emolmec =         0.000000
siesta: Ekinion =         0.000000
siesta: Eharris =     -4137.921217
siesta: Etot    =     -4137.921217
siesta: FreeEng =     -4137.921217

siesta: Final energy (eV):
siesta:  Band Struct. =   -1157.122718
siesta:       Kinetic =    2967.011582
siesta:       Hartree =    9599.525267
siesta:       Edftu   =       0.000000
siesta:       Eso     =      -0.004461
siesta:    Ext. field =       0.000000
siesta:   Exch.-corr. =   -1135.744134
siesta:  Ion-electron =  -21848.199456
siesta:       Ion-ion =    6279.489985
siesta:       Ekinion =       0.000000
siesta:         Total =   -4137.921217
siesta:         Fermi =      -3.738293

siesta: Atomic forces (eV/Ang):
siesta:      1  -18.815003  -22.653979    0.000000
siesta:      2   -0.069613    0.000490    0.000000
siesta:      3   -2.223000   -0.721881    0.000000
siesta:      4   -1.034001   -0.059163   -0.000000
siesta:      5   -0.094989    0.130271   -0.000000
siesta:      6   -9.511679   -6.626520    0.000000
siesta:      7   -0.042204    0.345070   -0.000000
siesta:      8    0.448431   -0.405711   -0.000000
siesta:      9   -0.277299   -2.084589    0.000000
siesta:     10    0.815905   -0.882365    0.000000
siesta:     11    0.042833    0.009072    0.000000
siesta:     12    0.355253    0.513499   -0.000000
siesta:     13   -0.193188    0.020005   -0.000000
siesta:     14   -0.530615   -0.599394   -0.000000
siesta:     15   -7.747855   -6.840054   -0.000000
siesta:     16    0.000394   -0.160018    0.000000
siesta:     17   -0.715394    1.958547    0.000000
siesta:     18    0.250355   -0.330494   -0.000000
siesta:     19    0.945518    1.688893    0.000000
siesta:     20    0.120785    0.619269    0.000000
siesta:     21    1.727453   -0.082961   -0.000000
siesta:     22   10.915739    7.760349   -0.000000
siesta:     23   -0.416916   -0.605463    0.000000
siesta:     24   -0.063922    0.260654    0.000000
siesta:     25    0.001754   -0.108617    0.000000
siesta:     26    0.523967    0.576705   -0.000000
siesta:     27   11.754863   12.396597   -0.000000
siesta:     28   13.241115   13.431269   -0.000000
siesta:     29    0.042917    0.030118   -0.000000
siesta: ----------------------------------------
siesta:    Tot   -0.548397   -2.420401    0.000000

siesta: Stress tensor (static) (eV/Ang**3):
siesta:    -0.011652   -0.010778   -0.000000
siesta:    -0.010778   -0.009354   -0.000000
siesta:    -0.000000   -0.000000   -0.000059

siesta: Cell volume =       4162.583395 Ang**3

siesta: Pressure (static):
siesta:                Solid            Molecule  Units
siesta:           0.00007647          0.00001711  Ry/Bohr**3
siesta:           0.00702159          0.00157059  eV/Ang**3
siesta:          11.24994467          2.51639707  kBar
(Free)E+ p_basis*V_orbitals  =       -4118.070800
(Free)Eharris+ p_basis*V_orbitals  =       -4118.070800
     spin moment: S , {S} =    0.00000   0.00000  -0.00000  -0.00000

siesta: Electric dipole (a.u.)  =    1.506112    0.198385    0.000000
siesta: Electric dipole (Debye) =    3.828158    0.504244    0.000000

cite: Please see "GC.bib" for an exhaustive BiBTeX file.
cite: Please clearly indicate Siesta version in published work: v4.1.5-1-g384057250
cite: This calculation has made use of the following articles
cite: which are encouraged to be cited in a published work.
        Primary SIESTA paper
          DOI: www.doi.org/10.1088/0953-8984/14/11/302
        Spin-orbit coupling (on-site approximation)
          DOI: www.doi.org/10.1088/0953-8984/19/19/489001


WARNING: alloc-realloc-dealloc name mismatch
         Name: atomlist isa
         Size:              -116. Bytes
         Node:     0
         Subsequent mismatches will not be reported
>> End of run:   4-JUL-2023  10:11:46
Job completed
