Siesta Version  : v4.1.5-1-g384057250
Architecture    : gcc
Compiler version: GNU Fortran (Ubuntu 11.4.0-1ubuntu1~22.04) 11.4.0
Compiler flags  : mpifort -O2 -fPIC -ftree-vectorize -fallow-argument-mismatch
PP flags        : -DFC_HAVE_ABORT -DMPI -DSIESTA__FLOOK -DSIESTA__METIS -DSIESTA__MUMPS -DCDF -DNCDF -DNCDF_4 -DNCDF_PARALLEL -DSIESTA__MRRR -DSIESTA__ELPA
Libraries       : libncdf.a libfdict.a  -lflookall -ldl -lnetcdff -lnetcdf -lhdf5_hl -lhdf5 -lhdf5_fortran -lz -lscalapack-openmpi -lopenblas -lmetis -lzmumps -lcmumps -ldmumps -lmumps_common -lpord -lsmumps -lesmumps -lscotch -lscotcherr -fopenmp -lelpa
PARALLEL version
NetCDF support
NetCDF-4 support
NetCDF-4 MPI-IO support
METIS ordering support
Lua support

* Running on 8 nodes in parallel
>> Start of run:   1-FEB-2024  20:26:52

                           ***********************       
                           *  WELCOME TO SIESTA  *       
                           ***********************       

reinit: Reading from standard input
reinit: Dumped input in INPUT_TMP.83451
************************** Dump of input data file ****************************
# mpirun -np 4 siesta-4.1.5 < GC.fdf > GC.out &
SystemLabel      GC
NumberOfAtoms    29
NumberOfSpecies  4
%block ChemicalSpeciesLabel
    1    1  H
    2    7  N
    3   14  Si
    4    8  O
%endblock ChemicalSpeciesLabel
############################################
# This overrides Defaults.fdf configuration
############################################
MD.TypeOfRun                Verlet # CG, Verlet
MD.Steps                    0
MaxSCFIterations            200
SCF.MustConverge            F
AtomicCoordinatesFormat NotScaledCartesianAng
%block AtomicCoordinatesAndAtomicSpecies
    1.7074774830318553 2.595752649068811 -0.0  1  1  H
    1.0009907530318554 1.8057164690688112 -0.0  2  2  N
    -0.7292961569681445 2.247080379068811 0.0  3  3  Si
    -0.8850758369681445 3.737072639068811 0.0  1  4  H
    -2.252617776968145 0.6881728590688111 -0.0  3  5  Si
    -3.735805406968145 0.9310032190688112 -0.0  1  6  H
    -1.0542269169681444 -1.225103300931189 -0.0  3  7  Si
    -1.8202523769681447 -2.757820040931189 -0.0  2  8  N
    -1.2300058269681444 -3.715033070931189 0.0  1  9  H
    -2.8718746969681446 -2.8382802709311887 -0.0  1  10  H
    0.6619731430318555 -1.169928990931189 0.0  2  11  N
    1.7369957630318553 0.16040984906881117 -0.0  3  12  Si
    3.345669083031855 0.1415995890688112 -0.0  4  13  O
    5.6164483 -7.44953905 0.0  1  14  H
    4.58206954 -7.2320376 0.0  2  15  N
    3.29666389 -8.492636 0.0  3  16  Si
    3.80117524 -9.90371886 -0.0  1  17  H
    1.65934232 -8.01362137 0.0  2  18  N
    1.68097912 -6.20463398 -0.0  3  19  Si
    0.54543521 -4.28636135 0.0  3  20  Si
    -1.03431493 -3.94450034 0.0  4  21  O
    1.73226934 -2.87719605 0.0  2  22  N
    1.20957366 -1.92961761 -0.0  1  23  H
    3.50853448 -2.77677601 0.0  3  24  Si
    4.13684451 -1.17938608 0.0  2  25  N
    3.54296161 -0.26248101 0.0  1  26  H
    5.18364407 -1.05231197 -0.0  1  27  H
    4.63288658 -4.07521596 -0.0  2  28  N
    3.79410501 -5.58634043 0.0  3  29  Si
%endblock AtomicCoordinatesAndAtomicSpecies
#############
# Unit Cell
#############
LatticeConstant 1.0 Ang
%block LatticeVectors
    30.00000    0.000000    0.000000
    0.000000    45.00000    0.000000
    0.000000    0.000000    10.00000
%endblock LatticeVectors
%include ../../../../Defaults.fdf
************************** End of input data file *****************************

reinit: -----------------------------------------------------------------------
reinit: System Name: 
reinit: -----------------------------------------------------------------------
reinit: System Label: GC
reinit: -----------------------------------------------------------------------

initatom: Reading input for the pseudopotentials and atomic orbitals ----------
Species number:   1 Atomic number:    1 Label: H
Species number:   2 Atomic number:    7 Label: N
Species number:   3 Atomic number:   14 Label: Si
Species number:   4 Atomic number:    8 Label: O

Ground state valence configuration:   1s01
Reading pseudopotential information in formatted form from H.psf

Pseudopotential generated from a relativistic atomic calculation

Valence configuration for pseudopotential generation:
1s( 1.00) rc: 0.01
2p( 0.00) rc: 0.60
3d( 0.00) rc: 1.99
4f( 0.00) rc: 2.49
Ground state valence configuration:   2s02  2p03
Reading pseudopotential information in formatted form from N.psf

Pseudopotential generated from a relativistic atomic calculation

Valence configuration for pseudopotential generation:
2s( 2.00) rc: 0.94
2p( 3.00) rc: 0.59
3d( 0.00) rc: 3.46
4f( 0.00) rc: 2.47
Ground state valence configuration:   3s02  3p02
Reading pseudopotential information in formatted form from Si.psf

Pseudopotential generated from a relativistic atomic calculation

Valence configuration for pseudopotential generation:
3s( 2.00) rc: 1.67
3p( 2.00) rc: 2.04
3d( 0.00) rc: 2.89
4f( 0.00) rc: 2.49
Ground state valence configuration:   2s02  2p04
Reading pseudopotential information in formatted form from O.psf

Pseudopotential generated from a relativistic atomic calculation

Valence configuration for pseudopotential generation:
2s( 2.00) rc: 0.45
2p( 4.00) rc: 0.92
3d( 0.00) rc: 2.24
4f( 0.00) rc: 0.25
For H, standard SIESTA heuristics set lmxkb to 2
 (one more than the basis l, including polarization orbitals).
Use PS.lmax or PS.KBprojectors blocks to override.
For N, standard SIESTA heuristics set lmxkb to 3
 (one more than the basis l, including polarization orbitals).
Use PS.lmax or PS.KBprojectors blocks to override.
For Si, standard SIESTA heuristics set lmxkb to 3
 (one more than the basis l, including polarization orbitals).
Use PS.lmax or PS.KBprojectors blocks to override.
For O, standard SIESTA heuristics set lmxkb to 3
 (one more than the basis l, including polarization orbitals).
Use PS.lmax or PS.KBprojectors blocks to override.

<basis_specs>
===============================================================================
H                    Z=   1    Mass=  1.0100        Charge= 0.17977+309
Lmxo=0 Lmxkb= 2    BasisType=split      Semic=F
L=0  Nsemic=0  Cnfigmx=1
          i=1  nzeta=2  polorb=1  (1s)
            splnorm:   0.62000    
               vcte:    0.0000    
               rinn:    0.0000    
               qcoe:    0.0000    
               qyuk:    0.0000    
               qwid:   0.10000E-01
                rcs:    0.0000      0.0000    
            lambdas:    1.0000      1.0000    
-------------------------------------------------------------------------------
L=0  Nkbl=1  erefs: 0.17977+309
L=1  Nkbl=1  erefs: 0.17977+309
L=2  Nkbl=1  erefs: 0.17977+309
===============================================================================
</basis_specs>

atom: Called for H                     (Z =   1)

read_vps: Pseudopotential generation method:
read_vps: ATM4.2.7  Troullier-Martins                       
Valence charge for ps generation:    1.00000

xc_check: Exchange-correlation functional:
xc_check: GGA Perdew, Burke & Ernzerhof 1996
V l=0 = -2*Zval/r beyond r=  0.0098
V l=1 = -2*Zval/r beyond r=  0.5817
V l=2 = -2*Zval/r beyond r=  1.9372
All V_l potentials equal beyond r=  1.9372
This should be close to max(r_c) in ps generation
All pots = -2*Zval/r beyond r=  1.9372

VLOCAL1: 99.0% of the norm of Vloc inside     11.567 Ry
VLOCAL1: 99.9% of the norm of Vloc inside     26.362 Ry
atom: Maximum radius for 4*pi*r*r*local-pseudopot. charge    2.25106
atom: Maximum radius for r*vlocal+2*Zval:    1.91306
GHOST: No ghost state for L =  0
GHOST: No ghost state for L =  1
GHOST: No ghost state for L =  2

KBgen: Kleinman-Bylander projectors: 
   l= 0   rc=  2.036604   el= -0.477180   Ekb= -6.081590   kbcos= -0.277285
   l= 1   rc=  2.195416   el=  0.001076   Ekb= -0.926943   kbcos= -0.034643
   l= 2   rc=  2.251056   el=  0.002010   Ekb= -0.130941   kbcos= -0.009788

KBgen: Total number of Kleinman-Bylander projectors:    9
atom: -------------------------------------------------------------------------

atom: SANKEY-TYPE ORBITALS:
atom: Selected multiple-zeta basis: split     

SPLIT: Orbitals with angular momentum L= 0

SPLIT: Basis orbitals for state 1s

SPLIT: PAO cut-off radius determined from an
SPLIT: energy shift=  0.002000 Ry

   izeta = 1
                 lambda =    1.000000
                     rc =    6.518340
                 energy =   -0.475305
                kinetic =    0.912139
    potential(screened) =   -1.387444
       potential(ionic) =   -1.907295

   izeta = 2
                 rmatch =    2.141150
              splitnorm =    0.620000
                 energy =    0.566467
                kinetic =    3.772856
    potential(screened) =   -3.206389
       potential(ionic) =   -3.759093

POLgen: Perturbative polarization orbital with L=  1

POLgen: Polarization orbital for state 1s

   izeta = 1
                     rc =    6.518340
                 energy =    0.533861
                kinetic =    1.121086
    potential(screened) =   -0.587225
       potential(ionic) =   -1.053027
atom: Total number of Sankey-type orbitals:  5

atm_pop: Valence configuration (for local Pseudopot. screening):
 1s( 1.00)                                                            
Vna: chval, zval:    1.00000   1.00000

Vna:  Cut-off radius for the neutral-atom potential:   6.518340

atom: _________________________________________________________________________

<basis_specs>
===============================================================================
N                    Z=   7    Mass=  14.010        Charge= 0.17977+309
Lmxo=1 Lmxkb= 3    BasisType=split      Semic=F
L=0  Nsemic=0  Cnfigmx=2
          i=1  nzeta=2  polorb=0  (2s)
            splnorm:   0.28000    
               vcte:    0.0000    
               rinn:    0.0000    
               qcoe:    0.0000    
               qyuk:    0.0000    
               qwid:   0.10000E-01
                rcs:    0.0000      0.0000    
            lambdas:    1.0000      1.0000    
L=1  Nsemic=0  Cnfigmx=2
          i=1  nzeta=2  polorb=1  (2p)
            splnorm:   0.28000    
               vcte:    0.0000    
               rinn:    0.0000    
               qcoe:    0.0000    
               qyuk:    0.0000    
               qwid:   0.10000E-01
                rcs:    0.0000      0.0000    
            lambdas:    1.0000      1.0000    
-------------------------------------------------------------------------------
L=0  Nkbl=1  erefs: 0.17977+309
L=1  Nkbl=1  erefs: 0.17977+309
L=2  Nkbl=1  erefs: 0.17977+309
L=3  Nkbl=1  erefs: 0.17977+309
===============================================================================
</basis_specs>

atom: Called for N                     (Z =   7)

read_vps: Pseudopotential generation method:
read_vps: ATM4.2.7  Troullier-Martins                       
Valence charge for ps generation:    5.00000

xc_check: Exchange-correlation functional:
xc_check: GGA Perdew, Burke & Ernzerhof 1996
V l=0 = -2*Zval/r beyond r=  1.2889
V l=1 = -2*Zval/r beyond r=  1.2889
V l=2 = -2*Zval/r beyond r=  3.4178
V l=3 = -2*Zval/r beyond r=  2.4084
All V_l potentials equal beyond r=  3.3753
This should be close to max(r_c) in ps generation
All pots = -2*Zval/r beyond r=  3.4178

VLOCAL1: 99.0% of the norm of Vloc inside      3.810 Ry
VLOCAL1: 99.9% of the norm of Vloc inside      8.683 Ry
atom: Maximum radius for 4*pi*r*r*local-pseudopot. charge    4.02088
atom: Maximum radius for r*vlocal+2*Zval:    3.54838
GHOST: No ghost state for L =  0
GHOST: No ghost state for L =  1
GHOST: No ghost state for L =  2
GHOST: No ghost state for L =  3

KBgen: Kleinman-Bylander projectors: 
   l= 0   rc=  3.417763   el= -1.365098   Ekb= -4.433130   kbcos= -0.707855
   l= 1   rc=  3.375302   el= -0.521201   Ekb=-13.264039   kbcos= -0.535594
   l= 2   rc=  3.872880   el=  0.001991   Ekb= -0.641094   kbcos= -0.062456
   l= 3   rc=  3.970931   el=  0.003093   Ekb= -0.474517   kbcos= -0.018236

KBgen: Total number of Kleinman-Bylander projectors:   16
atom: -------------------------------------------------------------------------

atom: SANKEY-TYPE ORBITALS:
atom: Selected multiple-zeta basis: split     

SPLIT: Orbitals with angular momentum L= 0

SPLIT: Basis orbitals for state 2s

SPLIT: PAO cut-off radius determined from an
SPLIT: energy shift=  0.002000 Ry

   izeta = 1
                 lambda =    1.000000
                     rc =    4.730425
                 energy =   -1.363399
                kinetic =    1.245246
    potential(screened) =   -2.608645
       potential(ionic) =   -8.121105

   izeta = 2
                 rmatch =    2.531849
              splitnorm =    0.280000
                 energy =   -0.959908
                kinetic =    2.409435
    potential(screened) =   -3.369343
       potential(ionic) =   -9.427975

SPLIT: Orbitals with angular momentum L= 1

SPLIT: Basis orbitals for state 2p

SPLIT: PAO cut-off radius determined from an
SPLIT: energy shift=  0.002000 Ry

   izeta = 1
                 lambda =    1.000000
                     rc =    5.924108
                 energy =   -0.519262
                kinetic =    3.672940
    potential(screened) =   -4.192202
       potential(ionic) =   -9.518354

   izeta = 2
                 rmatch =    2.531849
              splitnorm =    0.280000
                 energy =   -0.104258
                kinetic =    6.807538
    potential(screened) =   -6.911796
       potential(ionic) =  -13.149920

POLgen: Perturbative polarization orbital with L=  2

POLgen: Polarization orbital for state 2p

   izeta = 1
                     rc =    5.924108
                 energy =    1.427508
                kinetic =    2.872379
    potential(screened) =   -1.444871
       potential(ionic) =   -5.563644
atom: Total number of Sankey-type orbitals: 13

atm_pop: Valence configuration (for local Pseudopot. screening):
 2s( 2.00)                                                            
 2p( 3.00)                                                            
Vna: chval, zval:    5.00000   5.00000

Vna:  Cut-off radius for the neutral-atom potential:   5.924108

atom: _________________________________________________________________________

<basis_specs>
===============================================================================
Si                   Z=  14    Mass=  28.090        Charge= 0.17977+309
Lmxo=1 Lmxkb= 3    BasisType=split      Semic=F
L=0  Nsemic=0  Cnfigmx=3
          i=1  nzeta=2  polorb=0  (3s)
            splnorm:   0.28000    
               vcte:    0.0000    
               rinn:    0.0000    
               qcoe:    0.0000    
               qyuk:    0.0000    
               qwid:   0.10000E-01
                rcs:    0.0000      0.0000    
            lambdas:    1.0000      1.0000    
L=1  Nsemic=0  Cnfigmx=3
          i=1  nzeta=2  polorb=1  (3p)
            splnorm:   0.28000    
               vcte:    0.0000    
               rinn:    0.0000    
               qcoe:    0.0000    
               qyuk:    0.0000    
               qwid:   0.10000E-01
                rcs:    0.0000      0.0000    
            lambdas:    1.0000      1.0000    
-------------------------------------------------------------------------------
L=0  Nkbl=1  erefs: 0.17977+309
L=1  Nkbl=1  erefs: 0.17977+309
L=2  Nkbl=1  erefs: 0.17977+309
L=3  Nkbl=1  erefs: 0.17977+309
===============================================================================
</basis_specs>

atom: Called for Si                    (Z =  14)

read_vps: Pseudopotential generation method:
read_vps: ATM4.2.7  Troullier-Martins                       
Valence charge for ps generation:    4.00000

xc_check: Exchange-correlation functional:
xc_check: GGA Perdew, Burke & Ernzerhof 1996
V l=0 = -2*Zval/r beyond r=  2.7826
V l=1 = -2*Zval/r beyond r=  2.7826
V l=2 = -2*Zval/r beyond r=  2.9253
V l=3 = -2*Zval/r beyond r=  2.7826
All V_l potentials equal beyond r=  2.8530
This should be close to max(r_c) in ps generation
All pots = -2*Zval/r beyond r=  2.9253

VLOCAL1: 99.0% of the norm of Vloc inside      5.333 Ry
VLOCAL1: 99.9% of the norm of Vloc inside     12.154 Ry
atom: Maximum radius for 4*pi*r*r*local-pseudopot. charge    3.39869
atom: Maximum radius for r*vlocal+2*Zval:    2.96205
GHOST: No ghost state for L =  0
GHOST: No ghost state for L =  1
GHOST: No ghost state for L =  2
GHOST: No ghost state for L =  3

KBgen: Kleinman-Bylander projectors: 
   l= 0   rc=  3.075247   el= -0.794092   Ekb=  5.879390   kbcos=  0.167461
   l= 1   rc=  3.153101   el= -0.300068   Ekb=  2.642817   kbcos=  0.058301
   l= 2   rc=  3.273594   el=  0.001958   Ekb= -1.185135   kbcos= -0.104411
   l= 3   rc=  3.232927   el=  0.003046   Ekb= -0.497174   kbcos= -0.015889

KBgen: Total number of Kleinman-Bylander projectors:   16
atom: -------------------------------------------------------------------------

atom: SANKEY-TYPE ORBITALS:
atom: Selected multiple-zeta basis: split     

SPLIT: Orbitals with angular momentum L= 0

SPLIT: Basis orbitals for state 3s

SPLIT: PAO cut-off radius determined from an
SPLIT: energy shift=  0.002000 Ry

   izeta = 1
                 lambda =    1.000000
                     rc =    6.429618
                 energy =   -0.792283
                kinetic =    0.525293
    potential(screened) =   -1.317576
       potential(ionic) =   -3.744923

   izeta = 2
                 rmatch =    3.998416
              splitnorm =    0.280000
                 energy =   -0.583081
                kinetic =    1.069570
    potential(screened) =   -1.652651
       potential(ionic) =   -4.235185

SPLIT: Orbitals with angular momentum L= 1

SPLIT: Basis orbitals for state 3p

SPLIT: PAO cut-off radius determined from an
SPLIT: energy shift=  0.002000 Ry

   izeta = 1
                 lambda =    1.000000
                     rc =    8.464845
                 energy =   -0.298236
                kinetic =    0.785360
    potential(screened) =   -1.083596
       potential(ionic) =   -3.273779

   izeta = 2
                 rmatch =    4.587816
              splitnorm =    0.280000
                 energy =   -0.131871
                kinetic =    1.403687
    potential(screened) =   -1.535557
       potential(ionic) =   -4.015310

POLgen: Perturbative polarization orbital with L=  2

POLgen: Polarization orbital for state 3p

   izeta = 1
                     rc =    8.464845
                 energy =    0.321949
                kinetic =    1.055677
    potential(screened) =   -0.733728
       potential(ionic) =   -2.672950
atom: Total number of Sankey-type orbitals: 13

atm_pop: Valence configuration (for local Pseudopot. screening):
 3s( 2.00)                                                            
 3p( 2.00)                                                            
Vna: chval, zval:    4.00000   4.00000

Vna:  Cut-off radius for the neutral-atom potential:   8.464845

atom: _________________________________________________________________________

<basis_specs>
===============================================================================
O                    Z=   8    Mass=  16.000        Charge= 0.17977+309
Lmxo=1 Lmxkb= 3    BasisType=split      Semic=F
L=0  Nsemic=0  Cnfigmx=2
          i=1  nzeta=2  polorb=0  (2s)
            splnorm:   0.28000    
               vcte:    0.0000    
               rinn:    0.0000    
               qcoe:    0.0000    
               qyuk:    0.0000    
               qwid:   0.10000E-01
                rcs:    0.0000      0.0000    
            lambdas:    1.0000      1.0000    
L=1  Nsemic=0  Cnfigmx=2
          i=1  nzeta=2  polorb=1  (2p)
            splnorm:   0.28000    
               vcte:    0.0000    
               rinn:    0.0000    
               qcoe:    0.0000    
               qyuk:    0.0000    
               qwid:   0.10000E-01
                rcs:    0.0000      0.0000    
            lambdas:    1.0000      1.0000    
-------------------------------------------------------------------------------
L=0  Nkbl=1  erefs: 0.17977+309
L=1  Nkbl=1  erefs: 0.17977+309
L=2  Nkbl=1  erefs: 0.17977+309
L=3  Nkbl=1  erefs: 0.17977+309
===============================================================================
</basis_specs>

atom: Called for O                     (Z =   8)

read_vps: Pseudopotential generation method:
read_vps: ATM4.2.7  Troullier-Martins                       
Valence charge for ps generation:    6.00000

xc_check: Exchange-correlation functional:
xc_check: GGA Perdew, Burke & Ernzerhof 1996
V l=0 = -2*Zval/r beyond r=  1.1000
V l=1 = -2*Zval/r beyond r=  1.1000
V l=2 = -2*Zval/r beyond r=  2.2154
V l=3 = -2*Zval/r beyond r=  1.1000
All V_l potentials equal beyond r=  2.2154
This should be close to max(r_c) in ps generation
All pots = -2*Zval/r beyond r=  2.2154

VLOCAL1: 99.0% of the norm of Vloc inside      8.845 Ry
VLOCAL1: 99.9% of the norm of Vloc inside     20.157 Ry
atom: Maximum radius for 4*pi*r*r*local-pseudopot. charge    2.67231
atom: Maximum radius for r*vlocal+2*Zval:    2.32897
GHOST: No ghost state for L =  0
GHOST: No ghost state for L =  1
GHOST: No ghost state for L =  2
GHOST: No ghost state for L =  3

KBgen: Kleinman-Bylander projectors: 
   l= 0   rc=  2.243238   el= -1.759686   Ekb=**********   kbcos= -0.171774
   l= 1   rc=  2.328968   el= -0.663873   Ekb=-14.506792   kbcos= -0.519897
   l= 2   rc=  2.573941   el=  0.002031   Ekb= -1.137373   kbcos= -0.019581
   l= 3   rc=  2.606321   el=  0.003153   Ekb= -1.013546   kbcos= -0.003122

KBgen: Total number of Kleinman-Bylander projectors:   16
atom: -------------------------------------------------------------------------

atom: SANKEY-TYPE ORBITALS:
atom: Selected multiple-zeta basis: split     

SPLIT: Orbitals with angular momentum L= 0

SPLIT: Basis orbitals for state 2s

SPLIT: PAO cut-off radius determined from an
SPLIT: energy shift=  0.002000 Ry

   izeta = 1
                 lambda =    1.000000
                     rc =    4.243912
                 energy =   -1.758270
                kinetic =    3.286084
    potential(screened) =   -5.044353
       potential(ionic) =  -12.921184

   izeta = 2
                 rmatch =    2.187845
              splitnorm =    0.280000
                 energy =   -0.885018
                kinetic =    8.134434
    potential(screened) =   -9.019452
       potential(ionic) =  -17.710645

SPLIT: Orbitals with angular momentum L= 1

SPLIT: Basis orbitals for state 2p

SPLIT: PAO cut-off radius determined from an
SPLIT: energy shift=  0.002000 Ry

   izeta = 1
                 lambda =    1.000000
                     rc =    5.314825
                 energy =   -0.661986
                kinetic =    4.917472
    potential(screened) =   -5.579458
       potential(ionic) =  -13.236259

   izeta = 2
                 rmatch =    2.160663
              splitnorm =    0.280000
                 energy =   -0.068760
                kinetic =    9.183374
    potential(screened) =   -9.252135
       potential(ionic) =  -18.274251

POLgen: Perturbative polarization orbital with L=  2

POLgen: Polarization orbital for state 2p

   izeta = 1
                     rc =    5.314825
                 energy =    1.970580
                kinetic =    3.886128
    potential(screened) =   -1.915547
       potential(ionic) =   -7.749584
atom: Total number of Sankey-type orbitals: 13

atm_pop: Valence configuration (for local Pseudopot. screening):
 2s( 2.00)                                                            
 2p( 4.00)                                                            
Vna: chval, zval:    6.00000   6.00000

Vna:  Cut-off radius for the neutral-atom potential:   5.314825

atom: _________________________________________________________________________

prinput: Basis input ----------------------------------------------------------

PAO.BasisType split     

%block ChemicalSpeciesLabel
    1    1 H                       # Species index, atomic number, species label
    2    7 N                       # Species index, atomic number, species label
    3   14 Si                      # Species index, atomic number, species label
    4    8 O                       # Species index, atomic number, species label
%endblock ChemicalSpeciesLabel

%block PAO.Basis                 # Define Basis set
H                     1                    # Species label, number of l-shells
 n=1   0   2 P   1                   # n, l, Nzeta, Polarization, NzetaPol
   6.518      2.141   
   1.000      1.000   
N                     2                    # Species label, number of l-shells
 n=2   0   2                         # n, l, Nzeta 
   4.730      2.532   
   1.000      1.000   
 n=2   1   2 P   1                   # n, l, Nzeta, Polarization, NzetaPol
   5.924      2.532   
   1.000      1.000   
Si                    2                    # Species label, number of l-shells
 n=3   0   2                         # n, l, Nzeta 
   6.430      3.998   
   1.000      1.000   
 n=3   1   2 P   1                   # n, l, Nzeta, Polarization, NzetaPol
   8.465      4.588   
   1.000      1.000   
O                     2                    # Species label, number of l-shells
 n=2   0   2                         # n, l, Nzeta 
   4.244      2.188   
   1.000      1.000   
 n=2   1   2 P   1                   # n, l, Nzeta, Polarization, NzetaPol
   5.315      2.161   
   1.000      1.000   
%endblock PAO.Basis

prinput: ----------------------------------------------------------------------

Dumping basis to NetCDF file H.ion.nc
Dumping basis to NetCDF file N.ion.nc
Dumping basis to NetCDF file Si.ion.nc
Dumping basis to NetCDF file O.ion.nc
coor:   Atomic-coordinates input format  =     Cartesian coordinates
coor:                                          (in Angstroms)

siesta: Atomic coordinates (Bohr) and species
siesta:      3.22667   4.90526  -0.00000  1        1
siesta:      1.89160   3.41231  -0.00000  2        2
siesta:     -1.37817   4.24637   0.00000  3        3
siesta:     -1.67255   7.06205   0.00000  1        4
siesta:     -4.25683   1.30046  -0.00000  3        5
siesta:     -7.05965   1.75934  -0.00000  1        6
siesta:     -1.99220  -2.31511  -0.00000  3        7
siesta:     -3.43978  -5.21153  -0.00000  2        8
siesta:     -2.32438  -7.02040   0.00000  1        9
siesta:     -5.42706  -5.36357  -0.00000  1       10
siesta:      1.25095  -2.21085   0.00000  2       11
siesta:      3.28245   0.30313  -0.00000  3       12
siesta:      6.32240   0.26758  -0.00000  4       13
siesta:     10.61355 -14.07759   0.00000  1       14
siesta:      8.65886 -13.66658   0.00000  2       15
siesta:      6.22979 -16.04876   0.00000  3       16
siesta:      7.18318 -18.71532  -0.00000  1       17
siesta:      3.13570 -15.14356   0.00000  2       18
siesta:      3.17659 -11.72506  -0.00000  3       19
siesta:      1.03072  -8.10005   0.00000  3       20
siesta:     -1.95457  -7.45403   0.00000  4       21
siesta:      3.27352  -5.43711   0.00000  2       22
siesta:      2.28576  -3.64645  -0.00000  1       23
siesta:      6.63017  -5.24735   0.00000  3       24
siesta:      7.81751  -2.22872   0.00000  2       25
siesta:      6.69523  -0.49602   0.00000  1       26
siesta:      9.79567  -1.98858  -0.00000  1       27
siesta:      8.75489  -7.70105  -0.00000  2       28
siesta:      7.16982 -10.55666   0.00000  3       29

siesta: System type = molecule  

initatomlists: Number of atoms, orbitals, and projectors:     29   297   394

siesta: ******************** Simulation parameters ****************************
siesta:
siesta: The following are some of the parameters of the simulation.
siesta: A complete list of the parameters used, including default values,
siesta: can be found in file out.fdf
siesta:
redata: Spin configuration                          = spin-orbit
redata: Number of spin components                   = 8
redata: Time-Reversal Symmetry                      = F
redata: Spin spiral                                 = F
############################################################
This spin-orbit implementation uses a local approximation.
From 4.2 and onwards the full non-local approximation is implemented
You are strongly advised to use >=4.2 versions!
############################################################
redata: Long output                                 =   F
redata: Number of Atomic Species                    =        4
redata: Charge density info will appear in .RHO file
redata: Write Mulliken Pop.                         = NO
redata: Matel table size (NRTAB)                    =     1024
redata: Mesh Cutoff                                 =   340.0000 Ry
redata: Net charge of the system                    =     0.0000 |e|
redata: Min. number of SCF Iter                     =        1
redata: Max. number of SCF Iter                     =      200
redata: SCF mix quantity                            = Hamiltonian
redata: Mix DM or H after convergence               =   F
redata: Recompute H after scf cycle                 =   F
redata: Mix DM in first SCF step                    =   T
redata: Write Pulay info on disk                    =   F
redata: New DM Occupancy tolerance                  = 0.000000000001
redata: No kicks to SCF
redata: DM Mixing Weight for Kicks                  =     0.5000
redata: Require Harris convergence for SCF          =   F
redata: Harris energy tolerance for SCF             =     0.000100 eV
redata: Require DM convergence for SCF              =   T
redata: DM tolerance for SCF                        =     0.000008
redata: Require EDM convergence for SCF             =   F
redata: EDM tolerance for SCF                       =     0.001000 eV
redata: Require H convergence for SCF               =   T
redata: Hamiltonian tolerance for SCF               =     0.000001 eV
redata: Require (free) Energy convergence for SCF   =   F
redata: (free) Energy tolerance for SCF             =     0.000100 eV
redata: Using Saved Data (generic)                  =   F
redata: Use continuation files for DM               =   T
redata: Neglect nonoverlap interactions             =   F
redata: Method of Calculation                       = Diagonalization
redata: Electronic Temperature                      =   299.9978 K
redata: Fix the spin of the system                  =   F
redata: Dynamics option                             = Verlet MD run
redata: Initial MD time step                        =        1
redata:   Final MD time step                        =        1
redata: Length of MD time step                      =     0.5000 fs
redata: Initial Temperature of MD run               =     0.0000 K
redata: Perform a MD quench                         =   F
mix.SCF: Pulay mixing                            = Pulay
mix.SCF:    Variant                              = stable
mix.SCF:    History steps                        = 6
mix.SCF:    Linear mixing weight                 =     0.250000
mix.SCF:    Mixing weight                        =     0.250000
mix.SCF:    SVD condition                        = 0.1000E-07
mix.SCF:    Restart steps                        = 24
mix.SCF:    Restart save steps                   = 3
mix.SCF: Spin-component mixing                   all
redata: Save all siesta data in one NC              =   F
redata: ***********************************************************************

%block SCF.Mixers
  Pulay
%endblock SCF.Mixers

%block SCF.Mixer.Pulay
  # Mixing method
  method pulay
  variant stable

  # Mixing options
  weight 0.2500
  weight.linear 0.2500
  history 6
  restart 24
  restart.save 3
%endblock SCF.Mixer.Pulay

Size of DM history Fstack: 3
Total number of electrons:    98.000000
Total ionic charge:    98.000000

* ProcessorY, Blocksize:    2  24


* Orbital distribution balance (max,min):    48    24


Time-reversal symmetry not used.

siesta: k-grid: Number of k-points =     1
siesta: k-grid: Cutoff (effective) =     5.000 Ang
siesta: k-grid: Supercell and displacements
siesta: k-grid:    1   0   0      0.000
siesta: k-grid:    0   1   0      0.000
siesta: k-grid:    0   0   1      0.000

diag: Algorithm                                     = ELPA-1stage
diag: Parallel over k                               =   F
diag: Use parallel 2D distribution                  =   T
diag: Parallel block-size                           = 24
diag: Parallel distribution                         =     2 x     4
diag: Used triangular part                          = Lower
diag: Absolute tolerance                            =  0.100E-15
diag: Orthogonalization factor                      =  0.100E-05
diag: Memory factor                                 =  1.0000


ts: **************************************************************
ts: Save H and S matrices                           =    F
ts: Save DM and EDM matrices                        =    F
ts: Only save the overlap matrix S                  =    F
ts: **************************************************************

************************ Begin: TS CHECKS AND WARNINGS ************************
************************ End: TS CHECKS AND WARNINGS **************************


                     ====================================
                        Begin MD step =      1
                     ====================================

outcoor: Atomic coordinates (Ang):                          
    1.70747748    2.59575265    0.00000000   1       1  H
    1.00099075    1.80571647    0.00000000   2       2  N
   -0.72929616    2.24708038    0.00000000   3       3  Si
   -0.88507584    3.73707264    0.00000000   1       4  H
   -2.25261778    0.68817286    0.00000000   3       5  Si
   -3.73580541    0.93100322    0.00000000   1       6  H
   -1.05422692   -1.22510330    0.00000000   3       7  Si
   -1.82025238   -2.75782004    0.00000000   2       8  N
   -1.23000583   -3.71503307    0.00000000   1       9  H
   -2.87187470   -2.83828027    0.00000000   1      10  H
    0.66197314   -1.16992899    0.00000000   2      11  N
    1.73699576    0.16040985    0.00000000   3      12  Si
    3.34566908    0.14159959    0.00000000   4      13  O
    5.61644830   -7.44953905    0.00000000   1      14  H
    4.58206954   -7.23203760    0.00000000   2      15  N
    3.29666389   -8.49263600    0.00000000   3      16  Si
    3.80117524   -9.90371886    0.00000000   1      17  H
    1.65934232   -8.01362137    0.00000000   2      18  N
    1.68097912   -6.20463398    0.00000000   3      19  Si
    0.54543521   -4.28636135    0.00000000   3      20  Si
   -1.03431493   -3.94450034    0.00000000   4      21  O
    1.73226934   -2.87719605    0.00000000   2      22  N
    1.20957366   -1.92961761    0.00000000   1      23  H
    3.50853448   -2.77677601    0.00000000   3      24  Si
    4.13684451   -1.17938608    0.00000000   2      25  N
    3.54296161   -0.26248101    0.00000000   1      26  H
    5.18364407   -1.05231197    0.00000000   1      27  H
    4.63288658   -4.07521596    0.00000000   2      28  N
    3.79410501   -5.58634043    0.00000000   3      29  Si

outcell: Unit cell vectors (Ang):
       30.000000    0.000000    0.000000
        0.000000   45.000000    0.000000
        0.000000    0.000000   10.000000

outcell: Cell vector modules (Ang)   :   30.000000   45.000000   10.000000
outcell: Cell angles (23,13,12) (deg):     90.0000     90.0000     90.0000
outcell: Cell volume (Ang**3)        :  13500.0000
siesta: WARNING: Atoms     9    21 too close: rij =    0.301579 Ang
siesta: WARNING: Atoms    13    26 too close: rij =    0.449673 Ang
<dSpData1D:S at geom step 1
  <sparsity:sparsity for geom step 1
    nrows_g=297 nrows=48 sparsity=.1481 nnzs=13068, refcount: 8>
  <dData1D:(new from dSpData1D) n=13068, refcount: 1>
refcount: 1>
new_DM -- step:     1
Initializing Density Matrix...

Attempting to read DM from file... Failed...
DM filled with atomic data:
<dSpData2D:DM initialized from atoms
  <sparsity:sparsity for geom step 1
    nrows_g=297 nrows=48 sparsity=.1481 nnzs=13068, refcount: 9>
  <dData2D:DM n=13068 m=8, refcount: 1>
refcount: 1>
     spin moment: S , {S} =   56.00000   0.00000   0.00000  56.00000
No. of atoms with KB's overlaping orbs in proc 0. Max # of overlaps:      27     237

Initializing spin-orbit part of the Hamiltonian
  Adding spin-orbit effects for H 
  Adding spin-orbit effects for N 
  Adding spin-orbit effects for Si
  Adding spin-orbit effects for O 


New grid distribution:   1
           1       1:  180    1:  125    1:   15
           2       1:  180    1:  125   16:   30
           3       1:  180    1:  125   31:   45
           4       1:  180    1:  125   46:   60
           5       1:  180  126:  250    1:   15
           6       1:  180  126:  250   16:   30
           7       1:  180  126:  250   31:   45
           8       1:  180  126:  250   46:   60

InitMesh: MESH =   360 x   500 x   120 =    21600000
InitMesh: (bp) =   180 x   250 x    60 =     2700000
InitMesh: Mesh cutoff (required, used) =   340.000   341.206 Ry
ExtMesh (bp) on 0 =   288 x   225 x   123 =     7970400
New grid distribution:   2
           1      22:  180    1:  201    1:   60
           2      22:  180  227:  238    1:   60
           3       1:   21  203:  226    1:   60
           4       1:   21  239:  250    1:   60
           5       1:   21    1:  202    1:   60
           6      22:  180  202:  226    1:   60
           7      22:  180  239:  250    1:   60
           8       1:   21  227:  238    1:   60
New grid distribution:   3
           1      33:  180   19:  207    1:   60
           2      33:  180    1:   18    1:   60
           3       1:   32    1:   32    1:   60
           4       1:   35  208:  228    1:   60
           5       1:   32   33:  207    1:   60
           6      36:  180  208:  232    1:   60
           7      36:  180  233:  250    1:   60
           8       1:   35  229:  250    1:   60
Setting up quadratic distribution...
ExtMesh (bp) on 0 =   267 x   301 x   168 =    13501656
PhiOnMesh: Number of (b)points on node 0 =              1917540
PhiOnMesh: nlist on node 0 =              1926522

stepf: Fermi-Dirac step function

siesta: Program's energy decomposition (eV):
siesta: Ebs     =      -413.422564
siesta: Eions   =      3585.165840
siesta: Ena     =       629.039769
siesta: Ekin    =      3695.986193
siesta: Enl     =     -3663.730045
siesta: Eso     =        -0.003665
siesta: Edftu   =         0.000000
siesta: DEna    =       155.645788
siesta: DUscf   =       123.067826
siesta: DUext   =         0.000000
siesta: Exc     =     -1259.543578
siesta: eta*DQ  =         0.000000
siesta: Emadel  =         0.000000
siesta: Emeta   =         0.000000
siesta: Emolmec =         0.000000
siesta: Ekinion =         0.000000
siesta: Eharris =     -3724.715312
siesta: Etot    =     -3904.703551
siesta: FreeEng =     -3904.711804

        iscf     Eharris(eV)        E_KS(eV)     FreeEng(eV)     dDmax    Ef(eV) dHmax(eV)
   scf:    1    -3724.715312    -3904.703551    -3904.711804  0.933163 -4.995465 39.075155
     spin moment: S , {S} =    2.06784   0.00000  -0.00000   2.06784
timer: Routine,Calls,Time,% = IterSCF        1      18.993  26.69
   scf:    2    -3847.777085    -3927.697046    -3927.704851  0.862578 -3.825054 22.016706
     spin moment: S , {S} =    7.93431   0.00000   0.00000   7.93431
   scf:    3    -3911.457512    -3954.834095    -3954.852397  1.329436 -4.194993 19.206497
     spin moment: S , {S} =    4.21475   0.00000   0.00000   4.21475
   scf:    4    -3973.171776    -3967.986766    -3968.035028  1.078732 -3.669447  8.493310
     spin moment: S , {S} =    2.74588   0.00000   0.00000   2.74588
   scf:    5    -3973.107563    -3970.923447    -3970.942667  0.213258 -3.319607  5.424995
     spin moment: S , {S} =    1.91737   0.00000   0.00000   1.91737
   scf:    6    -3971.267188    -3971.364991    -3971.396941  0.240645 -3.226608  6.048799
     spin moment: S , {S} =    0.61300   0.00000   0.00000   0.61300
   scf:    7    -3971.099735    -3971.800176    -3971.830417  0.209049 -3.113976  2.921245
     spin moment: S , {S} =    1.45700  -0.00000  -0.00000   1.45700
   scf:    8    -3971.810473    -3972.210624    -3972.212686  0.289766 -3.119117  3.797011
     spin moment: S , {S} =    0.01338   0.00000  -0.00000   0.01338
   scf:    9    -3972.756609    -3972.522162    -3972.523568  0.040442 -3.130241  1.754566
     spin moment: S , {S} =    0.00848   0.00000   0.00000   0.00848
   scf:   10    -3972.643514    -3972.585713    -3972.586681  0.016514 -3.160913  1.422578
     spin moment: S , {S} =    0.00547   0.00000  -0.00000   0.00547
   scf:   11    -3972.709646    -3972.650987    -3972.651375  0.027209 -3.188683  0.674012
     spin moment: S , {S} =    0.00191   0.00000  -0.00000   0.00191
   scf:   12    -3972.701573    -3972.675749    -3972.675906  0.019752 -3.210922  0.335006
     spin moment: S , {S} =    0.00064   0.00000  -0.00000   0.00064
   scf:   13    -3972.705068    -3972.689191    -3972.689251  0.017335 -3.233204  0.214048
     spin moment: S , {S} =    0.00018   0.00000  -0.00000   0.00018
   scf:   14    -3972.705043    -3972.696225    -3972.696256  0.016690 -3.253425  0.110251
     spin moment: S , {S} =    0.00005   0.00000  -0.00000   0.00005
   scf:   15    -3972.697954    -3972.697110    -3972.697135  0.004033 -3.255908  0.052894
     spin moment: S , {S} =    0.00004   0.00000  -0.00000   0.00004
   scf:   16    -3972.699800    -3972.698296    -3972.698316  0.006572 -3.261381  0.037247
     spin moment: S , {S} =    0.00002   0.00000  -0.00000   0.00002
   scf:   17    -3972.699682    -3972.698866    -3972.698883  0.006376 -3.263982  0.012515
     spin moment: S , {S} =    0.00000   0.00000   0.00000   0.00000
   scf:   18    -3972.699164    -3972.698987    -3972.699004  0.003251 -3.264520  0.006014
     spin moment: S , {S} =    0.00000   0.00000   0.00000  -0.00000
   scf:   19    -3972.699007    -3972.698997    -3972.699013  0.000443 -3.264449  0.003994
     spin moment: S , {S} =    0.00000   0.00000   0.00000  -0.00000
   scf:   20    -3972.699032    -3972.699012    -3972.699029  0.001016 -3.264555  0.002674
     spin moment: S , {S} =    0.00000   0.00000   0.00000  -0.00000
   scf:   21    -3972.699031    -3972.699020    -3972.699037  0.000933 -3.264635  0.001459
     spin moment: S , {S} =    0.00000   0.00000   0.00000  -0.00000
   scf:   22    -3972.699024    -3972.699022    -3972.699039  0.000372 -3.264659  0.001102
     spin moment: S , {S} =    0.00000   0.00000   0.00000  -0.00000
   scf:   23    -3972.699024    -3972.699023    -3972.699039  0.000347 -3.264659  0.000723
     spin moment: S , {S} =    0.00000   0.00000   0.00000  -0.00000
   scf:   24    -3972.699023    -3972.699023    -3972.699040  0.000240 -3.264646  0.000752
     spin moment: S , {S} =    0.00000   0.00000   0.00000  -0.00000
mix: Pulay -- resetting history
   scf:   25    -3972.699024    -3972.699023    -3972.699040  0.000087 -3.264628  0.000507
     spin moment: S , {S} =    0.00000   0.00000   0.00000  -0.00000
   scf:   26    -3972.699023    -3972.699023    -3972.699040  0.000058 -3.264626  0.000303
     spin moment: S , {S} =    0.00000   0.00000   0.00000  -0.00000
   scf:   27    -3972.699023    -3972.699023    -3972.699040  0.000048 -3.264627  0.000153
     spin moment: S , {S} =    0.00000   0.00000   0.00000  -0.00000
   scf:   28    -3972.699023    -3972.699023    -3972.699040  0.000023 -3.264633  0.000068
     spin moment: S , {S} =    0.00000   0.00000   0.00000  -0.00000
   scf:   29    -3972.699023    -3972.699023    -3972.699040  0.000009 -3.264636  0.000051
     spin moment: S , {S} =    0.00000   0.00000   0.00000  -0.00000
   scf:   30    -3972.699023    -3972.699023    -3972.699040  0.000008 -3.264636  0.000030
     spin moment: S , {S} =    0.00000  -0.00000   0.00000  -0.00000
   scf:   31    -3972.699023    -3972.699023    -3972.699040  0.000003 -3.264637  0.000020
     spin moment: S , {S} =    0.00000   0.00000   0.00000  -0.00000
   scf:   32    -3972.699023    -3972.699023    -3972.699040  0.000003 -3.264636  0.000010
     spin moment: S , {S} =    0.00000   0.00000   0.00000   0.00000
   scf:   33    -3972.699023    -3972.699023    -3972.699040  0.000002 -3.264636  0.000008
     spin moment: S , {S} =    0.00000   0.00000   0.00000   0.00000
   scf:   34    -3972.699023    -3972.699023    -3972.699040  0.000001 -3.264636  0.000007
     spin moment: S , {S} =    0.00000   0.00000   0.00000   0.00000
   scf:   35    -3972.699023    -3972.699023    -3972.699040  0.000001 -3.264636  0.000004
     spin moment: S , {S} =    0.00000  -0.00000   0.00000   0.00000
   scf:   36    -3972.699023    -3972.699023    -3972.699040  0.000000 -3.264636  0.000003
     spin moment: S , {S} =    0.00000  -0.00000   0.00000   0.00000
   scf:   37    -3972.699023    -3972.699023    -3972.699040  0.000000 -3.264636  0.000002
     spin moment: S , {S} =    0.00000  -0.00000   0.00000   0.00000
   scf:   38    -3972.699023    -3972.699023    -3972.699040  0.000000 -3.264636  0.000001
     spin moment: S , {S} =    0.00000  -0.00000   0.00000   0.00000

SCF Convergence by DM+H criterion
max |DM_out - DM_in|         :     0.0000002495
max |H_out - H_in|      (eV) :     0.0000008808
SCF cycle converged after 38 iterations

Using DM_out to compute the final energy and forces
No. of atoms with KB's overlaping orbs in proc 0. Max # of overlaps:      27     237

siesta: E_KS(eV) =            -3972.6990

siesta: E_KS - E_eggbox =     -3972.6990
     spin moment: S , {S} =    0.00000  -0.00000   0.00000   0.00000

siesta: Atomic forces (eV/Ang):
     1    0.007555    0.081122    0.000000
     2    0.809757   -0.547455    0.000000
     3   -1.121040    0.272348   -0.000000
     4    0.285351    0.381759   -0.000000
     5    0.748675    0.143052    0.000000
     6    0.035311   -0.079553    0.000000
     7   -3.903880    0.066345   -0.000000
     8  -22.889181   37.815592    0.000000
     9 -533.163687  625.817197    0.000000
    10   -0.423580    0.731976    0.000000
    11   -9.527945   16.011362    0.000000
    12   -3.808411    2.412744    0.000000
    13 -129.870518  264.957943   -0.000000
    14   -0.017013    0.031597   -0.000000
    15   -0.137028   -0.205410    0.000000
    16   -0.019811    0.051945   -0.000000
    17   -0.001646    0.004607    0.000000
    18    0.012493   -0.111573   -0.000000
    19   -0.740534   -0.138879    0.000000
    20    4.487665   -1.345544   -0.000000
    21  557.126421 -666.766660   -0.000000
    22    5.789652  -11.648603    0.000000
    23    3.690627   -5.377988    0.000000
    24    1.008010    0.187103    0.000000
    25   17.997378  -29.744568   -0.000000
    26  110.552161 -234.063301    0.000000
    27    0.073427   -0.642368   -0.000000
    28    0.357892   -1.443703   -0.000000
    29    0.631592    0.643265   -0.000000
----------------------------------------
   Tot   -2.010304   -2.505650   -0.000000
----------------------------------------
   Max  666.766660
   Res  135.134788    sqrt( Sum f_i^2 / 3N )
----------------------------------------
   Max  666.766660    constrained

Stress tensor Voigt[x,y,z,yz,xz,xy] (kbar):      -21.11      -42.04       -0.03       -0.00        0.00       29.26
(Free)E + p*V (eV/cell)    -3795.2607
Target enthalpy (eV/cell)    -3972.6990

siesta: Stress tensor (static) (eV/Ang**3):
        -0.013173    0.018260   -0.000000
         0.018260   -0.026237    0.000000
         0.000000   -0.000000   -0.000021

siesta: Pressure (static):         21.05857018  kBar

siesta: Stress tensor (total) (eV/Ang**3):
        -0.013173    0.018260   -0.000000
         0.018260   -0.026237    0.000000
         0.000000   -0.000000   -0.000021

siesta: Pressure (total):         21.05857018  kBar

siesta: Temp_ion =       0.000 K

siesta: Eigenvalues (eV):
ik =     1
  -35.1885  -35.1885  -33.7001  -33.7001  -23.2810  -23.2810  -21.7179  -21.7179  -20.9942  -20.9942
  -20.0813  -20.0813  -19.7684  -19.7684  -19.1756  -19.1756  -19.0506  -19.0506  -18.7278  -18.7278
  -17.7809  -17.7809  -16.8340  -16.8340  -14.4919  -14.4919  -13.8400  -13.8400  -13.7469  -13.7469
  -13.3832  -13.3832  -12.8648  -12.8648  -12.5981  -12.5981  -12.5244  -12.5244  -12.3898  -12.3898
  -11.8345  -11.8345  -11.4350  -11.4350  -11.3147  -11.3147  -10.9549  -10.9549  -10.9385  -10.9385
  -10.4333  -10.4333  -10.1456  -10.1456   -9.9228   -9.9228   -9.2817   -9.2817   -9.1569   -9.1569
   -8.8463   -8.8463   -8.7275   -8.7275   -8.6293   -8.6293   -8.1914   -8.1914   -8.1518   -8.1518
   -8.0514   -8.0514   -7.9608   -7.9608   -7.1986   -7.1986   -7.1157   -7.1157   -6.5382   -6.5382
   -6.2419   -6.2419   -5.8999   -5.8999   -5.7903   -5.7903   -5.2697   -5.2697   -5.2291   -5.2291
   -5.1782   -5.1782   -4.1726   -4.1726   -4.1045   -4.1045   -3.5550   -3.5550   -2.9743   -2.9743
   -2.6677   -2.6677   -2.5171   -2.5171   -2.2631   -2.2631   -2.0415   -2.0415   -1.9622   -1.9622
   -1.7908   -1.7908   -1.3917   -1.3917   -1.3222   -1.3222   -0.9360   -0.9360   -0.8392   -0.8392
   -0.6548   -0.6548   -0.6413   -0.6413   -0.3459   -0.3459   -0.0593   -0.0593    0.3951    0.3951
    0.4843    0.4843    0.6608    0.6608    0.7815    0.7815    0.8480    0.8480    1.3386    1.3386
    1.4367    1.4367    1.6451    1.6451    1.6715    1.6715    1.8073    1.8073    2.2642    2.2642
    2.4683    2.4683    2.5678    2.5678    2.6090    2.6090    2.6810    2.6810    3.0547    3.0547
    3.1106    3.1106    3.3897    3.3897    3.4129    3.4129    3.7642    3.7642    4.0685    4.0685
    4.2517    4.2517    4.3479    4.3479    4.4828    4.4828    4.5257    4.5257    4.7168    4.7168
    4.8570    4.8570    4.9842    4.9842    5.0681    5.0681    5.4444    5.4444    5.5610    5.5610
    5.7156    5.7156    5.7511    5.7511    5.7997    5.7997    5.9634    5.9634    6.0953    6.0953
    6.1875    6.1875    6.3637    6.3637    6.5424    6.5424    6.8088    6.8088    6.9238    6.9238
    7.2654    7.2654    7.3583    7.3583    7.4176    7.4176    7.7424    7.7424    7.9283    7.9283
    7.9516    7.9516    8.0173    8.0173    8.2458    8.2458    8.6064    8.6064    8.6272    8.6272
    8.7274    8.7274    8.9801    8.9801    9.0635    9.0635    9.2369    9.2369    9.4155    9.4155
    9.4993    9.4993    9.5639    9.5639    9.8586    9.8586   10.0849   10.0849   10.2602   10.2602
   10.6032   10.6032   10.6788   10.6788   10.8890   10.8890   11.1683   11.1683   11.2307   11.2307
   11.3539   11.3539   11.6920   11.6920   11.7281   11.7281   12.0232   12.0232   12.4895   12.4895
   12.6396   12.6396   12.8201   12.8201   12.8499   12.8499   13.0779   13.0779   13.1481   13.1481
   13.4892   13.4892   13.5880   13.5880   13.7208   13.7208   14.3711   14.3711   14.4176   14.4176
   14.7582   14.7582   14.8027   14.8027   15.2566   15.2566   15.6655   15.6655   15.9955   15.9955
   16.4697   16.4697   16.7406   16.7406   17.0366   17.0366   18.0429   18.0429   18.1663   18.1663
   18.3660   18.3660   18.5875   18.5875   18.8689   18.8689   19.1519   19.1519   19.7806   19.7806
   20.3413   20.3413   20.5420   20.5420   21.1461   21.1461   21.3384   21.3384   22.0110   22.0110
   22.2559   22.2559   22.5268   22.5268   22.7581   22.7581   23.0467   23.0467   23.1376   23.1376
   23.2064   23.2064   23.8740   23.8740   24.4537   24.4537   24.4854   24.4854   25.2418   25.2418
   25.8019   25.8019   26.0217   26.0217   27.6109   27.6109   27.9231   27.9231   28.0436   28.0436
   28.5909   28.5909   29.5648   29.5648   29.7861   29.7861   30.0460   30.0460   30.6840   30.6840
   30.8651   30.8651   30.9292   30.9292   31.2438   31.2438   31.2730   31.2730   31.5758   31.5758
   32.0595   32.0595   32.2412   32.2412   32.3507   32.3507   32.8550   32.8550   33.6059   33.6059
   34.0745   34.0745   34.2741   34.2741   35.4795   35.4795   35.7589   35.7589   36.3864   36.3864
   36.8197   36.8197   37.1568   37.1568   37.2610   37.2610   37.8729   37.8729   39.4351   39.4351
   39.6093   39.6093   39.9956   39.9956   40.4963   40.4963   40.5734   40.5734   40.7665   40.7665
   41.0097   41.0097   41.3836   41.3836   41.4074   41.4074   41.9922   41.9922   42.1543   42.1543
   43.0263   43.0263   43.2285   43.2285   43.4757   43.4757   43.8000   43.8000   44.3033   44.3033
   44.3995   44.3995   44.5751   44.5751   45.2963   45.2963   45.5676   45.5676   45.9490   45.9490
   46.0114   46.0114   46.6689   46.6689   46.9368   46.9368   47.5083   47.5083   47.8223   47.8223
   47.9689   47.9689   48.2197   48.2197   49.2215   49.2215   49.6090   49.6090   49.8317   49.8317
   50.2977   50.2977   51.0044   51.0044   51.8238   51.8238   52.7052   52.7052   53.4794   53.4794
   53.8015   53.8015   54.2749   54.2749   54.3453   54.3453   55.2586   55.2586   55.8573   55.8573
   56.0759   56.0759   56.1658   56.1658   57.0836   57.0836   57.5303   57.5303   58.3221   58.3221
   59.0672   59.0672   59.6540   59.6540   59.9071   59.9071   60.8934   60.8934   61.6474   61.6474
   62.9301   62.9301   63.7917   63.7917   65.1403   65.1403   65.9249   65.9249   67.1817   67.1817
   68.1177   68.1177   69.6290   69.6290   70.0309   70.0309   70.5658   70.5658   71.6896   71.6896
   73.0749   73.0749   74.4480   74.4480   75.5480   75.5480   77.6998   77.6998   79.0500   79.0500
   81.3836   81.3836   82.6029   82.6029   83.6820   83.6820   85.8637   85.8637   90.4055   90.4055
   92.7390   92.7390   93.2420   93.2420   93.9483   93.9483   96.3052   96.3052   99.3080   99.3080
  101.2009  101.2009  105.0687  105.0687  112.2103  112.2103  117.7342  117.7342  119.0215  119.0215
  122.5821  122.5821  124.4076  124.4076  130.2894  130.2894  134.8372  134.8372  141.2991  141.2991
  144.3955  144.3955  145.8033  145.8033  165.5908  165.5908  176.1524  176.1524  193.7513  193.7513
  445.4157  445.4157  527.6486  527.6486
siesta: Fermi energy =      -3.264636 eV

siesta: Program's energy decomposition (eV):
siesta: Ebs     =     -1204.818827
siesta: Eions   =      3585.165840
siesta: Ena     =       629.039769
siesta: Ekin    =      3115.582315
siesta: Enl     =     -3040.709220
siesta: Eso     =        -0.004697
siesta: Edftu   =         0.000000
siesta: DEna    =        45.993663
siesta: DUscf   =        20.605657
siesta: DUext   =         0.000000
siesta: Exc     =     -1158.040671
siesta: eta*DQ  =         0.000000
siesta: Emadel  =         0.000000
siesta: Emeta   =         0.000000
siesta: Emolmec =         0.000000
siesta: Ekinion =         0.000000
siesta: Eharris =     -3972.699023
siesta: Etot    =     -3972.699023
siesta: FreeEng =     -3972.699040

siesta: Final energy (eV):
siesta:  Band Struct. =   -1204.818827
siesta:       Kinetic =    3115.582315
siesta:       Hartree =   17768.158889
siesta:       Edftu   =       0.000000
siesta:       Eso     =      -0.004697
siesta:    Ext. field =       0.000000
siesta:   Exch.-corr. =   -1158.040671
siesta:  Ion-electron =  -38352.411488
siesta:       Ion-ion =   14654.016627
siesta:       Ekinion =       0.000000
siesta:         Total =   -3972.699023
siesta:         Fermi =      -3.264636

siesta: Atomic forces (eV/Ang):
siesta:      1    0.007555    0.081122    0.000000
siesta:      2    0.809757   -0.547455    0.000000
siesta:      3   -1.121040    0.272348   -0.000000
siesta:      4    0.285351    0.381759   -0.000000
siesta:      5    0.748675    0.143052    0.000000
siesta:      6    0.035311   -0.079553    0.000000
siesta:      7   -3.903880    0.066345   -0.000000
siesta:      8  -22.889181   37.815592    0.000000
siesta:      9 -533.163687  625.817197    0.000000
siesta:     10   -0.423580    0.731976    0.000000
siesta:     11   -9.527945   16.011362    0.000000
siesta:     12   -3.808411    2.412744    0.000000
siesta:     13 -129.870518  264.957943   -0.000000
siesta:     14   -0.017013    0.031597   -0.000000
siesta:     15   -0.137028   -0.205410    0.000000
siesta:     16   -0.019811    0.051945   -0.000000
siesta:     17   -0.001646    0.004607    0.000000
siesta:     18    0.012493   -0.111573   -0.000000
siesta:     19   -0.740534   -0.138879    0.000000
siesta:     20    4.487665   -1.345544   -0.000000
siesta:     21  557.126421 -666.766660   -0.000000
siesta:     22    5.789652  -11.648603    0.000000
siesta:     23    3.690627   -5.377988    0.000000
siesta:     24    1.008010    0.187103    0.000000
siesta:     25   17.997378  -29.744568   -0.000000
siesta:     26  110.552161 -234.063301    0.000000
siesta:     27    0.073427   -0.642368   -0.000000
siesta:     28    0.357892   -1.443703   -0.000000
siesta:     29    0.631592    0.643265   -0.000000
siesta: ----------------------------------------
siesta:    Tot   -2.010304   -2.505650   -0.000000

siesta: Stress tensor (static) (eV/Ang**3):
siesta:    -0.013173    0.018260   -0.000000
siesta:     0.018260   -0.026237    0.000000
siesta:     0.000000   -0.000000   -0.000021

siesta: Cell volume =      13500.000000 Ang**3

siesta: Pressure (static):
siesta:                Solid            Molecule  Units
siesta:           0.00014315         -0.00000057  Ry/Bohr**3
siesta:           0.01314358         -0.00005260  eV/Ang**3
siesta:          21.05857018         -0.08427806  kBar
(Free)E+ p_basis*V_orbitals  =       -3952.848623
(Free)Eharris+ p_basis*V_orbitals  =       -3952.848623
     spin moment: S , {S} =    0.00000  -0.00000   0.00000   0.00000

siesta: Electric dipole (a.u.)  =    0.139085    1.110053    0.000000
siesta: Electric dipole (Debye) =    0.353519    2.821476    0.000000

cite: Please see "GC.bib" for an exhaustive BiBTeX file.
cite: Please clearly indicate Siesta version in published work: v4.1.5-1-g384057250
cite: This calculation has made use of the following articles
cite: which are encouraged to be cited in a published work.
        Primary SIESTA paper
          DOI: www.doi.org/10.1088/0953-8984/14/11/302
        Spin-orbit coupling (on-site approximation)
          DOI: www.doi.org/10.1088/0953-8984/19/19/489001


WARNING: alloc-realloc-dealloc name mismatch
         Name: atomlist isa
         Size:              -116. Bytes
         Node:     0
         Subsequent mismatches will not be reported
>> End of run:   1-FEB-2024  20:35:00
Job completed
