Siesta Version  : v4.1.5-1-g384057250
Architecture    : gcc
Compiler version: GNU Fortran (Ubuntu 11.3.0-1ubuntu1~22.04) 11.3.0
Compiler flags  : mpifort -O2 -fPIC -ftree-vectorize -fallow-argument-mismatch
PP flags        : -DFC_HAVE_ABORT -DMPI -DSIESTA__FLOOK -DSIESTA__METIS -DSIESTA__MUMPS -DCDF -DNCDF -DNCDF_4 -DNCDF_PARALLEL -DSIESTA__MRRR -DSIESTA__ELPA
Libraries       : libncdf.a libfdict.a  -lflookall -ldl -lnetcdff -lnetcdf -lhdf5_hl -lhdf5 -lhdf5_fortran -lz -lscalapack-openmpi -lopenblas -lmetis -lzmumps -lcmumps -ldmumps -lmumps_common -lpord -lsmumps -lesmumps -lscotch -lscotcherr -fopenmp -lelpa
PARALLEL version
NetCDF support
NetCDF-4 support
NetCDF-4 MPI-IO support
METIS ordering support
Lua support

* Running on 4 nodes in parallel
>> Start of run:  22-MAY-2023  19:46:23

                           ***********************       
                           *  WELCOME TO SIESTA  *       
                           ***********************       

reinit: Reading from standard input
reinit: Dumped input in INPUT_TMP.08186
************************** Dump of input data file ****************************
SystemLabel      GC
NumberOfAtoms    29
NumberOfSpecies  4
%block ChemicalSpeciesLabel
    1    8  O
    2    7  N
    3   14  Si
    4    1  H
%endblock ChemicalSpeciesLabel
# Single point calculation
MD.TypeOfRun                CG
MD.Steps                    0
SCF.MustConverge            F # In case it does not. There can be 2 very close atoms
AtomicCoordinatesFormat NotScaledCartesianAng
%block AtomicCoordinatesAndAtomicSpecies
0.854927710    3.902811360    0.000000000       1
-3.151486600   0.823854130    0.000000000       2
1.928518680    1.174000900    0.000000000       2
0.979899500    -1.830275890   0.000000000       2
-2.159258930   -2.028004800   0.000000000       2
3.785319770    -1.112700660   0.000000000       2
-1.345933810   0.976250250    0.000000000       3
-0.599439880   -1.096077170   0.000000000       3
0.453182890    2.350510230    0.000000000       3
2.133302030    -0.576510800   0.000000000       3
-3.516065660   -0.842056510   0.000000000       3
2.824527830    1.754723110    0.000000000       4
-4.877551690   -1.469214660   0.000000000       4
3.994952020    -2.143204000   0.000000000       4
4.620903610    -0.483666060   0.000000000       4
-2.279085180   -3.081514090   0.000000000       4
7.721809339    7.107591566    -0.000000000      3
9.590768829    8.367235196    -0.000000000      3
9.131836449    4.365853346    -0.000000000      3
11.199429169   6.872444566    -0.000000000      3
7.781339289    5.422639106    -0.000000000      2
6.091810139    7.737651796    -0.000000000      2
10.775725319   5.156943756    -0.000000000      2
9.871132529    9.837457716    -0.000000000      4
12.694840549   7.091297106    -0.000000000      4
5.847351149    8.756117746    -0.000000000      4
5.265068959    7.080803666    -0.000000000      4
9.191112209    2.783411316    -0.000000000      1
11.547380909   4.429976396    -0.000000000      4
%endblock AtomicCoordinatesAndAtomicSpecies
%include ../../../Defaults.fdf
************************** End of input data file *****************************

reinit: -----------------------------------------------------------------------
reinit: System Name: 
reinit: -----------------------------------------------------------------------
reinit: System Label: GC
reinit: -----------------------------------------------------------------------

initatom: Reading input for the pseudopotentials and atomic orbitals ----------
Species number:   1 Atomic number:    8 Label: O
Species number:   2 Atomic number:    7 Label: N
Species number:   3 Atomic number:   14 Label: Si
Species number:   4 Atomic number:    1 Label: H

Ground state valence configuration:   2s02  2p04
Reading pseudopotential information in formatted form from O.psf

Pseudopotential generated from a relativistic atomic calculation

Valence configuration for pseudopotential generation:
2s( 2.00) rc: 0.45
2p( 4.00) rc: 0.92
3d( 0.00) rc: 2.24
4f( 0.00) rc: 0.25
Ground state valence configuration:   2s02  2p03
Reading pseudopotential information in formatted form from N.psf

Pseudopotential generated from a relativistic atomic calculation

Valence configuration for pseudopotential generation:
2s( 2.00) rc: 0.94
2p( 3.00) rc: 0.59
3d( 0.00) rc: 3.46
4f( 0.00) rc: 2.47
Ground state valence configuration:   3s02  3p02
Reading pseudopotential information in formatted form from Si.psf

Pseudopotential generated from a relativistic atomic calculation

Valence configuration for pseudopotential generation:
3s( 2.00) rc: 1.67
3p( 2.00) rc: 2.04
3d( 0.00) rc: 2.89
4f( 0.00) rc: 2.49
Ground state valence configuration:   1s01
Reading pseudopotential information in formatted form from H.psf

Pseudopotential generated from a relativistic atomic calculation

Valence configuration for pseudopotential generation:
1s( 1.00) rc: 0.01
2p( 0.00) rc: 0.60
3d( 0.00) rc: 1.99
4f( 0.00) rc: 2.49
For O, standard SIESTA heuristics set lmxkb to 3
 (one more than the basis l, including polarization orbitals).
Use PS.lmax or PS.KBprojectors blocks to override.
For N, standard SIESTA heuristics set lmxkb to 3
 (one more than the basis l, including polarization orbitals).
Use PS.lmax or PS.KBprojectors blocks to override.
For Si, standard SIESTA heuristics set lmxkb to 3
 (one more than the basis l, including polarization orbitals).
Use PS.lmax or PS.KBprojectors blocks to override.
For H, standard SIESTA heuristics set lmxkb to 2
 (one more than the basis l, including polarization orbitals).
Use PS.lmax or PS.KBprojectors blocks to override.

<basis_specs>
===============================================================================
O                    Z=   8    Mass=  16.000        Charge= 0.17977+309
Lmxo=1 Lmxkb= 3    BasisType=split      Semic=F
L=0  Nsemic=0  Cnfigmx=2
          i=1  nzeta=2  polorb=0  (2s)
            splnorm:   0.28000    
               vcte:    0.0000    
               rinn:    0.0000    
               qcoe:    0.0000    
               qyuk:    0.0000    
               qwid:   0.10000E-01
                rcs:    0.0000      0.0000    
            lambdas:    1.0000      1.0000    
L=1  Nsemic=0  Cnfigmx=2
          i=1  nzeta=2  polorb=1  (2p)
            splnorm:   0.28000    
               vcte:    0.0000    
               rinn:    0.0000    
               qcoe:    0.0000    
               qyuk:    0.0000    
               qwid:   0.10000E-01
                rcs:    0.0000      0.0000    
            lambdas:    1.0000      1.0000    
-------------------------------------------------------------------------------
L=0  Nkbl=1  erefs: 0.17977+309
L=1  Nkbl=1  erefs: 0.17977+309
L=2  Nkbl=1  erefs: 0.17977+309
L=3  Nkbl=1  erefs: 0.17977+309
===============================================================================
</basis_specs>

atom: Called for O                     (Z =   8)

read_vps: Pseudopotential generation method:
read_vps: ATM4.2.7  Troullier-Martins                       
Valence charge for ps generation:    6.00000

xc_check: Exchange-correlation functional:
xc_check: GGA Perdew, Burke & Ernzerhof 1996
V l=0 = -2*Zval/r beyond r=  1.1000
V l=1 = -2*Zval/r beyond r=  1.1000
V l=2 = -2*Zval/r beyond r=  2.2154
V l=3 = -2*Zval/r beyond r=  1.1000
All V_l potentials equal beyond r=  2.2154
This should be close to max(r_c) in ps generation
All pots = -2*Zval/r beyond r=  2.2154

VLOCAL1: 99.0% of the norm of Vloc inside      8.845 Ry
VLOCAL1: 99.9% of the norm of Vloc inside     20.157 Ry
atom: Maximum radius for 4*pi*r*r*local-pseudopot. charge    2.67231
atom: Maximum radius for r*vlocal+2*Zval:    2.32897
GHOST: No ghost state for L =  0
GHOST: No ghost state for L =  1
GHOST: No ghost state for L =  2
GHOST: No ghost state for L =  3

KBgen: Kleinman-Bylander projectors: 
   l= 0   rc=  2.243238   el= -1.759686   Ekb=**********   kbcos= -0.171774
   l= 1   rc=  2.328968   el= -0.663873   Ekb=-14.506792   kbcos= -0.519897
   l= 2   rc=  2.573941   el=  0.002031   Ekb= -1.137373   kbcos= -0.019581
   l= 3   rc=  2.606321   el=  0.003153   Ekb= -1.013546   kbcos= -0.003122

KBgen: Total number of Kleinman-Bylander projectors:   16
atom: -------------------------------------------------------------------------

atom: SANKEY-TYPE ORBITALS:
atom: Selected multiple-zeta basis: split     

SPLIT: Orbitals with angular momentum L= 0

SPLIT: Basis orbitals for state 2s

SPLIT: PAO cut-off radius determined from an
SPLIT: energy shift=  0.002000 Ry

   izeta = 1
                 lambda =    1.000000
                     rc =    4.243912
                 energy =   -1.758270
                kinetic =    3.286084
    potential(screened) =   -5.044353
       potential(ionic) =  -12.921184

   izeta = 2
                 rmatch =    2.187845
              splitnorm =    0.280000
                 energy =   -0.885018
                kinetic =    8.134434
    potential(screened) =   -9.019452
       potential(ionic) =  -17.710645

SPLIT: Orbitals with angular momentum L= 1

SPLIT: Basis orbitals for state 2p

SPLIT: PAO cut-off radius determined from an
SPLIT: energy shift=  0.002000 Ry

   izeta = 1
                 lambda =    1.000000
                     rc =    5.314825
                 energy =   -0.661986
                kinetic =    4.917472
    potential(screened) =   -5.579458
       potential(ionic) =  -13.236259

   izeta = 2
                 rmatch =    2.160663
              splitnorm =    0.280000
                 energy =   -0.068760
                kinetic =    9.183374
    potential(screened) =   -9.252135
       potential(ionic) =  -18.274251

POLgen: Perturbative polarization orbital with L=  2

POLgen: Polarization orbital for state 2p

   izeta = 1
                     rc =    5.314825
                 energy =    1.970580
                kinetic =    3.886128
    potential(screened) =   -1.915547
       potential(ionic) =   -7.749584
atom: Total number of Sankey-type orbitals: 13

atm_pop: Valence configuration (for local Pseudopot. screening):
 2s( 2.00)                                                            
 2p( 4.00)                                                            
Vna: chval, zval:    6.00000   6.00000

Vna:  Cut-off radius for the neutral-atom potential:   5.314825

atom: _________________________________________________________________________

<basis_specs>
===============================================================================
N                    Z=   7    Mass=  14.010        Charge= 0.17977+309
Lmxo=1 Lmxkb= 3    BasisType=split      Semic=F
L=0  Nsemic=0  Cnfigmx=2
          i=1  nzeta=2  polorb=0  (2s)
            splnorm:   0.28000    
               vcte:    0.0000    
               rinn:    0.0000    
               qcoe:    0.0000    
               qyuk:    0.0000    
               qwid:   0.10000E-01
                rcs:    0.0000      0.0000    
            lambdas:    1.0000      1.0000    
L=1  Nsemic=0  Cnfigmx=2
          i=1  nzeta=2  polorb=1  (2p)
            splnorm:   0.28000    
               vcte:    0.0000    
               rinn:    0.0000    
               qcoe:    0.0000    
               qyuk:    0.0000    
               qwid:   0.10000E-01
                rcs:    0.0000      0.0000    
            lambdas:    1.0000      1.0000    
-------------------------------------------------------------------------------
L=0  Nkbl=1  erefs: 0.17977+309
L=1  Nkbl=1  erefs: 0.17977+309
L=2  Nkbl=1  erefs: 0.17977+309
L=3  Nkbl=1  erefs: 0.17977+309
===============================================================================
</basis_specs>

atom: Called for N                     (Z =   7)

read_vps: Pseudopotential generation method:
read_vps: ATM4.2.7  Troullier-Martins                       
Valence charge for ps generation:    5.00000

xc_check: Exchange-correlation functional:
xc_check: GGA Perdew, Burke & Ernzerhof 1996
V l=0 = -2*Zval/r beyond r=  1.2889
V l=1 = -2*Zval/r beyond r=  1.2889
V l=2 = -2*Zval/r beyond r=  3.4178
V l=3 = -2*Zval/r beyond r=  2.4084
All V_l potentials equal beyond r=  3.3753
This should be close to max(r_c) in ps generation
All pots = -2*Zval/r beyond r=  3.4178

VLOCAL1: 99.0% of the norm of Vloc inside      3.810 Ry
VLOCAL1: 99.9% of the norm of Vloc inside      8.683 Ry
atom: Maximum radius for 4*pi*r*r*local-pseudopot. charge    4.02088
atom: Maximum radius for r*vlocal+2*Zval:    3.54838
GHOST: No ghost state for L =  0
GHOST: No ghost state for L =  1
GHOST: No ghost state for L =  2
GHOST: No ghost state for L =  3

KBgen: Kleinman-Bylander projectors: 
   l= 0   rc=  3.417763   el= -1.365098   Ekb= -4.433130   kbcos= -0.707855
   l= 1   rc=  3.375302   el= -0.521201   Ekb=-13.264039   kbcos= -0.535594
   l= 2   rc=  3.872880   el=  0.001991   Ekb= -0.641094   kbcos= -0.062456
   l= 3   rc=  3.970931   el=  0.003093   Ekb= -0.474517   kbcos= -0.018236

KBgen: Total number of Kleinman-Bylander projectors:   16
atom: -------------------------------------------------------------------------

atom: SANKEY-TYPE ORBITALS:
atom: Selected multiple-zeta basis: split     

SPLIT: Orbitals with angular momentum L= 0

SPLIT: Basis orbitals for state 2s

SPLIT: PAO cut-off radius determined from an
SPLIT: energy shift=  0.002000 Ry

   izeta = 1
                 lambda =    1.000000
                     rc =    4.730425
                 energy =   -1.363399
                kinetic =    1.245246
    potential(screened) =   -2.608645
       potential(ionic) =   -8.121105

   izeta = 2
                 rmatch =    2.531849
              splitnorm =    0.280000
                 energy =   -0.959908
                kinetic =    2.409435
    potential(screened) =   -3.369343
       potential(ionic) =   -9.427975

SPLIT: Orbitals with angular momentum L= 1

SPLIT: Basis orbitals for state 2p

SPLIT: PAO cut-off radius determined from an
SPLIT: energy shift=  0.002000 Ry

   izeta = 1
                 lambda =    1.000000
                     rc =    5.924108
                 energy =   -0.519262
                kinetic =    3.672940
    potential(screened) =   -4.192202
       potential(ionic) =   -9.518354

   izeta = 2
                 rmatch =    2.531849
              splitnorm =    0.280000
                 energy =   -0.104258
                kinetic =    6.807538
    potential(screened) =   -6.911796
       potential(ionic) =  -13.149920

POLgen: Perturbative polarization orbital with L=  2

POLgen: Polarization orbital for state 2p

   izeta = 1
                     rc =    5.924108
                 energy =    1.427508
                kinetic =    2.872379
    potential(screened) =   -1.444871
       potential(ionic) =   -5.563644
atom: Total number of Sankey-type orbitals: 13

atm_pop: Valence configuration (for local Pseudopot. screening):
 2s( 2.00)                                                            
 2p( 3.00)                                                            
Vna: chval, zval:    5.00000   5.00000

Vna:  Cut-off radius for the neutral-atom potential:   5.924108

atom: _________________________________________________________________________

<basis_specs>
===============================================================================
Si                   Z=  14    Mass=  28.090        Charge= 0.17977+309
Lmxo=1 Lmxkb= 3    BasisType=split      Semic=F
L=0  Nsemic=0  Cnfigmx=3
          i=1  nzeta=2  polorb=0  (3s)
            splnorm:   0.28000    
               vcte:    0.0000    
               rinn:    0.0000    
               qcoe:    0.0000    
               qyuk:    0.0000    
               qwid:   0.10000E-01
                rcs:    0.0000      0.0000    
            lambdas:    1.0000      1.0000    
L=1  Nsemic=0  Cnfigmx=3
          i=1  nzeta=2  polorb=1  (3p)
            splnorm:   0.28000    
               vcte:    0.0000    
               rinn:    0.0000    
               qcoe:    0.0000    
               qyuk:    0.0000    
               qwid:   0.10000E-01
                rcs:    0.0000      0.0000    
            lambdas:    1.0000      1.0000    
-------------------------------------------------------------------------------
L=0  Nkbl=1  erefs: 0.17977+309
L=1  Nkbl=1  erefs: 0.17977+309
L=2  Nkbl=1  erefs: 0.17977+309
L=3  Nkbl=1  erefs: 0.17977+309
===============================================================================
</basis_specs>

atom: Called for Si                    (Z =  14)

read_vps: Pseudopotential generation method:
read_vps: ATM4.2.7  Troullier-Martins                       
Valence charge for ps generation:    4.00000

xc_check: Exchange-correlation functional:
xc_check: GGA Perdew, Burke & Ernzerhof 1996
V l=0 = -2*Zval/r beyond r=  2.7826
V l=1 = -2*Zval/r beyond r=  2.7826
V l=2 = -2*Zval/r beyond r=  2.9253
V l=3 = -2*Zval/r beyond r=  2.7826
All V_l potentials equal beyond r=  2.8530
This should be close to max(r_c) in ps generation
All pots = -2*Zval/r beyond r=  2.9253

VLOCAL1: 99.0% of the norm of Vloc inside      5.333 Ry
VLOCAL1: 99.9% of the norm of Vloc inside     12.154 Ry
atom: Maximum radius for 4*pi*r*r*local-pseudopot. charge    3.39869
atom: Maximum radius for r*vlocal+2*Zval:    2.96205
GHOST: No ghost state for L =  0
GHOST: No ghost state for L =  1
GHOST: No ghost state for L =  2
GHOST: No ghost state for L =  3

KBgen: Kleinman-Bylander projectors: 
   l= 0   rc=  3.075247   el= -0.794092   Ekb=  5.879390   kbcos=  0.167461
   l= 1   rc=  3.153101   el= -0.300068   Ekb=  2.642817   kbcos=  0.058301
   l= 2   rc=  3.273594   el=  0.001958   Ekb= -1.185135   kbcos= -0.104411
   l= 3   rc=  3.232927   el=  0.003046   Ekb= -0.497174   kbcos= -0.015889

KBgen: Total number of Kleinman-Bylander projectors:   16
atom: -------------------------------------------------------------------------

atom: SANKEY-TYPE ORBITALS:
atom: Selected multiple-zeta basis: split     

SPLIT: Orbitals with angular momentum L= 0

SPLIT: Basis orbitals for state 3s

SPLIT: PAO cut-off radius determined from an
SPLIT: energy shift=  0.002000 Ry

   izeta = 1
                 lambda =    1.000000
                     rc =    6.429618
                 energy =   -0.792283
                kinetic =    0.525293
    potential(screened) =   -1.317576
       potential(ionic) =   -3.744923

   izeta = 2
                 rmatch =    3.998416
              splitnorm =    0.280000
                 energy =   -0.583081
                kinetic =    1.069570
    potential(screened) =   -1.652651
       potential(ionic) =   -4.235185

SPLIT: Orbitals with angular momentum L= 1

SPLIT: Basis orbitals for state 3p

SPLIT: PAO cut-off radius determined from an
SPLIT: energy shift=  0.002000 Ry

   izeta = 1
                 lambda =    1.000000
                     rc =    8.464845
                 energy =   -0.298236
                kinetic =    0.785360
    potential(screened) =   -1.083596
       potential(ionic) =   -3.273779

   izeta = 2
                 rmatch =    4.587816
              splitnorm =    0.280000
                 energy =   -0.131871
                kinetic =    1.403687
    potential(screened) =   -1.535557
       potential(ionic) =   -4.015310

POLgen: Perturbative polarization orbital with L=  2

POLgen: Polarization orbital for state 3p

   izeta = 1
                     rc =    8.464845
                 energy =    0.321949
                kinetic =    1.055677
    potential(screened) =   -0.733728
       potential(ionic) =   -2.672950
atom: Total number of Sankey-type orbitals: 13

atm_pop: Valence configuration (for local Pseudopot. screening):
 3s( 2.00)                                                            
 3p( 2.00)                                                            
Vna: chval, zval:    4.00000   4.00000

Vna:  Cut-off radius for the neutral-atom potential:   8.464845

atom: _________________________________________________________________________

<basis_specs>
===============================================================================
H                    Z=   1    Mass=  1.0100        Charge= 0.17977+309
Lmxo=0 Lmxkb= 2    BasisType=split      Semic=F
L=0  Nsemic=0  Cnfigmx=1
          i=1  nzeta=2  polorb=1  (1s)
            splnorm:   0.62000    
               vcte:    0.0000    
               rinn:    0.0000    
               qcoe:    0.0000    
               qyuk:    0.0000    
               qwid:   0.10000E-01
                rcs:    0.0000      0.0000    
            lambdas:    1.0000      1.0000    
-------------------------------------------------------------------------------
L=0  Nkbl=1  erefs: 0.17977+309
L=1  Nkbl=1  erefs: 0.17977+309
L=2  Nkbl=1  erefs: 0.17977+309
===============================================================================
</basis_specs>

atom: Called for H                     (Z =   1)

read_vps: Pseudopotential generation method:
read_vps: ATM4.2.7  Troullier-Martins                       
Valence charge for ps generation:    1.00000

xc_check: Exchange-correlation functional:
xc_check: GGA Perdew, Burke & Ernzerhof 1996
V l=0 = -2*Zval/r beyond r=  0.0098
V l=1 = -2*Zval/r beyond r=  0.5817
V l=2 = -2*Zval/r beyond r=  1.9372
All V_l potentials equal beyond r=  1.9372
This should be close to max(r_c) in ps generation
All pots = -2*Zval/r beyond r=  1.9372

VLOCAL1: 99.0% of the norm of Vloc inside     11.567 Ry
VLOCAL1: 99.9% of the norm of Vloc inside     26.362 Ry
atom: Maximum radius for 4*pi*r*r*local-pseudopot. charge    2.25106
atom: Maximum radius for r*vlocal+2*Zval:    1.91306
GHOST: No ghost state for L =  0
GHOST: No ghost state for L =  1
GHOST: No ghost state for L =  2

KBgen: Kleinman-Bylander projectors: 
   l= 0   rc=  2.036604   el= -0.477180   Ekb= -6.081590   kbcos= -0.277285
   l= 1   rc=  2.195416   el=  0.001076   Ekb= -0.926943   kbcos= -0.034643
   l= 2   rc=  2.251056   el=  0.002010   Ekb= -0.130941   kbcos= -0.009788

KBgen: Total number of Kleinman-Bylander projectors:    9
atom: -------------------------------------------------------------------------

atom: SANKEY-TYPE ORBITALS:
atom: Selected multiple-zeta basis: split     

SPLIT: Orbitals with angular momentum L= 0

SPLIT: Basis orbitals for state 1s

SPLIT: PAO cut-off radius determined from an
SPLIT: energy shift=  0.002000 Ry

   izeta = 1
                 lambda =    1.000000
                     rc =    6.518340
                 energy =   -0.475305
                kinetic =    0.912139
    potential(screened) =   -1.387444
       potential(ionic) =   -1.907295

   izeta = 2
                 rmatch =    2.141150
              splitnorm =    0.620000
                 energy =    0.566467
                kinetic =    3.772856
    potential(screened) =   -3.206389
       potential(ionic) =   -3.759093

POLgen: Perturbative polarization orbital with L=  1

POLgen: Polarization orbital for state 1s

   izeta = 1
                     rc =    6.518340
                 energy =    0.533861
                kinetic =    1.121086
    potential(screened) =   -0.587225
       potential(ionic) =   -1.053027
atom: Total number of Sankey-type orbitals:  5

atm_pop: Valence configuration (for local Pseudopot. screening):
 1s( 1.00)                                                            
Vna: chval, zval:    1.00000   1.00000

Vna:  Cut-off radius for the neutral-atom potential:   6.518340

atom: _________________________________________________________________________

prinput: Basis input ----------------------------------------------------------

PAO.BasisType split     

%block ChemicalSpeciesLabel
    1    8 O                       # Species index, atomic number, species label
    2    7 N                       # Species index, atomic number, species label
    3   14 Si                      # Species index, atomic number, species label
    4    1 H                       # Species index, atomic number, species label
%endblock ChemicalSpeciesLabel

%block PAO.Basis                 # Define Basis set
O                     2                    # Species label, number of l-shells
 n=2   0   2                         # n, l, Nzeta 
   4.244      2.188   
   1.000      1.000   
 n=2   1   2 P   1                   # n, l, Nzeta, Polarization, NzetaPol
   5.315      2.161   
   1.000      1.000   
N                     2                    # Species label, number of l-shells
 n=2   0   2                         # n, l, Nzeta 
   4.730      2.532   
   1.000      1.000   
 n=2   1   2 P   1                   # n, l, Nzeta, Polarization, NzetaPol
   5.924      2.532   
   1.000      1.000   
Si                    2                    # Species label, number of l-shells
 n=3   0   2                         # n, l, Nzeta 
   6.430      3.998   
   1.000      1.000   
 n=3   1   2 P   1                   # n, l, Nzeta, Polarization, NzetaPol
   8.465      4.588   
   1.000      1.000   
H                     1                    # Species label, number of l-shells
 n=1   0   2 P   1                   # n, l, Nzeta, Polarization, NzetaPol
   6.518      2.141   
   1.000      1.000   
%endblock PAO.Basis

prinput: ----------------------------------------------------------------------

Dumping basis to NetCDF file O.ion.nc
Dumping basis to NetCDF file N.ion.nc
Dumping basis to NetCDF file Si.ion.nc
Dumping basis to NetCDF file H.ion.nc
coor:   Atomic-coordinates input format  =     Cartesian coordinates
coor:                                          (in Angstroms)

siesta: Atomic coordinates (Bohr) and species
siesta:      1.61558   7.37525   0.00000  1        1
siesta:     -5.95545   1.55686   0.00000  2        2
siesta:      3.64437   2.21854   0.00000  2        3
siesta:      1.85174  -3.45872   0.00000  2        4
siesta:     -4.08041  -3.83238   0.00000  2        5
siesta:      7.15322  -2.10270   0.00000  2        6
siesta:     -2.54345   1.84485   0.00000  3        7
siesta:     -1.13278  -2.07129   0.00000  3        8
siesta:      0.85639   4.44182   0.00000  3        9
siesta:      4.03136  -1.08945   0.00000  3       10
siesta:     -6.64440  -1.59126   0.00000  3       11
siesta:      5.33759   3.31595   0.00000  4       12
siesta:     -9.21724  -2.77641   0.00000  4       13
siesta:      7.54937  -4.05007   0.00000  4       14
siesta:      8.73225  -0.91400   0.00000  4       15
siesta:     -4.30685  -5.82322   0.00000  4       16
siesta:     14.59211  13.43141  -0.00000  3       17
siesta:     18.12393  15.81179  -0.00000  3       18
siesta:     17.25668   8.25027  -0.00000  3       19
siesta:     21.16386  12.98704  -0.00000  3       20
siesta:     14.70461  10.24731  -0.00000  2       21
siesta:     11.51186  14.62205  -0.00000  2       22
siesta:     20.36318   9.74522  -0.00000  2       23
siesta:     18.65374  18.59011  -0.00000  4       24
siesta:     23.98978  13.40061  -0.00000  4       25
siesta:     11.04990  16.54667  -0.00000  4       26
siesta:      9.94954  13.38079  -0.00000  4       27
siesta:     17.36869   5.25989  -0.00000  1       28
siesta:     21.82140   8.37145  -0.00000  4       29

siesta: Automatic unit cell vectors (Ang):
siesta:   26.918214    0.000000    0.000000
siesta:    0.000000   21.799452    0.000000
siesta:    0.000000    0.000000    9.854683

siesta: System type = molecule  

initatomlists: Number of atoms, orbitals, and projectors:     29   297   394

siesta: ******************** Simulation parameters ****************************
siesta:
siesta: The following are some of the parameters of the simulation.
siesta: A complete list of the parameters used, including default values,
siesta: can be found in file out.fdf
siesta:
redata: Spin configuration                          = spin-orbit
redata: Number of spin components                   = 8
redata: Time-Reversal Symmetry                      = F
redata: Spin spiral                                 = F
############################################################
This spin-orbit implementation uses a local approximation.
From 4.2 and onwards the full non-local approximation is implemented
You are strongly advised to use >=4.2 versions!
############################################################
redata: Long output                                 =   F
redata: Number of Atomic Species                    =        4
redata: Charge density info will appear in .RHO file
redata: Write Mulliken Pop.                         = Atomic and Orbital charges
redata: Matel table size (NRTAB)                    =     1024
redata: Mesh Cutoff                                 =   340.0000 Ry
redata: Net charge of the system                    =     0.0000 |e|
redata: Min. number of SCF Iter                     =        1
redata: Max. number of SCF Iter                     =      200
redata: SCF mix quantity                            = Hamiltonian
redata: Mix DM or H after convergence               =   F
redata: Recompute H after scf cycle                 =   F
redata: Mix DM in first SCF step                    =   T
redata: Write Pulay info on disk                    =   F
redata: New DM Occupancy tolerance                  = 0.000000000001
redata: No kicks to SCF
redata: DM Mixing Weight for Kicks                  =     0.5000
redata: Require Harris convergence for SCF          =   F
redata: Harris energy tolerance for SCF             =     0.000100 eV
redata: Require DM convergence for SCF              =   T
redata: DM tolerance for SCF                        =     0.000008
redata: Require EDM convergence for SCF             =   F
redata: EDM tolerance for SCF                       =     0.001000 eV
redata: Require H convergence for SCF               =   T
redata: Hamiltonian tolerance for SCF               =     0.000001 eV
redata: Require (free) Energy convergence for SCF   =   F
redata: (free) Energy tolerance for SCF             =     0.000100 eV
redata: Using Saved Data (generic)                  =   F
redata: Use continuation files for DM               =   F
redata: Neglect nonoverlap interactions             =   F
redata: Method of Calculation                       = Diagonalization
redata: Electronic Temperature                      =   299.9978 K
redata: Fix the spin of the system                  =   F
redata: Dynamics option                             = Single-point calculation
mix.SCF: Pulay mixing                            = Pulay
mix.SCF:    Variant                              = stable
mix.SCF:    History steps                        = 6
mix.SCF:    Linear mixing weight                 =     0.250000
mix.SCF:    Mixing weight                        =     0.250000
mix.SCF:    SVD condition                        = 0.1000E-07
mix.SCF:    Restart steps                        = 24
mix.SCF:    Restart save steps                   = 3
mix.SCF: Spin-component mixing                   all
redata: Save all siesta data in one NC              =   F
redata: ***********************************************************************

%block SCF.Mixers
  Pulay
%endblock SCF.Mixers

%block SCF.Mixer.Pulay
  # Mixing method
  method pulay
  variant stable

  # Mixing options
  weight 0.2500
  weight.linear 0.2500
  history 6
  restart 24
  restart.save 3
%endblock SCF.Mixer.Pulay

DM_history_depth set to one: no extrapolation allowed by default for geometry relaxation
Size of DM history Fstack: 1
Total number of electrons:    98.000000
Total ionic charge:    98.000000

* ProcessorY, Blocksize:    2  24


* Orbital distribution balance (max,min):    81    72


Time-reversal symmetry not used.

siesta: k-grid: Number of k-points =     1
siesta: k-grid: Cutoff (effective) =     4.927 Ang
siesta: k-grid: Supercell and displacements
siesta: k-grid:    1   0   0      0.000
siesta: k-grid:    0   1   0      0.000
siesta: k-grid:    0   0   1      0.000

diag: Algorithm                                     = ELPA-1stage
diag: Parallel over k                               =   F
diag: Use parallel 2D distribution                  =   T
diag: Parallel block-size                           = 24
diag: Parallel distribution                         =     2 x     2
diag: Used triangular part                          = Lower
diag: Absolute tolerance                            =  0.100E-15
diag: Orthogonalization factor                      =  0.100E-05
diag: Memory factor                                 =  1.0000


ts: **************************************************************
ts: Save H and S matrices                           =    F
ts: Save DM and EDM matrices                        =    F
ts: Only save the overlap matrix S                  =    F
ts: **************************************************************

************************ Begin: TS CHECKS AND WARNINGS ************************
************************ End: TS CHECKS AND WARNINGS **************************


                     ====================================
                        Single-point calculation
                     ====================================

outcoor: Atomic coordinates (Ang):                          
    0.85492771    3.90281136    0.00000000   1       1  O
   -3.15148660    0.82385413    0.00000000   2       2  N
    1.92851868    1.17400090    0.00000000   2       3  N
    0.97989950   -1.83027589    0.00000000   2       4  N
   -2.15925893   -2.02800480    0.00000000   2       5  N
    3.78531977   -1.11270066    0.00000000   2       6  N
   -1.34593381    0.97625025    0.00000000   3       7  Si
   -0.59943988   -1.09607717    0.00000000   3       8  Si
    0.45318289    2.35051023    0.00000000   3       9  Si
    2.13330203   -0.57651080    0.00000000   3      10  Si
   -3.51606566   -0.84205651    0.00000000   3      11  Si
    2.82452783    1.75472311    0.00000000   4      12  H
   -4.87755169   -1.46921466    0.00000000   4      13  H
    3.99495202   -2.14320400    0.00000000   4      14  H
    4.62090361   -0.48366606    0.00000000   4      15  H
   -2.27908518   -3.08151409    0.00000000   4      16  H
    7.72180934    7.10759157    0.00000000   3      17  Si
    9.59076883    8.36723520    0.00000000   3      18  Si
    9.13183645    4.36585335    0.00000000   3      19  Si
   11.19942917    6.87244457    0.00000000   3      20  Si
    7.78133929    5.42263911    0.00000000   2      21  N
    6.09181014    7.73765180    0.00000000   2      22  N
   10.77572532    5.15694376    0.00000000   2      23  N
    9.87113253    9.83745772    0.00000000   4      24  H
   12.69484055    7.09129711    0.00000000   4      25  H
    5.84735115    8.75611775    0.00000000   4      26  H
    5.26506896    7.08080367    0.00000000   4      27  H
    9.19111221    2.78341132    0.00000000   1      28  O
   11.54738091    4.42997640    0.00000000   4      29  H

outcell: Unit cell vectors (Ang):
       26.918214    0.000000    0.000000
        0.000000   21.799452    0.000000
        0.000000    0.000000    9.854683

outcell: Cell vector modules (Ang)   :   26.918214   21.799452    9.854683
outcell: Cell angles (23,13,12) (deg):     90.0000     90.0000     90.0000
outcell: Cell volume (Ang**3)        :   5782.7510
<dSpData1D:S at geom step 0
  <sparsity:sparsity for geom step 0
    nrows_g=297 nrows=81 sparsity=.1409 nnzs=12429, refcount: 8>
  <dData1D:(new from dSpData1D) n=12429, refcount: 1>
refcount: 1>
new_DM -- step:     1
Initializing Density Matrix...
DM filled with atomic data:
<dSpData2D:DM initialized from atoms
  <sparsity:sparsity for geom step 0
    nrows_g=297 nrows=81 sparsity=.1409 nnzs=12429, refcount: 9>
  <dData2D:DM n=12429 m=8, refcount: 1>
refcount: 1>
     spin moment: S , {S} =   56.00000   0.00000   0.00000  56.00000
No. of atoms with KB's overlaping orbs in proc 0. Max # of overlaps:      29     142

Initializing spin-orbit part of the Hamiltonian
  Adding spin-orbit effects for O 
  Adding spin-orbit effects for N 
  Adding spin-orbit effects for Si
  Adding spin-orbit effects for H 


New grid distribution:   1
           1       1:  150    1:   63    1:   30
           2       1:  150    1:   63   31:   60
           3       1:  150   64:  125    1:   30
           4       1:  150   64:  125   31:   60

InitMesh: MESH =   300 x   250 x   120 =     9000000
InitMesh: (bp) =   150 x   125 x    60 =     1125000
InitMesh: Mesh cutoff (required, used) =   340.000   343.283 Ry
ExtMesh (bp) on 0 =   250 x   167 x   142 =     5928500
New grid distribution:   2
           1      52:  150    1:   38    1:   60
           2       1:   51    1:   38    1:   60
           3      52:  150   39:  125    1:   60
           4       1:   51   39:  125    1:   60
New grid distribution:   3
           1      54:  150    1:   42    1:   60
           2       1:   53    1:   41    1:   60
           3      54:  150   43:  125    1:   60
           4       1:   53   42:  125    1:   60
Setting up quadratic distribution...
ExtMesh (bp) on 0 =   199 x   142 x   172 =     4860376
PhiOnMesh: Number of (b)points on node 0 =               225720
PhiOnMesh: nlist on node 0 =              2479184

stepf: Fermi-Dirac step function

siesta: Program's energy decomposition (eV):
siesta: Ebs     =      -623.269276
siesta: Eions   =      3585.165840
siesta: Ena     =       384.948850
siesta: Ekin    =      3376.692067
siesta: Enl     =     -3308.419206
siesta: Eso     =        -0.003378
siesta: Edftu   =         0.000000
siesta: DEna    =       154.796781
siesta: DUscf   =        82.414617
siesta: DUext   =         0.000000
siesta: Exc     =     -1205.410411
siesta: eta*DQ  =         0.000000
siesta: Emadel  =         0.000000
siesta: Emeta   =         0.000000
siesta: Emolmec =         0.000000
siesta: Ekinion =         0.000000
siesta: Eharris =     -4019.815973
siesta: Etot    =     -4100.146519
siesta: FreeEng =     -4100.148034

        iscf     Eharris(eV)        E_KS(eV)     FreeEng(eV)     dDmax    Ef(eV) dHmax(eV)
   scf:    1    -4019.815973    -4100.146519    -4100.148034  0.965096 -4.888998 21.626855
     spin moment: S , {S} =    2.00783   0.00000   0.00000   2.00783
timer: Routine,Calls,Time,% = IterSCF        1      12.585  17.66
   scf:    2    -4147.790978    -4136.087718    -4136.092733  0.455066 -4.241451 11.827449
     spin moment: S , {S} =    1.96135   0.00000   0.00000   1.96135
   scf:    3    -4102.368331    -4131.942539    -4131.972556  0.428228 -4.364530 12.558717
     spin moment: S , {S} =    2.36183  -0.00000   0.00000   2.36183
   scf:    4    -4150.170368    -4145.025684    -4145.025685  0.313261 -3.942586  5.906963
     spin moment: S , {S} =    0.00010  -0.00000  -0.00000   0.00010
   scf:    5    -4146.392018    -4145.826473    -4145.826473  0.040082 -3.730353  4.177607
     spin moment: S , {S} =    0.00006  -0.00000  -0.00000   0.00006
   scf:    6    -4146.560561    -4146.199384    -4146.199384  0.023536 -3.590992  2.228045
     spin moment: S , {S} =    0.00003  -0.00000   0.00000   0.00003
   scf:    7    -4146.580205    -4146.387120    -4146.387120  0.023263 -3.777849  0.873902
     spin moment: S , {S} =    0.00001   0.00000  -0.00000   0.00001
   scf:    8    -4146.498320    -4146.441191    -4146.441191  0.012128 -3.707284  0.521290
     spin moment: S , {S} =    0.00000  -0.00000   0.00000   0.00000
   scf:    9    -4146.484062    -4146.461842    -4146.461842  0.007329 -3.677036  0.381098
     spin moment: S , {S} =    0.00000  -0.00000   0.00000   0.00000
   scf:   10    -4146.514844    -4146.481532    -4146.481532  0.022106 -3.809746  0.249840
     spin moment: S , {S} =    0.00000   0.00000  -0.00000  -0.00000
   scf:   11    -4146.485098    -4146.483283    -4146.483283  0.006089 -3.805440  0.073173
     spin moment: S , {S} =    0.00000  -0.00000  -0.00000  -0.00000
   scf:   12    -4146.484752    -4146.484034    -4146.484034  0.001201 -3.802076  0.029537
     spin moment: S , {S} =    0.00000  -0.00000   0.00000  -0.00000
   scf:   13    -4146.484544    -4146.484286    -4146.484286  0.001250 -3.799504  0.019535
     spin moment: S , {S} =    0.00000  -0.00000   0.00000  -0.00000
   scf:   14    -4146.484575    -4146.484423    -4146.484423  0.000922 -3.797602  0.011282
     spin moment: S , {S} =    0.00000  -0.00000   0.00000  -0.00000
   scf:   15    -4146.484540    -4146.484478    -4146.484478  0.000856 -3.797513  0.008008
     spin moment: S , {S} =    0.00000  -0.00000   0.00000  -0.00000
   scf:   16    -4146.484545    -4146.484508    -4146.484508  0.000784 -3.797523  0.005847
     spin moment: S , {S} =    0.00000  -0.00000   0.00000   0.00000
   scf:   17    -4146.484530    -4146.484518    -4146.484518  0.000464 -3.797520  0.004291
     spin moment: S , {S} =    0.00000  -0.00000   0.00000   0.00000
   scf:   18    -4146.484527    -4146.484522    -4146.484522  0.000308 -3.797483  0.002840
     spin moment: S , {S} =    0.00000  -0.00000   0.00000   0.00000
   scf:   19    -4146.484527    -4146.484524    -4146.484524  0.000241 -3.797433  0.001915
     spin moment: S , {S} =    0.00000   0.00000   0.00000   0.00000
   scf:   20    -4146.484526    -4146.484525    -4146.484525  0.000139 -3.797467  0.001309
     spin moment: S , {S} =    0.00000   0.00000   0.00000   0.00000
   scf:   21    -4146.484527    -4146.484526    -4146.484526  0.000175 -3.797514  0.000726
     spin moment: S , {S} =    0.00000  -0.00000   0.00000   0.00000
   scf:   22    -4146.484527    -4146.484526    -4146.484526  0.000122 -3.797563  0.000237
     spin moment: S , {S} =    0.00000  -0.00000   0.00000   0.00000
   scf:   23    -4146.484526    -4146.484526    -4146.484526  0.000039 -3.797569  0.000180
     spin moment: S , {S} =    0.00000  -0.00000   0.00000   0.00000
   scf:   24    -4146.484526    -4146.484526    -4146.484526  0.000016 -3.797561  0.000107
     spin moment: S , {S} =    0.00000  -0.00000   0.00000   0.00000
mix: Pulay -- resetting history
   scf:   25    -4146.484526    -4146.484526    -4146.484526  0.000008 -3.797548  0.000055
     spin moment: S , {S} =    0.00000   0.00000   0.00000   0.00000
   scf:   26    -4146.484526    -4146.484526    -4146.484526  0.000004 -3.797538  0.000033
     spin moment: S , {S} =    0.00000   0.00000   0.00000   0.00000
   scf:   27    -4146.484526    -4146.484526    -4146.484526  0.000002 -3.797537  0.000022
     spin moment: S , {S} =    0.00000   0.00000   0.00000   0.00000
   scf:   28    -4146.484526    -4146.484526    -4146.484526  0.000002 -3.797536  0.000011
     spin moment: S , {S} =    0.00000  -0.00000   0.00000   0.00000
   scf:   29    -4146.484526    -4146.484526    -4146.484526  0.000001 -3.797535  0.000007
     spin moment: S , {S} =    0.00000  -0.00000   0.00000   0.00000
   scf:   30    -4146.484526    -4146.484526    -4146.484526  0.000001 -3.797535  0.000004
     spin moment: S , {S} =    0.00000  -0.00000   0.00000   0.00000
   scf:   31    -4146.484526    -4146.484526    -4146.484526  0.000000 -3.797534  0.000002
     spin moment: S , {S} =    0.00000  -0.00000   0.00000   0.00000
   scf:   32    -4146.484526    -4146.484526    -4146.484526  0.000000 -3.797534  0.000001
     spin moment: S , {S} =    0.00000  -0.00000   0.00000   0.00000
   scf:   33    -4146.484526    -4146.484526    -4146.484526  0.000000 -3.797534  0.000001
     spin moment: S , {S} =    0.00000  -0.00000   0.00000   0.00000

SCF Convergence by DM+H criterion
max |DM_out - DM_in|         :     0.0000001816
max |H_out - H_in|      (eV) :     0.0000008058
SCF cycle converged after 33 iterations

Using DM_out to compute the final energy and forces
No. of atoms with KB's overlaping orbs in proc 0. Max # of overlaps:      29     142

siesta: E_KS(eV) =            -4146.4845

siesta: E_KS - E_eggbox =     -4146.4845
     spin moment: S , {S} =    0.00000  -0.00000   0.00000   0.00000

siesta: Atomic forces (eV/Ang):
     1    0.575623    3.742305   -0.000000
     2   -0.009595   -0.012564   -0.000000
     3   -0.051630    0.011523   -0.000000
     4   -0.100426    0.005394    0.000000
     5   -0.005602   -0.034194   -0.000000
     6   -0.052332   -0.003390   -0.000000
     7   -0.007676   -0.002522    0.000000
     8    0.031997    0.033723    0.000000
     9    0.061183   -0.016345   -0.000000
    10    0.121207    0.031114   -0.000000
    11   -0.030052    0.029736    0.000000
    12   -0.128763   -0.064174    0.000000
    13    0.069333    0.067329   -0.000000
    14    0.016649    0.005240    0.000000
    15    0.187177    0.092393    0.000000
    16    0.054813    0.170306   -0.000000
    17   -0.072042    0.007223    0.000000
    18    0.008461   -0.009207   -0.000000
    19   -0.004981    0.046746   -0.000000
    20   -0.015081   -0.001167   -0.000000
    21    0.023548   -0.020289    0.000000
    22    0.054779   -0.007564    0.000000
    23    0.030125    0.029346    0.000000
    24   -0.046187    0.223721    0.000000
    25   -0.102844   -0.001400    0.000000
    26   -0.074360    0.123827    0.000000
    27    0.123590   -0.013477   -0.000000
    28   -1.115680    1.789155    0.000000
    29    0.113343    0.070402    0.000000
----------------------------------------
   Tot   -0.345424    6.293191   -0.000000
----------------------------------------
   Max    3.742305
   Res    0.468051    sqrt( Sum f_i^2 / 3N )
----------------------------------------
   Max    3.742305    constrained

Stress tensor Voigt[x,y,z,yz,xz,xy] (kbar):        0.42        0.01       -0.08        0.00       -0.00        0.38
(Free)E + p*V (eV/cell)    -4146.9001
Target enthalpy (eV/cell)    -4146.4845

mulliken: Atomic and Orbital Populations:

Species: O                   

Atom      Orb        Charge      Spin       Svec
----------------------------------------------------------------
    1  1 2s         1.74772   0.00000      0.000   0.000  -0.000
    1  2 2s         0.06510   0.00000     -0.000  -0.000   0.000
    1  3 2py        1.42673   0.00000     -0.000  -0.000  -0.000
    1  4 2pz        1.54071   0.00000      0.000  -0.000  -0.000
    1  5 2px        1.61497   0.00000      0.000  -0.000  -0.000
    1  6 2py        0.04126   0.00000      0.000   0.000   0.000
    1  7 2pz       -0.00303   0.00000     -0.000   0.000   0.000
    1  8 2px        0.00918   0.00000      0.000   0.000   0.000
    1  9 3Pdxy      0.00754   0.00000     -0.000  -0.000   0.000
    1 10 3Pdyz      0.00953   0.00000      0.000  -0.000  -0.000
    1 11 3Pdz2      0.00173   0.00000      0.000  -0.000  -0.000
    1 12 3Pdxz      0.00043   0.00000     -0.000   0.000   0.000
    1 13 3Pdx2-y2   0.00721   0.00000      0.000   0.000   0.000
    1     Total     6.46905   0.00000      0.000  -0.000  -0.000

   28  1 2s         1.73540   0.00000      0.000   0.000   0.000
   28  2 2s         0.07161   0.00000     -0.000  -0.000   0.000
   28  3 2py        1.41917   0.00000     -0.000   0.000   0.000
   28  4 2pz        1.53569   0.00000     -0.000   0.000   0.000
   28  5 2px        1.63270   0.00000     -0.000   0.000  -0.000
   28  6 2py        0.04457   0.00000      0.000   0.000   0.000
   28  7 2pz       -0.00091   0.00000      0.000  -0.000   0.000
   28  8 2px        0.01577   0.00000      0.000   0.000   0.000
   28  9 3Pdxy      0.00713   0.00000     -0.000  -0.000  -0.000
   28 10 3Pdyz      0.01042   0.00000      0.000  -0.000  -0.000
   28 11 3Pdz2      0.00129   0.00000      0.000   0.000   0.000
   28 12 3Pdxz     -0.00017   0.00000     -0.000   0.000   0.000
   28 13 3Pdx2-y2   0.00779   0.00000      0.000  -0.000  -0.000
   28     Total     6.48045   0.00000     -0.000   0.000   0.000

----------------------------------------------------------------
Total              12.94950   0.00000     -0.000   0.000   0.000


Species: N                   

Atom      Orb        Charge      Spin       Svec
----------------------------------------------------------------
    2  1 2s         1.55018   0.00000     -0.000  -0.000  -0.000
    2  2 2s         0.08420   0.00000      0.000   0.000   0.000
    2  3 2py        1.03143   0.00000     -0.000   0.000  -0.000
    2  4 2pz        1.22383   0.00000     -0.000   0.000  -0.000
    2  5 2px        1.00475   0.00000     -0.000  -0.000  -0.000
    2  6 2py        0.19295   0.00000     -0.000  -0.000   0.000
    2  7 2pz        0.05465   0.00000     -0.000  -0.000   0.000
    2  8 2px        0.19093   0.00000      0.000   0.000   0.000
    2  9 3Pdxy      0.00843   0.00000      0.000  -0.000   0.000
    2 10 3Pdyz      0.01083   0.00000      0.000  -0.000   0.000
    2 11 3Pdz2      0.00196   0.00000      0.000   0.000   0.000
    2 12 3Pdxz      0.00754   0.00000      0.000  -0.000   0.000
    2 13 3Pdx2-y2   0.00893   0.00000      0.000  -0.000  -0.000
    2     Total     5.37061   0.00000     -0.000  -0.000  -0.000

    3  1 2s         1.40763   0.00000     -0.000   0.000  -0.000
    3  2 2s         0.11419   0.00000      0.000  -0.000   0.000
    3  3 2py        0.93981   0.00000     -0.000  -0.000  -0.000
    3  4 2pz        1.53800   0.00000     -0.000   0.000  -0.000
    3  5 2px        1.09731   0.00000     -0.000   0.000  -0.000
    3  6 2py        0.24816   0.00000      0.000   0.000   0.000
    3  7 2pz        0.00897   0.00000     -0.000  -0.000   0.000
    3  8 2px        0.16919   0.00000      0.000  -0.000   0.000
    3  9 3Pdxy      0.00431   0.00000      0.000   0.000   0.000
    3 10 3Pdyz      0.00418   0.00000     -0.000   0.000  -0.000
    3 11 3Pdz2      0.00083   0.00000      0.000  -0.000   0.000
    3 12 3Pdxz      0.00267   0.00000     -0.000  -0.000  -0.000
    3 13 3Pdx2-y2   0.00307   0.00000      0.000  -0.000  -0.000
    3     Total     5.53831   0.00000     -0.000   0.000  -0.000

    4  1 2s         1.46837   0.00000     -0.000   0.000  -0.000
    4  2 2s         0.11686   0.00000      0.000  -0.000   0.000
    4  3 2py        1.10525   0.00000      0.000  -0.000  -0.000
    4  4 2pz        1.29242   0.00000     -0.000   0.000  -0.000
    4  5 2px        0.84192   0.00000      0.000  -0.000  -0.000
    4  6 2py        0.15561   0.00000     -0.000  -0.000   0.000
    4  7 2pz        0.05375   0.00000      0.000  -0.000   0.000
    4  8 2px        0.28654   0.00000     -0.000   0.000   0.000
    4  9 3Pdxy      0.00854   0.00000     -0.000   0.000  -0.000
    4 10 3Pdyz      0.01080   0.00000      0.000  -0.000   0.000
    4 11 3Pdz2      0.00132   0.00000     -0.000  -0.000   0.000
    4 12 3Pdxz      0.00495   0.00000     -0.000  -0.000  -0.000
    4 13 3Pdx2-y2   0.00850   0.00000     -0.000  -0.000  -0.000
    4     Total     5.35483   0.00000      0.000   0.000  -0.000

    5  1 2s         1.37377   0.00000      0.000  -0.000  -0.000
    5  2 2s         0.12884   0.00000      0.000   0.000   0.000
    5  3 2py        1.02747   0.00000      0.000   0.000  -0.000
    5  4 2pz        1.50104   0.00000     -0.000   0.000  -0.000
    5  5 2px        1.05902   0.00000      0.000   0.000  -0.000
    5  6 2py        0.20312   0.00000      0.000  -0.000   0.000
    5  7 2pz        0.01348   0.00000      0.000  -0.000   0.000
    5  8 2px        0.20239   0.00000     -0.000  -0.000   0.000
    5  9 3Pdxy      0.00369   0.00000     -0.000  -0.000   0.000
    5 10 3Pdyz      0.00248   0.00000     -0.000   0.000   0.000
    5 11 3Pdz2      0.00138   0.00000      0.000   0.000   0.000
    5 12 3Pdxz      0.00686   0.00000     -0.000   0.000   0.000
    5 13 3Pdx2-y2   0.00572   0.00000     -0.000   0.000   0.000
    5     Total     5.52924   0.00000      0.000   0.000  -0.000

    6  1 2s         1.26704   0.00000      0.000  -0.000  -0.000
    6  2 2s         0.17977   0.00000     -0.000  -0.000   0.000
    6  3 2py        1.08083   0.00000      0.000   0.000  -0.000
    6  4 2pz        1.57709   0.00000     -0.000  -0.000  -0.000
    6  5 2px        0.97135   0.00000     -0.000   0.000  -0.000
    6  6 2py        0.18712   0.00000     -0.000  -0.000   0.000
    6  7 2pz        0.02929   0.00000      0.000   0.000   0.000
    6  8 2px        0.25265   0.00000      0.000  -0.000   0.000
    6  9 3Pdxy      0.00269   0.00000      0.000  -0.000   0.000
    6 10 3Pdyz      0.00013   0.00000      0.000  -0.000  -0.000
    6 11 3Pdz2      0.00167   0.00000     -0.000  -0.000   0.000
    6 12 3Pdxz      0.00288   0.00000     -0.000  -0.000  -0.000
    6 13 3Pdx2-y2   0.00303   0.00000      0.000  -0.000   0.000
    6     Total     5.55554   0.00000     -0.000  -0.000  -0.000

   21  1 2s         1.41204   0.00000      0.000  -0.000  -0.000
   21  2 2s         0.13216   0.00000     -0.000   0.000   0.000
   21  3 2py        0.87134   0.00000      0.000  -0.000  -0.000
   21  4 2pz        1.29318   0.00000     -0.000  -0.000  -0.000
   21  5 2px        1.15574   0.00000     -0.000  -0.000  -0.000
   21  6 2py        0.28100   0.00000     -0.000   0.000   0.000
   21  7 2pz        0.05015   0.00000      0.000   0.000   0.000
   21  8 2px        0.16537   0.00000      0.000   0.000   0.000
   21  9 3Pdxy      0.00657   0.00000      0.000  -0.000   0.000
   21 10 3Pdyz      0.00524   0.00000      0.000   0.000  -0.000
   21 11 3Pdz2     -0.00003   0.00000      0.000   0.000   0.000
   21 12 3Pdxz      0.00579   0.00000      0.000   0.000  -0.000
   21 13 3Pdx2-y2   0.00558   0.00000      0.000  -0.000  -0.000
   21     Total     5.38414   0.00000     -0.000  -0.000  -0.000

   22  1 2s         1.28689   0.00000      0.000   0.000   0.000
   22  2 2s         0.17089   0.00000     -0.000  -0.000  -0.000
   22  3 2py        1.06922   0.00000     -0.000   0.000  -0.000
   22  4 2pz        1.56124   0.00000     -0.000  -0.000  -0.000
   22  5 2px        1.00212   0.00000     -0.000   0.000  -0.000
   22  6 2py        0.19311   0.00000      0.000  -0.000   0.000
   22  7 2pz        0.02774   0.00000      0.000   0.000   0.000
   22  8 2px        0.23281   0.00000      0.000  -0.000   0.000
   22  9 3Pdxy      0.00360   0.00000     -0.000   0.000   0.000
   22 10 3Pdyz      0.00013   0.00000     -0.000   0.000   0.000
   22 11 3Pdz2      0.00260   0.00000     -0.000  -0.000   0.000
   22 12 3Pdxz      0.00279   0.00000      0.000  -0.000   0.000
   22 13 3Pdx2-y2   0.00337   0.00000      0.000   0.000  -0.000
   22     Total     5.55651   0.00000      0.000  -0.000  -0.000

   23  1 2s         1.39854   0.00000     -0.000   0.000   0.000
   23  2 2s         0.11696   0.00000     -0.000   0.000  -0.000
   23  3 2py        0.99597   0.00000      0.000  -0.000  -0.000
   23  4 2pz        1.51836   0.00000     -0.000   0.000  -0.000
   23  5 2px        1.07584   0.00000      0.000   0.000  -0.000
   23  6 2py        0.22146   0.00000     -0.000   0.000   0.000
   23  7 2pz        0.00545   0.00000      0.000  -0.000   0.000
   23  8 2px        0.19216   0.00000     -0.000   0.000   0.000
   23  9 3Pdxy      0.00527   0.00000      0.000  -0.000   0.000
   23 10 3Pdyz      0.00451   0.00000      0.000  -0.000  -0.000
   23 11 3Pdz2      0.00049   0.00000     -0.000  -0.000  -0.000
   23 12 3Pdxz      0.00229   0.00000     -0.000  -0.000  -0.000
   23 13 3Pdx2-y2   0.00119   0.00000     -0.000  -0.000  -0.000
   23     Total     5.53848   0.00000      0.000   0.000  -0.000

----------------------------------------------------------------
Total              56.77716   0.00000     -0.000  -0.000  -0.000


Species: Si                  

Atom      Orb        Charge      Spin       Svec
----------------------------------------------------------------
    7  1 3s         0.68901   0.00000     -0.000   0.000   0.000
    7  2 3s         0.35785   0.00000      0.000  -0.000   0.000
    7  3 3py        0.47583   0.00000      0.000  -0.000   0.000
    7  4 3pz        0.69953   0.00000      0.000   0.000   0.000
    7  5 3px        0.13675   0.00000      0.000  -0.000  -0.000
    7  6 3py        0.27092   0.00000     -0.000   0.000   0.000
    7  7 3pz        0.25785   0.00000     -0.000  -0.000   0.000
    7  8 3px        0.42206   0.00000     -0.000   0.000   0.000
    7  9 3Pdxy      0.24283   0.00000     -0.000  -0.000   0.000
    7 10 3Pdyz      0.03037   0.00000      0.000  -0.000   0.000
    7 11 3Pdz2      0.01206   0.00000     -0.000  -0.000   0.000
    7 12 3Pdxz      0.13860   0.00000     -0.000   0.000  -0.000
    7 13 3Pdx2-y2   0.11315   0.00000      0.000   0.000   0.000
    7     Total     3.84681   0.00000      0.000  -0.000   0.000

    8  1 3s         0.64839   0.00000      0.000  -0.000  -0.000
    8  2 3s         0.37122   0.00000     -0.000   0.000   0.000
    8  3 3py        0.38681   0.00000      0.000  -0.000  -0.000
    8  4 3pz        0.52693   0.00000     -0.000  -0.000  -0.000
    8  5 3px       -0.03200   0.00000     -0.000   0.000   0.000
    8  6 3py        0.30470   0.00000     -0.000  -0.000   0.000
    8  7 3pz        0.20216   0.00000     -0.000  -0.000   0.000
    8  8 3px        0.52016   0.00000      0.000  -0.000  -0.000
    8  9 3Pdxy      0.25851   0.00000     -0.000   0.000  -0.000
    8 10 3Pdyz      0.11053   0.00000      0.000  -0.000  -0.000
    8 11 3Pdz2      0.01336   0.00000      0.000   0.000   0.000
    8 12 3Pdxz      0.15563   0.00000      0.000   0.000   0.000
    8 13 3Pdx2-y2   0.18794   0.00000      0.000   0.000  -0.000
    8     Total     3.65434   0.00000     -0.000  -0.000  -0.000

    9  1 3s         0.63035   0.00000     -0.000   0.000   0.000
    9  2 3s         0.35568   0.00000      0.000  -0.000  -0.000
    9  3 3py        0.08565   0.00000      0.000   0.000  -0.000
    9  4 3pz        0.48262   0.00000     -0.000   0.000  -0.000
    9  5 3px        0.37105   0.00000      0.000  -0.000  -0.000
    9  6 3py        0.43918   0.00000     -0.000  -0.000   0.000
    9  7 3pz        0.18463   0.00000     -0.000  -0.000  -0.000
    9  8 3px        0.26778   0.00000     -0.000   0.000   0.000
    9  9 3Pdxy      0.31405   0.00000      0.000  -0.000  -0.000
    9 10 3Pdyz      0.19146   0.00000      0.000   0.000  -0.000
    9 11 3Pdz2      0.01621   0.00000     -0.000   0.000   0.000
    9 12 3Pdxz      0.08751   0.00000     -0.000   0.000  -0.000
    9 13 3Pdx2-y2   0.15460   0.00000     -0.000   0.000   0.000
    9     Total     3.58077   0.00000     -0.000   0.000  -0.000

   10  1 3s         0.48394   0.00000     -0.000   0.000   0.000
   10  2 3s         0.37952   0.00000      0.000  -0.000   0.000
   10  3 3py        0.23989   0.00000      0.000   0.000   0.000
   10  4 3pz        0.41019   0.00000      0.000   0.000   0.000
   10  5 3px        0.10269   0.00000     -0.000   0.000   0.000
   10  6 3py        0.33617   0.00000     -0.000  -0.000   0.000
   10  7 3pz        0.22062   0.00000     -0.000  -0.000   0.000
   10  8 3px        0.42177   0.00000      0.000  -0.000  -0.000
   10  9 3Pdxy      0.16309   0.00000      0.000   0.000  -0.000
   10 10 3Pdyz      0.14968   0.00000      0.000   0.000   0.000
   10 11 3Pdz2      0.01140   0.00000      0.000   0.000   0.000
   10 12 3Pdxz      0.16965   0.00000     -0.000   0.000   0.000
   10 13 3Pdx2-y2   0.32183   0.00000     -0.000  -0.000  -0.000
   10     Total     3.41043   0.00000     -0.000  -0.000   0.000

   11  1 3s         0.55844   0.00000      0.000  -0.000   0.000
   11  2 3s         0.38214   0.00000     -0.000   0.000   0.000
   11  3 3py        0.30392   0.00000     -0.000   0.000   0.000
   11  4 3pz        0.54264   0.00000      0.000   0.000   0.000
   11  5 3px        0.13790   0.00000      0.000  -0.000   0.000
   11  6 3py        0.30308   0.00000      0.000  -0.000   0.000
   11  7 3pz        0.17709   0.00000     -0.000  -0.000   0.000
   11  8 3px        0.43232   0.00000     -0.000   0.000   0.000
   11  9 3Pdxy      0.24368   0.00000      0.000   0.000   0.000
   11 10 3Pdyz      0.12464   0.00000     -0.000  -0.000   0.000
   11 11 3Pdz2      0.00937   0.00000      0.000   0.000  -0.000
   11 12 3Pdxz      0.05254   0.00000      0.000  -0.000   0.000
   11 13 3Pdx2-y2   0.18368   0.00000     -0.000   0.000   0.000
   11     Total     3.45144   0.00000      0.000  -0.000   0.000

   17  1 3s         0.64912   0.00000      0.000   0.000   0.000
   17  2 3s         0.35776   0.00000     -0.000  -0.000  -0.000
   17  3 3py        0.25090   0.00000     -0.000  -0.000  -0.000
   17  4 3pz        0.42779   0.00000     -0.000  -0.000   0.000
   17  5 3px        0.22832   0.00000     -0.000  -0.000   0.000
   17  6 3py        0.37052   0.00000     -0.000   0.000  -0.000
   17  7 3pz        0.21265   0.00000      0.000   0.000   0.000
   17  8 3px        0.37588   0.00000     -0.000   0.000  -0.000
   17  9 3Pdxy      0.29616   0.00000      0.000  -0.000  -0.000
   17 10 3Pdyz      0.14003   0.00000      0.000   0.000   0.000
   17 11 3Pdz2      0.00983   0.00000      0.000   0.000   0.000
   17 12 3Pdxz      0.14745   0.00000      0.000   0.000   0.000
   17 13 3Pdx2-y2   0.16955   0.00000     -0.000  -0.000   0.000
   17     Total     3.63595   0.00000     -0.000   0.000   0.000

   18  1 3s         0.74678   0.00000     -0.000   0.000   0.000
   18  2 3s         0.33776   0.00000      0.000  -0.000   0.000
   18  3 3py        0.09036   0.00000     -0.000  -0.000   0.000
   18  4 3pz        0.83319   0.00000     -0.000   0.000   0.000
   18  5 3px        0.54559   0.00000     -0.000  -0.000   0.000
   18  6 3py        0.51265   0.00000      0.000  -0.000   0.000
   18  7 3pz        0.19692   0.00000      0.000  -0.000   0.000
   18  8 3px        0.25179   0.00000      0.000   0.000   0.000
   18  9 3Pdxy      0.10901   0.00000      0.000  -0.000  -0.000
   18 10 3Pdyz      0.02763   0.00000     -0.000   0.000  -0.000
   18 11 3Pdz2      0.00943   0.00000     -0.000   0.000  -0.000
   18 12 3Pdxz      0.02912   0.00000      0.000  -0.000  -0.000
   18 13 3Pdx2-y2   0.10680   0.00000     -0.000  -0.000   0.000
   18     Total     3.79701   0.00000     -0.000   0.000   0.000

   19  1 3s         0.45413   0.00000     -0.000  -0.000   0.000
   19  2 3s         0.36568   0.00000      0.000   0.000  -0.000
   19  3 3py        0.07880   0.00000     -0.000   0.000   0.000
   19  4 3pz        0.41884   0.00000      0.000  -0.000  -0.000
   19  5 3px        0.34625   0.00000      0.000  -0.000   0.000
   19  6 3py        0.47113   0.00000      0.000  -0.000  -0.000
   19  7 3pz        0.18746   0.00000      0.000   0.000  -0.000
   19  8 3px        0.24284   0.00000     -0.000   0.000   0.000
   19  9 3Pdxy      0.34808   0.00000     -0.000   0.000  -0.000
   19 10 3Pdyz      0.18947   0.00000      0.000  -0.000   0.000
   19 11 3Pdz2      0.01593   0.00000      0.000  -0.000   0.000
   19 12 3Pdxz      0.08381   0.00000      0.000  -0.000   0.000
   19 13 3Pdx2-y2   0.22764   0.00000      0.000   0.000  -0.000
   19     Total     3.43006   0.00000      0.000  -0.000   0.000

   20  1 3s         0.67275   0.00000      0.000   0.000  -0.000
   20  2 3s         0.38006   0.00000     -0.000  -0.000  -0.000
   20  3 3py        0.33866   0.00000     -0.000  -0.000  -0.000
   20  4 3pz        0.57842   0.00000      0.000  -0.000  -0.000
   20  5 3px        0.13779   0.00000     -0.000   0.000  -0.000
   20  6 3py        0.29043   0.00000      0.000   0.000   0.000
   20  7 3pz        0.16356   0.00000     -0.000   0.000  -0.000
   20  8 3px        0.49953   0.00000      0.000  -0.000   0.000
   20  9 3Pdxy      0.10302   0.00000     -0.000  -0.000  -0.000
   20 10 3Pdyz      0.13522   0.00000     -0.000   0.000  -0.000
   20 11 3Pdz2      0.00730   0.00000      0.000  -0.000   0.000
   20 12 3Pdxz      0.02694   0.00000      0.000   0.000   0.000
   20 13 3Pdx2-y2   0.17054   0.00000     -0.000   0.000  -0.000
   20     Total     3.50422   0.00000     -0.000   0.000  -0.000

----------------------------------------------------------------
Total              89.08819   0.00000     -0.000   0.000   0.000


Species: H                   

Atom      Orb        Charge      Spin       Svec
----------------------------------------------------------------
   12  1 1s         0.49205   0.00000      0.000   0.000  -0.000
   12  2 1s         0.18566   0.00000     -0.000  -0.000   0.000
   12  3 2Ppy       0.02882   0.00000     -0.000   0.000   0.000
   12  4 2Ppz       0.03581   0.00000     -0.000  -0.000  -0.000
   12  5 2Ppx       0.02326   0.00000      0.000  -0.000  -0.000
   12     Total     0.76559   0.00000     -0.000   0.000   0.000

   13  1 1s         1.02019   0.00000     -0.000   0.000  -0.000
   13  2 1s         0.09462   0.00000     -0.000  -0.000   0.000
   13  3 2Ppy       0.01983   0.00000     -0.000   0.000  -0.000
   13  4 2Ppz       0.02012   0.00000     -0.000   0.000   0.000
   13  5 2Ppx       0.03326   0.00000      0.000   0.000   0.000
   13     Total     1.18802   0.00000     -0.000   0.000  -0.000

   14  1 1s         0.46393   0.00000      0.000  -0.000   0.000
   14  2 1s         0.19969   0.00000      0.000   0.000   0.000
   14  3 2Ppy       0.01827   0.00000      0.000  -0.000  -0.000
   14  4 2Ppz       0.04713   0.00000      0.000   0.000   0.000
   14  5 2Ppx       0.01738   0.00000      0.000  -0.000   0.000
   14     Total     0.74641   0.00000      0.000   0.000   0.000

   15  1 1s         0.46890   0.00000      0.000  -0.000  -0.000
   15  2 1s         0.19924   0.00000     -0.000   0.000   0.000
   15  3 2Ppy       0.00531   0.00000     -0.000   0.000   0.000
   15  4 2Ppz       0.04907   0.00000      0.000   0.000   0.000
   15  5 2Ppx       0.02786   0.00000      0.000  -0.000   0.000
   15     Total     0.75037   0.00000      0.000  -0.000   0.000

   16  1 1s         0.50797   0.00000     -0.000   0.000   0.000
   16  2 1s         0.18746   0.00000     -0.000   0.000   0.000
   16  3 2Ppy       0.03004   0.00000      0.000   0.000   0.000
   16  4 2Ppz       0.03956   0.00000      0.000  -0.000   0.000
   16  5 2Ppx       0.02321   0.00000      0.000   0.000   0.000
   16     Total     0.78823   0.00000     -0.000  -0.000   0.000

   24  1 1s         1.05763   0.00000     -0.000  -0.000  -0.000
   24  2 1s         0.07647   0.00000      0.000   0.000   0.000
   24  3 2Ppy       0.03140   0.00000      0.000   0.000   0.000
   24  4 2Ppz       0.03143   0.00000     -0.000   0.000   0.000
   24  5 2Ppx       0.01751   0.00000      0.000   0.000  -0.000
   24     Total     1.21444   0.00000      0.000  -0.000  -0.000

   25  1 1s         1.04792   0.00000      0.000  -0.000  -0.000
   25  2 1s         0.08395   0.00000     -0.000   0.000   0.000
   25  3 2Ppy       0.01172   0.00000     -0.000  -0.000  -0.000
   25  4 2Ppz       0.01783   0.00000      0.000  -0.000  -0.000
   25  5 2Ppx       0.03644   0.00000      0.000   0.000   0.000
   25     Total     1.19786   0.00000      0.000  -0.000  -0.000

   26  1 1s         0.47688   0.00000      0.000   0.000   0.000
   26  2 1s         0.19862   0.00000     -0.000  -0.000   0.000
   26  3 2Ppy       0.01870   0.00000      0.000  -0.000   0.000
   26  4 2Ppz       0.05209   0.00000     -0.000   0.000   0.000
   26  5 2Ppx       0.01623   0.00000      0.000   0.000  -0.000
   26     Total     0.76251   0.00000      0.000   0.000   0.000

   27  1 1s         0.46866   0.00000      0.000   0.000  -0.000
   27  2 1s         0.19668   0.00000     -0.000   0.000   0.000
   27  3 2Ppy       0.00603   0.00000      0.000   0.000  -0.000
   27  4 2Ppz       0.04424   0.00000     -0.000  -0.000   0.000
   27  5 2Ppx       0.02865   0.00000      0.000   0.000  -0.000
   27     Total     0.74426   0.00000      0.000   0.000   0.000

   29  1 1s         0.48265   0.00000     -0.000  -0.000   0.000
   29  2 1s         0.18847   0.00000      0.000   0.000   0.000
   29  3 2Ppy       0.02519   0.00000      0.000   0.000   0.000
   29  4 2Ppz       0.03402   0.00000      0.000  -0.000  -0.000
   29  5 2Ppx       0.02378   0.00000      0.000   0.000  -0.000
   29     Total     0.75411   0.00000      0.000  -0.000   0.000

----------------------------------------------------------------
Total              98.00000   0.00000     -0.000   0.000   0.000


siesta: Eigenvalues (eV):
ik =     1
  -21.9741  -21.9741  -21.9050  -21.9050  -21.7348  -21.7348  -21.5130  -21.5130  -21.3191  -21.3191
  -21.0455  -21.0455  -20.8333  -20.8333  -19.8741  -19.8741  -19.4702  -19.4702  -19.3836  -19.3836
  -14.7062  -14.7062  -13.9096  -13.9096  -13.2952  -13.2952  -13.1804  -13.1804  -13.1387  -13.1387
  -12.8429  -12.8429  -12.7980  -12.7980  -12.4946  -12.4946  -12.3673  -12.3673  -11.9387  -11.9387
  -11.4492  -11.4492  -10.7639  -10.7639  -10.7530  -10.7530  -10.6847  -10.6847  -10.0654  -10.0654
   -9.5512   -9.5512   -9.2021   -9.2021   -8.9829   -8.9829   -8.7686   -8.7686   -8.6337   -8.6337
   -8.6183   -8.6183   -8.3815   -8.3815   -8.2125   -8.2125   -7.7814   -7.7814   -7.6976   -7.6976
   -7.6456   -7.6456   -7.4367   -7.4367   -7.2858   -7.2858   -6.8515   -6.8515   -6.7554   -6.7554
   -6.5655   -6.5655   -6.5208   -6.5208   -6.2762   -6.2762   -6.1943   -6.1943   -6.1452   -6.1452
   -5.8839   -5.8839   -5.8712   -5.8712   -5.4324   -5.4324   -4.3892   -4.3892   -3.2031   -3.2031
   -2.4058   -2.4058   -2.3158   -2.3158   -2.2432   -2.2432   -1.9847   -1.9847   -1.8716   -1.8716
   -1.8576   -1.8576   -1.7539   -1.7539   -1.5763   -1.5763   -1.5226   -1.5226   -1.2598   -1.2598
   -0.9323   -0.9323   -0.8094   -0.8094   -0.4763   -0.4763   -0.1626   -0.1626    0.2877    0.2877
    0.3102    0.3102    0.3118    0.3118    0.6129    0.6129    0.7796    0.7796    0.7860    0.7860
    1.1856    1.1856    1.3102    1.3102    1.4147    1.4147    1.4648    1.4648    1.4837    1.4837
    1.6752    1.6752    1.9089    1.9089    2.2441    2.2441    2.3828    2.3828    2.6243    2.6243
    2.6869    2.6869    2.9634    2.9634    3.0343    3.0343    3.1456    3.1456    3.2939    3.2939
    3.3704    3.3704    3.7361    3.7361    3.8843    3.8843    4.1502    4.1502    4.3341    4.3341
    4.4633    4.4633    4.5257    4.5257    4.5468    4.5468    4.7216    4.7216    4.7612    4.7612
    4.8644    4.8644    5.1090    5.1090    5.2089    5.2089    5.5384    5.5384    5.5821    5.5821
    5.5989    5.5989    5.8128    5.8128    5.9228    5.9228    5.9356    5.9356    6.0712    6.0712
    6.2420    6.2420    6.3008    6.3008    6.5900    6.5900    6.6118    6.6118    6.8691    6.8691
    7.1171    7.1171    7.1761    7.1761    7.2437    7.2437    7.4787    7.4787    7.7768    7.7768
    7.7938    7.7938    8.0393    8.0393    8.1283    8.1283    8.1832    8.1832    8.2937    8.2937
    8.5700    8.5700    8.6615    8.6615    8.6698    8.6698    8.9455    8.9455    9.1390    9.1390
    9.2017    9.2017    9.2770    9.2770    9.7314    9.7314    9.7480    9.7480    9.7714    9.7714
    9.7788    9.7788   10.1958   10.1958   10.3267   10.3267   10.7944   10.7944   10.8440   10.8440
   10.9801   10.9801   10.9899   10.9899   11.0475   11.0475   11.8366   11.8366   11.9164   11.9164
   11.9577   11.9577   11.9929   11.9929   12.0620   12.0620   12.3258   12.3258   12.3815   12.3815
   12.7939   12.7939   12.8251   12.8251   13.3555   13.3555   13.5893   13.5893   13.7146   13.7146
   13.9465   13.9465   14.0419   14.0419   14.0723   14.0723   14.0998   14.0998   14.6559   14.6559
   15.0524   15.0524   15.5449   15.5449   15.8077   15.8077   16.1623   16.1623   16.7705   16.7705
   16.9076   16.9076   17.3706   17.3706   18.0982   18.0982   18.2106   18.2106   18.3379   18.3379
   18.4785   18.4785   19.2185   19.2185   19.5022   19.5022   20.0749   20.0749   20.2204   20.2204
   20.9889   20.9889   21.2089   21.2089   21.7934   21.7934   22.3772   22.3772   22.5445   22.5445
   23.0096   23.0096   23.1235   23.1235   23.5686   23.5686   23.7543   23.7543   23.9177   23.9177
   24.7775   24.7775   24.7907   24.7907   26.2792   26.2792   26.9006   26.9006   28.8217   28.8217
   28.8911   28.8911   28.9279   28.9279   29.4328   29.4328   29.7634   29.7634   29.9878   29.9878
   30.2651   30.2651   30.3997   30.3997   30.7829   30.7829   30.8816   30.8816   30.9748   30.9748
   30.9993   30.9993   31.2364   31.2364   31.5220   31.5220   31.7175   31.7175   32.3665   32.3665
   32.7689   32.7689   34.0866   34.0866   34.2584   34.2584   34.5988   34.5988   34.8343   34.8343
   35.1415   35.1415   35.1656   35.1656   35.3167   35.3167   35.4304   35.4304   36.0306   36.0306
   36.5980   36.5980   36.8776   36.8776   37.2508   37.2508   37.3198   37.3198   37.5993   37.5993
   38.0326   38.0326   38.2167   38.2167   39.2063   39.2063   39.3726   39.3726   39.9306   39.9306
   40.1196   40.1196   40.6980   40.6980   40.8336   40.8336   40.8589   40.8589   41.1571   41.1571
   41.3405   41.3405   41.3666   41.3666   42.5215   42.5215   42.8967   42.8967   43.2263   43.2263
   43.2906   43.2906   43.6900   43.6900   43.9253   43.9253   43.9827   43.9827   44.1257   44.1257
   44.6632   44.6632   44.6848   44.6848   44.8542   44.8542   45.3418   45.3418   46.2980   46.2980
   46.4357   46.4357   46.7388   46.7388   47.3759   47.3759   49.1156   49.1156   49.1786   49.1786
   49.3450   49.3450   50.3855   50.3855   50.9153   50.9153   51.0079   51.0079   51.1564   51.1564
   51.2631   51.2631   51.8130   51.8130   52.4921   52.4921   52.8517   52.8517   54.7022   54.7022
   54.7979   54.7979   54.9179   54.9179   55.2433   55.2433   55.7466   55.7466   55.7906   55.7906
   55.9655   55.9655   56.4459   56.4459   56.7202   56.7202   58.1549   58.1549   58.7110   58.7110
   59.1641   59.1641   60.2064   60.2064   60.3124   60.3124   60.9629   60.9629   61.4369   61.4369
   61.8137   61.8137   62.0105   62.0105   62.1857   62.1857   64.2707   64.2707   66.3769   66.3769
   67.1260   67.1260   67.1855   67.1855   68.7005   68.7005   68.9694   68.9694   70.6493   70.6493
   73.3934   73.3934   80.7792   80.7792   90.0960   90.0960   91.7275   91.7275   93.3756   93.3756
   98.2513   98.2513   99.3050   99.3050  100.3141  100.3141  103.2430  103.2430  103.4837  103.4837
  110.4278  110.4278  111.2687  111.2687  123.8321  123.8321  126.2283  126.2283  130.8333  130.8333
  139.8310  139.8310  141.1701  141.1701
siesta: Fermi energy =      -3.797534 eV

siesta: Program's energy decomposition (eV):
siesta: Ebs     =     -1137.047953
siesta: Eions   =      3585.165840
siesta: Ena     =       384.948850
siesta: Ekin    =      2907.533416
siesta: Enl     =     -2794.946078
siesta: Eso     =        -0.004257
siesta: Edftu   =         0.000000
siesta: DEna    =        47.455860
siesta: DUscf   =        14.367650
siesta: DUext   =         0.000000
siesta: Exc     =     -1120.674127
siesta: eta*DQ  =         0.000000
siesta: Emadel  =         0.000000
siesta: Emeta   =         0.000000
siesta: Emolmec =         0.000000
siesta: Ekinion =         0.000000
siesta: Eharris =     -4146.484526
siesta: Etot    =     -4146.484526
siesta: FreeEng =     -4146.484526

siesta: Final energy (eV):
siesta:  Band Struct. =   -1137.047953
siesta:       Kinetic =    2907.533416
siesta:       Hartree =    8188.162147
siesta:       Edftu   =       0.000000
siesta:       Eso     =      -0.004257
siesta:    Ext. field =       0.000000
siesta:   Exch.-corr. =   -1120.674127
siesta:  Ion-electron =  -18966.143285
siesta:       Ion-ion =    4844.641580
siesta:       Ekinion =       0.000000
siesta:         Total =   -4146.484526
siesta:         Fermi =      -3.797534

siesta: Atomic forces (eV/Ang):
siesta:      1    0.575623    3.742305   -0.000000
siesta:      2   -0.009595   -0.012564   -0.000000
siesta:      3   -0.051630    0.011523   -0.000000
siesta:      4   -0.100426    0.005394    0.000000
siesta:      5   -0.005602   -0.034194   -0.000000
siesta:      6   -0.052332   -0.003390   -0.000000
siesta:      7   -0.007676   -0.002522    0.000000
siesta:      8    0.031997    0.033723    0.000000
siesta:      9    0.061183   -0.016345   -0.000000
siesta:     10    0.121207    0.031114   -0.000000
siesta:     11   -0.030052    0.029736    0.000000
siesta:     12   -0.128763   -0.064174    0.000000
siesta:     13    0.069333    0.067329   -0.000000
siesta:     14    0.016649    0.005240    0.000000
siesta:     15    0.187177    0.092393    0.000000
siesta:     16    0.054813    0.170306   -0.000000
siesta:     17   -0.072042    0.007223    0.000000
siesta:     18    0.008461   -0.009207   -0.000000
siesta:     19   -0.004981    0.046746   -0.000000
siesta:     20   -0.015081   -0.001167   -0.000000
siesta:     21    0.023548   -0.020289    0.000000
siesta:     22    0.054779   -0.007564    0.000000
siesta:     23    0.030125    0.029346    0.000000
siesta:     24   -0.046187    0.223721    0.000000
siesta:     25   -0.102844   -0.001400    0.000000
siesta:     26   -0.074360    0.123827    0.000000
siesta:     27    0.123590   -0.013477   -0.000000
siesta:     28   -1.115680    1.789155    0.000000
siesta:     29    0.113343    0.070402    0.000000
siesta: ----------------------------------------
siesta:    Tot   -0.345424    6.293191   -0.000000

siesta: Stress tensor (static) (eV/Ang**3):
siesta:     0.000260    0.000235   -0.000000
siesta:     0.000235    0.000008   -0.000000
siesta:    -0.000000    0.000000   -0.000052

siesta: Cell volume =       5782.750952 Ang**3

siesta: Pressure (static):
siesta:                Solid            Molecule  Units
siesta:          -0.00000078          0.00000144  Ry/Bohr**3
siesta:          -0.00007187          0.00013245  eV/Ang**3
siesta:          -0.11515329          0.21220489  kBar
(Free)E+ p_basis*V_orbitals  =       -4126.634109
(Free)Eharris+ p_basis*V_orbitals  =       -4126.634109
     spin moment: S , {S} =    0.00000  -0.00000   0.00000   0.00000

siesta: Electric dipole (a.u.)  =    1.389447   -0.014709    0.000000
siesta: Electric dipole (Debye) =    3.531624   -0.037386    0.000000

cite: Please see "GC.bib" for an exhaustive BiBTeX file.
cite: Please clearly indicate Siesta version in published work: v4.1.5-1-g384057250
cite: This calculation has made use of the following articles
cite: which are encouraged to be cited in a published work.
        Primary SIESTA paper
          DOI: www.doi.org/10.1088/0953-8984/14/11/302
        Spin-orbit coupling (on-site approximation)
          DOI: www.doi.org/10.1088/0953-8984/19/19/489001


WARNING: alloc-realloc-dealloc name mismatch
         Name: atomlist isa
         Size:              -116. Bytes
         Node:     0
         Subsequent mismatches will not be reported
>> End of run:  22-MAY-2023  19:51:34
Job completed
