Siesta Version  : v4.1.5-1-g384057250
Architecture    : gcc
Compiler version: GNU Fortran (Ubuntu 11.4.0-1ubuntu1~22.04) 11.4.0
Compiler flags  : mpifort -O2 -fPIC -ftree-vectorize -fallow-argument-mismatch
PP flags        : -DFC_HAVE_ABORT -DMPI -DSIESTA__FLOOK -DSIESTA__METIS -DSIESTA__MUMPS -DCDF -DNCDF -DNCDF_4 -DNCDF_PARALLEL -DSIESTA__MRRR -DSIESTA__ELPA
Libraries       : libncdf.a libfdict.a  -lflookall -ldl -lnetcdff -lnetcdf -lhdf5_hl -lhdf5 -lhdf5_fortran -lz -lscalapack-openmpi -lopenblas -lmetis -lzmumps -lcmumps -ldmumps -lmumps_common -lpord -lsmumps -lesmumps -lscotch -lscotcherr -fopenmp -lelpa
PARALLEL version
NetCDF support
NetCDF-4 support
NetCDF-4 MPI-IO support
METIS ordering support
Lua support

* Running on 8 nodes in parallel
>> Start of run:   1-FEB-2024  19:20:07

                           ***********************       
                           *  WELCOME TO SIESTA  *       
                           ***********************       

reinit: Reading from standard input
reinit: Dumped input in INPUT_TMP.66461
************************** Dump of input data file ****************************
# mpirun -np 4 siesta-4.1.5 < AT.fdf > AT.out &
SystemLabel      AT
NumberOfAtoms    30
NumberOfSpecies  4
%block ChemicalSpeciesLabel
    1    1  H
    2    7  N
    3   14  Si
    4    8  O
%endblock ChemicalSpeciesLabel
############################################
# This overrides Defaults.fdf configuration
############################################
MD.TypeOfRun                Verlet # CG, Verlet
MD.Steps                    0
MaxSCFIterations            200
SCF.MustConverge            F
AtomicCoordinatesFormat NotScaledCartesianAng
%block AtomicCoordinatesAndAtomicSpecies
    2.28494382 -5.19529124 0.0  1  1  H
    1.37433094 -4.6647107 0.0  2  2  N
    -0.21830245 -5.49458215 0.0  3  3  Si
    -0.17484108 -6.98516892 0.0  1  4  H
    -1.66171682 -4.58600741 0.0  2  5  N
    -1.09026419 -2.87456374 0.0  3  6  Si
    -1.53038332 -0.70765692 0.0  3  7  Si
    -3.14415959 -0.09186471 0.0  2  8  N
    -3.40268075 0.95848335 0.0  1  9  H
    -3.95073599 -0.76720972 0.0  1  10  H
    -0.17836637 0.41349951 0.0  2  11  N
    1.49520211 -0.0473996 0.0  3  12  Si
    2.45603905 1.10727302 0.0  1  13  H
    2.30451743 -1.58574382 0.0  2  14  N
    1.10725559 -2.84610319 0.0  3  15  Si
    0.250446514465517 9.840535072046691 0.0  1  16  H
    -0.558264165534483 9.148329192046692 0.0  2  17  N
    -2.214854005534483 9.861449292046691 0.0  3  18  Si
    -2.117988835534483 11.37217450204669 0.0  1  19  H
    -3.941010355534483 8.51840116204669 0.0  3  20  Si
    -6.295464605534483 8.510414232046692 0.0  3  21  Si
    -6.857882725534483 9.24490388204669 -1.20183078  1  22  H
    -6.595278355534483 7.031323102046691 -0.08618332  1  23  H
    -6.857995185534483 9.07524669204669 1.28814761  1  24  H
    -3.011619715534483 6.447829932046691 0.0  3  25  Si
    -3.961088075534483 5.15929380204669 0.0  4  26  O
    -1.2206748455344831 6.2740944620466905 0.0  2  27  N
    -0.889683485534483 5.241737482046691 0.0  1  28  H
    0.08778337446551698 7.4686408820466905 0.0  3  29  Si
    1.6537203044655169 7.201394032046691 0.0  4  30  O
%endblock AtomicCoordinatesAndAtomicSpecies
#############
# Unit Cell
#############
LatticeConstant 1.0 Ang
%block LatticeVectors
    30.00000    0.000000    0.000000
    0.000000    45.00000    0.000000
    0.000000    0.000000    10.00000
%endblock LatticeVectors
%include ../../../../Defaults.fdf
************************** End of input data file *****************************

reinit: -----------------------------------------------------------------------
reinit: System Name: 
reinit: -----------------------------------------------------------------------
reinit: System Label: AT
reinit: -----------------------------------------------------------------------

initatom: Reading input for the pseudopotentials and atomic orbitals ----------
Species number:   1 Atomic number:    1 Label: H
Species number:   2 Atomic number:    7 Label: N
Species number:   3 Atomic number:   14 Label: Si
Species number:   4 Atomic number:    8 Label: O

Ground state valence configuration:   1s01
Reading pseudopotential information in formatted form from H.psf

Pseudopotential generated from a relativistic atomic calculation

Valence configuration for pseudopotential generation:
1s( 1.00) rc: 0.01
2p( 0.00) rc: 0.60
3d( 0.00) rc: 1.99
4f( 0.00) rc: 2.49
Ground state valence configuration:   2s02  2p03
Reading pseudopotential information in formatted form from N.psf

Pseudopotential generated from a relativistic atomic calculation

Valence configuration for pseudopotential generation:
2s( 2.00) rc: 0.94
2p( 3.00) rc: 0.59
3d( 0.00) rc: 3.46
4f( 0.00) rc: 2.47
Ground state valence configuration:   3s02  3p02
Reading pseudopotential information in formatted form from Si.psf

Pseudopotential generated from a relativistic atomic calculation

Valence configuration for pseudopotential generation:
3s( 2.00) rc: 1.67
3p( 2.00) rc: 2.04
3d( 0.00) rc: 2.89
4f( 0.00) rc: 2.49
Ground state valence configuration:   2s02  2p04
Reading pseudopotential information in formatted form from O.psf

Pseudopotential generated from a relativistic atomic calculation

Valence configuration for pseudopotential generation:
2s( 2.00) rc: 0.45
2p( 4.00) rc: 0.92
3d( 0.00) rc: 2.24
4f( 0.00) rc: 0.25
For H, standard SIESTA heuristics set lmxkb to 2
 (one more than the basis l, including polarization orbitals).
Use PS.lmax or PS.KBprojectors blocks to override.
For N, standard SIESTA heuristics set lmxkb to 3
 (one more than the basis l, including polarization orbitals).
Use PS.lmax or PS.KBprojectors blocks to override.
For Si, standard SIESTA heuristics set lmxkb to 3
 (one more than the basis l, including polarization orbitals).
Use PS.lmax or PS.KBprojectors blocks to override.
For O, standard SIESTA heuristics set lmxkb to 3
 (one more than the basis l, including polarization orbitals).
Use PS.lmax or PS.KBprojectors blocks to override.

<basis_specs>
===============================================================================
H                    Z=   1    Mass=  1.0100        Charge= 0.17977+309
Lmxo=0 Lmxkb= 2    BasisType=split      Semic=F
L=0  Nsemic=0  Cnfigmx=1
          i=1  nzeta=2  polorb=1  (1s)
            splnorm:   0.62000    
               vcte:    0.0000    
               rinn:    0.0000    
               qcoe:    0.0000    
               qyuk:    0.0000    
               qwid:   0.10000E-01
                rcs:    0.0000      0.0000    
            lambdas:    1.0000      1.0000    
-------------------------------------------------------------------------------
L=0  Nkbl=1  erefs: 0.17977+309
L=1  Nkbl=1  erefs: 0.17977+309
L=2  Nkbl=1  erefs: 0.17977+309
===============================================================================
</basis_specs>

atom: Called for H                     (Z =   1)

read_vps: Pseudopotential generation method:
read_vps: ATM4.2.7  Troullier-Martins                       
Valence charge for ps generation:    1.00000

xc_check: Exchange-correlation functional:
xc_check: GGA Perdew, Burke & Ernzerhof 1996
V l=0 = -2*Zval/r beyond r=  0.0098
V l=1 = -2*Zval/r beyond r=  0.5817
V l=2 = -2*Zval/r beyond r=  1.9372
All V_l potentials equal beyond r=  1.9372
This should be close to max(r_c) in ps generation
All pots = -2*Zval/r beyond r=  1.9372

VLOCAL1: 99.0% of the norm of Vloc inside     11.567 Ry
VLOCAL1: 99.9% of the norm of Vloc inside     26.362 Ry
atom: Maximum radius for 4*pi*r*r*local-pseudopot. charge    2.25106
atom: Maximum radius for r*vlocal+2*Zval:    1.91306
GHOST: No ghost state for L =  0
GHOST: No ghost state for L =  1
GHOST: No ghost state for L =  2

KBgen: Kleinman-Bylander projectors: 
   l= 0   rc=  2.036604   el= -0.477180   Ekb= -6.081590   kbcos= -0.277285
   l= 1   rc=  2.195416   el=  0.001076   Ekb= -0.926943   kbcos= -0.034643
   l= 2   rc=  2.251056   el=  0.002010   Ekb= -0.130941   kbcos= -0.009788

KBgen: Total number of Kleinman-Bylander projectors:    9
atom: -------------------------------------------------------------------------

atom: SANKEY-TYPE ORBITALS:
atom: Selected multiple-zeta basis: split     

SPLIT: Orbitals with angular momentum L= 0

SPLIT: Basis orbitals for state 1s

SPLIT: PAO cut-off radius determined from an
SPLIT: energy shift=  0.002000 Ry

   izeta = 1
                 lambda =    1.000000
                     rc =    6.518340
                 energy =   -0.475305
                kinetic =    0.912139
    potential(screened) =   -1.387444
       potential(ionic) =   -1.907295

   izeta = 2
                 rmatch =    2.141150
              splitnorm =    0.620000
                 energy =    0.566467
                kinetic =    3.772856
    potential(screened) =   -3.206389
       potential(ionic) =   -3.759093

POLgen: Perturbative polarization orbital with L=  1

POLgen: Polarization orbital for state 1s

   izeta = 1
                     rc =    6.518340
                 energy =    0.533861
                kinetic =    1.121086
    potential(screened) =   -0.587225
       potential(ionic) =   -1.053027
atom: Total number of Sankey-type orbitals:  5

atm_pop: Valence configuration (for local Pseudopot. screening):
 1s( 1.00)                                                            
Vna: chval, zval:    1.00000   1.00000

Vna:  Cut-off radius for the neutral-atom potential:   6.518340

atom: _________________________________________________________________________

<basis_specs>
===============================================================================
N                    Z=   7    Mass=  14.010        Charge= 0.17977+309
Lmxo=1 Lmxkb= 3    BasisType=split      Semic=F
L=0  Nsemic=0  Cnfigmx=2
          i=1  nzeta=2  polorb=0  (2s)
            splnorm:   0.28000    
               vcte:    0.0000    
               rinn:    0.0000    
               qcoe:    0.0000    
               qyuk:    0.0000    
               qwid:   0.10000E-01
                rcs:    0.0000      0.0000    
            lambdas:    1.0000      1.0000    
L=1  Nsemic=0  Cnfigmx=2
          i=1  nzeta=2  polorb=1  (2p)
            splnorm:   0.28000    
               vcte:    0.0000    
               rinn:    0.0000    
               qcoe:    0.0000    
               qyuk:    0.0000    
               qwid:   0.10000E-01
                rcs:    0.0000      0.0000    
            lambdas:    1.0000      1.0000    
-------------------------------------------------------------------------------
L=0  Nkbl=1  erefs: 0.17977+309
L=1  Nkbl=1  erefs: 0.17977+309
L=2  Nkbl=1  erefs: 0.17977+309
L=3  Nkbl=1  erefs: 0.17977+309
===============================================================================
</basis_specs>

atom: Called for N                     (Z =   7)

read_vps: Pseudopotential generation method:
read_vps: ATM4.2.7  Troullier-Martins                       
Valence charge for ps generation:    5.00000

xc_check: Exchange-correlation functional:
xc_check: GGA Perdew, Burke & Ernzerhof 1996
V l=0 = -2*Zval/r beyond r=  1.2889
V l=1 = -2*Zval/r beyond r=  1.2889
V l=2 = -2*Zval/r beyond r=  3.4178
V l=3 = -2*Zval/r beyond r=  2.4084
All V_l potentials equal beyond r=  3.3753
This should be close to max(r_c) in ps generation
All pots = -2*Zval/r beyond r=  3.4178

VLOCAL1: 99.0% of the norm of Vloc inside      3.810 Ry
VLOCAL1: 99.9% of the norm of Vloc inside      8.683 Ry
atom: Maximum radius for 4*pi*r*r*local-pseudopot. charge    4.02088
atom: Maximum radius for r*vlocal+2*Zval:    3.54838
GHOST: No ghost state for L =  0
GHOST: No ghost state for L =  1
GHOST: No ghost state for L =  2
GHOST: No ghost state for L =  3

KBgen: Kleinman-Bylander projectors: 
   l= 0   rc=  3.417763   el= -1.365098   Ekb= -4.433130   kbcos= -0.707855
   l= 1   rc=  3.375302   el= -0.521201   Ekb=-13.264039   kbcos= -0.535594
   l= 2   rc=  3.872880   el=  0.001991   Ekb= -0.641094   kbcos= -0.062456
   l= 3   rc=  3.970931   el=  0.003093   Ekb= -0.474517   kbcos= -0.018236

KBgen: Total number of Kleinman-Bylander projectors:   16
atom: -------------------------------------------------------------------------

atom: SANKEY-TYPE ORBITALS:
atom: Selected multiple-zeta basis: split     

SPLIT: Orbitals with angular momentum L= 0

SPLIT: Basis orbitals for state 2s

SPLIT: PAO cut-off radius determined from an
SPLIT: energy shift=  0.002000 Ry

   izeta = 1
                 lambda =    1.000000
                     rc =    4.730425
                 energy =   -1.363399
                kinetic =    1.245246
    potential(screened) =   -2.608645
       potential(ionic) =   -8.121105

   izeta = 2
                 rmatch =    2.531849
              splitnorm =    0.280000
                 energy =   -0.959908
                kinetic =    2.409435
    potential(screened) =   -3.369343
       potential(ionic) =   -9.427975

SPLIT: Orbitals with angular momentum L= 1

SPLIT: Basis orbitals for state 2p

SPLIT: PAO cut-off radius determined from an
SPLIT: energy shift=  0.002000 Ry

   izeta = 1
                 lambda =    1.000000
                     rc =    5.924108
                 energy =   -0.519262
                kinetic =    3.672940
    potential(screened) =   -4.192202
       potential(ionic) =   -9.518354

   izeta = 2
                 rmatch =    2.531849
              splitnorm =    0.280000
                 energy =   -0.104258
                kinetic =    6.807538
    potential(screened) =   -6.911796
       potential(ionic) =  -13.149920

POLgen: Perturbative polarization orbital with L=  2

POLgen: Polarization orbital for state 2p

   izeta = 1
                     rc =    5.924108
                 energy =    1.427508
                kinetic =    2.872379
    potential(screened) =   -1.444871
       potential(ionic) =   -5.563644
atom: Total number of Sankey-type orbitals: 13

atm_pop: Valence configuration (for local Pseudopot. screening):
 2s( 2.00)                                                            
 2p( 3.00)                                                            
Vna: chval, zval:    5.00000   5.00000

Vna:  Cut-off radius for the neutral-atom potential:   5.924108

atom: _________________________________________________________________________

<basis_specs>
===============================================================================
Si                   Z=  14    Mass=  28.090        Charge= 0.17977+309
Lmxo=1 Lmxkb= 3    BasisType=split      Semic=F
L=0  Nsemic=0  Cnfigmx=3
          i=1  nzeta=2  polorb=0  (3s)
            splnorm:   0.28000    
               vcte:    0.0000    
               rinn:    0.0000    
               qcoe:    0.0000    
               qyuk:    0.0000    
               qwid:   0.10000E-01
                rcs:    0.0000      0.0000    
            lambdas:    1.0000      1.0000    
L=1  Nsemic=0  Cnfigmx=3
          i=1  nzeta=2  polorb=1  (3p)
            splnorm:   0.28000    
               vcte:    0.0000    
               rinn:    0.0000    
               qcoe:    0.0000    
               qyuk:    0.0000    
               qwid:   0.10000E-01
                rcs:    0.0000      0.0000    
            lambdas:    1.0000      1.0000    
-------------------------------------------------------------------------------
L=0  Nkbl=1  erefs: 0.17977+309
L=1  Nkbl=1  erefs: 0.17977+309
L=2  Nkbl=1  erefs: 0.17977+309
L=3  Nkbl=1  erefs: 0.17977+309
===============================================================================
</basis_specs>

atom: Called for Si                    (Z =  14)

read_vps: Pseudopotential generation method:
read_vps: ATM4.2.7  Troullier-Martins                       
Valence charge for ps generation:    4.00000

xc_check: Exchange-correlation functional:
xc_check: GGA Perdew, Burke & Ernzerhof 1996
V l=0 = -2*Zval/r beyond r=  2.7826
V l=1 = -2*Zval/r beyond r=  2.7826
V l=2 = -2*Zval/r beyond r=  2.9253
V l=3 = -2*Zval/r beyond r=  2.7826
All V_l potentials equal beyond r=  2.8530
This should be close to max(r_c) in ps generation
All pots = -2*Zval/r beyond r=  2.9253

VLOCAL1: 99.0% of the norm of Vloc inside      5.333 Ry
VLOCAL1: 99.9% of the norm of Vloc inside     12.154 Ry
atom: Maximum radius for 4*pi*r*r*local-pseudopot. charge    3.39869
atom: Maximum radius for r*vlocal+2*Zval:    2.96205
GHOST: No ghost state for L =  0
GHOST: No ghost state for L =  1
GHOST: No ghost state for L =  2
GHOST: No ghost state for L =  3

KBgen: Kleinman-Bylander projectors: 
   l= 0   rc=  3.075247   el= -0.794092   Ekb=  5.879390   kbcos=  0.167461
   l= 1   rc=  3.153101   el= -0.300068   Ekb=  2.642817   kbcos=  0.058301
   l= 2   rc=  3.273594   el=  0.001958   Ekb= -1.185135   kbcos= -0.104411
   l= 3   rc=  3.232927   el=  0.003046   Ekb= -0.497174   kbcos= -0.015889

KBgen: Total number of Kleinman-Bylander projectors:   16
atom: -------------------------------------------------------------------------

atom: SANKEY-TYPE ORBITALS:
atom: Selected multiple-zeta basis: split     

SPLIT: Orbitals with angular momentum L= 0

SPLIT: Basis orbitals for state 3s

SPLIT: PAO cut-off radius determined from an
SPLIT: energy shift=  0.002000 Ry

   izeta = 1
                 lambda =    1.000000
                     rc =    6.429618
                 energy =   -0.792283
                kinetic =    0.525293
    potential(screened) =   -1.317576
       potential(ionic) =   -3.744923

   izeta = 2
                 rmatch =    3.998416
              splitnorm =    0.280000
                 energy =   -0.583081
                kinetic =    1.069570
    potential(screened) =   -1.652651
       potential(ionic) =   -4.235185

SPLIT: Orbitals with angular momentum L= 1

SPLIT: Basis orbitals for state 3p

SPLIT: PAO cut-off radius determined from an
SPLIT: energy shift=  0.002000 Ry

   izeta = 1
                 lambda =    1.000000
                     rc =    8.464845
                 energy =   -0.298236
                kinetic =    0.785360
    potential(screened) =   -1.083596
       potential(ionic) =   -3.273779

   izeta = 2
                 rmatch =    4.587816
              splitnorm =    0.280000
                 energy =   -0.131871
                kinetic =    1.403687
    potential(screened) =   -1.535557
       potential(ionic) =   -4.015310

POLgen: Perturbative polarization orbital with L=  2

POLgen: Polarization orbital for state 3p

   izeta = 1
                     rc =    8.464845
                 energy =    0.321949
                kinetic =    1.055677
    potential(screened) =   -0.733728
       potential(ionic) =   -2.672950
atom: Total number of Sankey-type orbitals: 13

atm_pop: Valence configuration (for local Pseudopot. screening):
 3s( 2.00)                                                            
 3p( 2.00)                                                            
Vna: chval, zval:    4.00000   4.00000

Vna:  Cut-off radius for the neutral-atom potential:   8.464845

atom: _________________________________________________________________________

<basis_specs>
===============================================================================
O                    Z=   8    Mass=  16.000        Charge= 0.17977+309
Lmxo=1 Lmxkb= 3    BasisType=split      Semic=F
L=0  Nsemic=0  Cnfigmx=2
          i=1  nzeta=2  polorb=0  (2s)
            splnorm:   0.28000    
               vcte:    0.0000    
               rinn:    0.0000    
               qcoe:    0.0000    
               qyuk:    0.0000    
               qwid:   0.10000E-01
                rcs:    0.0000      0.0000    
            lambdas:    1.0000      1.0000    
L=1  Nsemic=0  Cnfigmx=2
          i=1  nzeta=2  polorb=1  (2p)
            splnorm:   0.28000    
               vcte:    0.0000    
               rinn:    0.0000    
               qcoe:    0.0000    
               qyuk:    0.0000    
               qwid:   0.10000E-01
                rcs:    0.0000      0.0000    
            lambdas:    1.0000      1.0000    
-------------------------------------------------------------------------------
L=0  Nkbl=1  erefs: 0.17977+309
L=1  Nkbl=1  erefs: 0.17977+309
L=2  Nkbl=1  erefs: 0.17977+309
L=3  Nkbl=1  erefs: 0.17977+309
===============================================================================
</basis_specs>

atom: Called for O                     (Z =   8)

read_vps: Pseudopotential generation method:
read_vps: ATM4.2.7  Troullier-Martins                       
Valence charge for ps generation:    6.00000

xc_check: Exchange-correlation functional:
xc_check: GGA Perdew, Burke & Ernzerhof 1996
V l=0 = -2*Zval/r beyond r=  1.1000
V l=1 = -2*Zval/r beyond r=  1.1000
V l=2 = -2*Zval/r beyond r=  2.2154
V l=3 = -2*Zval/r beyond r=  1.1000
All V_l potentials equal beyond r=  2.2154
This should be close to max(r_c) in ps generation
All pots = -2*Zval/r beyond r=  2.2154

VLOCAL1: 99.0% of the norm of Vloc inside      8.845 Ry
VLOCAL1: 99.9% of the norm of Vloc inside     20.157 Ry
atom: Maximum radius for 4*pi*r*r*local-pseudopot. charge    2.67231
atom: Maximum radius for r*vlocal+2*Zval:    2.32897
GHOST: No ghost state for L =  0
GHOST: No ghost state for L =  1
GHOST: No ghost state for L =  2
GHOST: No ghost state for L =  3

KBgen: Kleinman-Bylander projectors: 
   l= 0   rc=  2.243238   el= -1.759686   Ekb=**********   kbcos= -0.171774
   l= 1   rc=  2.328968   el= -0.663873   Ekb=-14.506792   kbcos= -0.519897
   l= 2   rc=  2.573941   el=  0.002031   Ekb= -1.137373   kbcos= -0.019581
   l= 3   rc=  2.606321   el=  0.003153   Ekb= -1.013546   kbcos= -0.003122

KBgen: Total number of Kleinman-Bylander projectors:   16
atom: -------------------------------------------------------------------------

atom: SANKEY-TYPE ORBITALS:
atom: Selected multiple-zeta basis: split     

SPLIT: Orbitals with angular momentum L= 0

SPLIT: Basis orbitals for state 2s

SPLIT: PAO cut-off radius determined from an
SPLIT: energy shift=  0.002000 Ry

   izeta = 1
                 lambda =    1.000000
                     rc =    4.243912
                 energy =   -1.758270
                kinetic =    3.286084
    potential(screened) =   -5.044353
       potential(ionic) =  -12.921184

   izeta = 2
                 rmatch =    2.187845
              splitnorm =    0.280000
                 energy =   -0.885018
                kinetic =    8.134434
    potential(screened) =   -9.019452
       potential(ionic) =  -17.710645

SPLIT: Orbitals with angular momentum L= 1

SPLIT: Basis orbitals for state 2p

SPLIT: PAO cut-off radius determined from an
SPLIT: energy shift=  0.002000 Ry

   izeta = 1
                 lambda =    1.000000
                     rc =    5.314825
                 energy =   -0.661986
                kinetic =    4.917472
    potential(screened) =   -5.579458
       potential(ionic) =  -13.236259

   izeta = 2
                 rmatch =    2.160663
              splitnorm =    0.280000
                 energy =   -0.068760
                kinetic =    9.183374
    potential(screened) =   -9.252135
       potential(ionic) =  -18.274251

POLgen: Perturbative polarization orbital with L=  2

POLgen: Polarization orbital for state 2p

   izeta = 1
                     rc =    5.314825
                 energy =    1.970580
                kinetic =    3.886128
    potential(screened) =   -1.915547
       potential(ionic) =   -7.749584
atom: Total number of Sankey-type orbitals: 13

atm_pop: Valence configuration (for local Pseudopot. screening):
 2s( 2.00)                                                            
 2p( 4.00)                                                            
Vna: chval, zval:    6.00000   6.00000

Vna:  Cut-off radius for the neutral-atom potential:   5.314825

atom: _________________________________________________________________________

prinput: Basis input ----------------------------------------------------------

PAO.BasisType split     

%block ChemicalSpeciesLabel
    1    1 H                       # Species index, atomic number, species label
    2    7 N                       # Species index, atomic number, species label
    3   14 Si                      # Species index, atomic number, species label
    4    8 O                       # Species index, atomic number, species label
%endblock ChemicalSpeciesLabel

%block PAO.Basis                 # Define Basis set
H                     1                    # Species label, number of l-shells
 n=1   0   2 P   1                   # n, l, Nzeta, Polarization, NzetaPol
   6.518      2.141   
   1.000      1.000   
N                     2                    # Species label, number of l-shells
 n=2   0   2                         # n, l, Nzeta 
   4.730      2.532   
   1.000      1.000   
 n=2   1   2 P   1                   # n, l, Nzeta, Polarization, NzetaPol
   5.924      2.532   
   1.000      1.000   
Si                    2                    # Species label, number of l-shells
 n=3   0   2                         # n, l, Nzeta 
   6.430      3.998   
   1.000      1.000   
 n=3   1   2 P   1                   # n, l, Nzeta, Polarization, NzetaPol
   8.465      4.588   
   1.000      1.000   
O                     2                    # Species label, number of l-shells
 n=2   0   2                         # n, l, Nzeta 
   4.244      2.188   
   1.000      1.000   
 n=2   1   2 P   1                   # n, l, Nzeta, Polarization, NzetaPol
   5.315      2.161   
   1.000      1.000   
%endblock PAO.Basis

prinput: ----------------------------------------------------------------------

Dumping basis to NetCDF file H.ion.nc
Dumping basis to NetCDF file N.ion.nc
Dumping basis to NetCDF file Si.ion.nc
Dumping basis to NetCDF file O.ion.nc
coor:   Atomic-coordinates input format  =     Cartesian coordinates
coor:                                          (in Angstroms)

siesta: Atomic coordinates (Bohr) and species
siesta:      4.31792  -9.81768   0.00000  1        1
siesta:      2.59711  -8.81503   0.00000  2        2
siesta:     -0.41253 -10.38326   0.00000  3        3
siesta:     -0.33040 -13.20006   0.00000  1        4
siesta:     -3.14019  -8.66630   0.00000  2        5
siesta:     -2.06030  -5.43214   0.00000  3        6
siesta:     -2.89201  -1.33728   0.00000  3        7
siesta:     -5.94160  -0.17360   0.00000  2        8
siesta:     -6.43014   1.81127   0.00000  1        9
siesta:     -7.46581  -1.44982   0.00000  1       10
siesta:     -0.33706   0.78140   0.00000  2       11
siesta:      2.82552  -0.08957   0.00000  3       12
siesta:      4.64124   2.09244   0.00000  1       13
siesta:      4.35491  -2.99662   0.00000  2       14
siesta:      2.09241  -5.37836   0.00000  3       15
siesta:      0.47328  18.59592   0.00000  1       16
siesta:     -1.05497  17.28784   0.00000  2       17
siesta:     -4.18547  18.63545   0.00000  3       18
siesta:     -4.00242  21.49030   0.00000  1       19
siesta:     -7.44743  16.09745   0.00000  3       20
siesta:    -11.89671  16.08236   0.00000  3       21
siesta:    -12.95953  17.47034  -2.27113  1       22
siesta:    -12.46327  13.28728  -0.16286  1       23
siesta:    -12.95974  17.14974   2.43425  1       24
siesta:     -5.69114  12.18464   0.00000  3       25
siesta:     -7.48537   9.74966   0.00000  4       26
siesta:     -2.30674  11.85632   0.00000  2       27
siesta:     -1.68126   9.90545   0.00000  1       28
siesta:      0.16589  14.11369   0.00000  3       29
siesta:      3.12508  13.60867   0.00000  4       30

siesta: System type = molecule  

initatomlists: Number of atoms, orbitals, and projectors:     30   302   403

siesta: ******************** Simulation parameters ****************************
siesta:
siesta: The following are some of the parameters of the simulation.
siesta: A complete list of the parameters used, including default values,
siesta: can be found in file out.fdf
siesta:
redata: Spin configuration                          = spin-orbit
redata: Number of spin components                   = 8
redata: Time-Reversal Symmetry                      = F
redata: Spin spiral                                 = F
############################################################
This spin-orbit implementation uses a local approximation.
From 4.2 and onwards the full non-local approximation is implemented
You are strongly advised to use >=4.2 versions!
############################################################
redata: Long output                                 =   F
redata: Number of Atomic Species                    =        4
redata: Charge density info will appear in .RHO file
redata: Write Mulliken Pop.                         = NO
redata: Matel table size (NRTAB)                    =     1024
redata: Mesh Cutoff                                 =   340.0000 Ry
redata: Net charge of the system                    =     0.0000 |e|
redata: Min. number of SCF Iter                     =        1
redata: Max. number of SCF Iter                     =      200
redata: SCF mix quantity                            = Hamiltonian
redata: Mix DM or H after convergence               =   F
redata: Recompute H after scf cycle                 =   F
redata: Mix DM in first SCF step                    =   T
redata: Write Pulay info on disk                    =   F
redata: New DM Occupancy tolerance                  = 0.000000000001
redata: No kicks to SCF
redata: DM Mixing Weight for Kicks                  =     0.5000
redata: Require Harris convergence for SCF          =   F
redata: Harris energy tolerance for SCF             =     0.000100 eV
redata: Require DM convergence for SCF              =   T
redata: DM tolerance for SCF                        =     0.000008
redata: Require EDM convergence for SCF             =   F
redata: EDM tolerance for SCF                       =     0.001000 eV
redata: Require H convergence for SCF               =   T
redata: Hamiltonian tolerance for SCF               =     0.000001 eV
redata: Require (free) Energy convergence for SCF   =   F
redata: (free) Energy tolerance for SCF             =     0.000100 eV
redata: Using Saved Data (generic)                  =   F
redata: Use continuation files for DM               =   T
redata: Neglect nonoverlap interactions             =   F
redata: Method of Calculation                       = Diagonalization
redata: Electronic Temperature                      =   299.9978 K
redata: Fix the spin of the system                  =   F
redata: Dynamics option                             = Verlet MD run
redata: Initial MD time step                        =        1
redata:   Final MD time step                        =        1
redata: Length of MD time step                      =     0.5000 fs
redata: Initial Temperature of MD run               =     0.0000 K
redata: Perform a MD quench                         =   F
mix.SCF: Pulay mixing                            = Pulay
mix.SCF:    Variant                              = stable
mix.SCF:    History steps                        = 6
mix.SCF:    Linear mixing weight                 =     0.250000
mix.SCF:    Mixing weight                        =     0.250000
mix.SCF:    SVD condition                        = 0.1000E-07
mix.SCF:    Restart steps                        = 24
mix.SCF:    Restart save steps                   = 3
mix.SCF: Spin-component mixing                   all
redata: Save all siesta data in one NC              =   F
redata: ***********************************************************************

%block SCF.Mixers
  Pulay
%endblock SCF.Mixers

%block SCF.Mixer.Pulay
  # Mixing method
  method pulay
  variant stable

  # Mixing options
  weight 0.2500
  weight.linear 0.2500
  history 6
  restart 24
  restart.save 3
%endblock SCF.Mixer.Pulay

Size of DM history Fstack: 3
Total number of electrons:    98.000000
Total ionic charge:    98.000000

* ProcessorY, Blocksize:    2  24


* Orbital distribution balance (max,min):    48    24


Time-reversal symmetry not used.

siesta: k-grid: Number of k-points =     1
siesta: k-grid: Cutoff (effective) =     5.000 Ang
siesta: k-grid: Supercell and displacements
siesta: k-grid:    1   0   0      0.000
siesta: k-grid:    0   1   0      0.000
siesta: k-grid:    0   0   1      0.000

diag: Algorithm                                     = ELPA-1stage
diag: Parallel over k                               =   F
diag: Use parallel 2D distribution                  =   T
diag: Parallel block-size                           = 24
diag: Parallel distribution                         =     2 x     4
diag: Used triangular part                          = Lower
diag: Absolute tolerance                            =  0.100E-15
diag: Orthogonalization factor                      =  0.100E-05
diag: Memory factor                                 =  1.0000


ts: **************************************************************
ts: Save H and S matrices                           =    F
ts: Save DM and EDM matrices                        =    F
ts: Only save the overlap matrix S                  =    F
ts: **************************************************************

************************ Begin: TS CHECKS AND WARNINGS ************************
************************ End: TS CHECKS AND WARNINGS **************************


                     ====================================
                        Begin MD step =      1
                     ====================================

outcoor: Atomic coordinates (Ang):                          
    2.28494382   -5.19529124    0.00000000   1       1  H
    1.37433094   -4.66471070    0.00000000   2       2  N
   -0.21830245   -5.49458215    0.00000000   3       3  Si
   -0.17484108   -6.98516892    0.00000000   1       4  H
   -1.66171682   -4.58600741    0.00000000   2       5  N
   -1.09026419   -2.87456374    0.00000000   3       6  Si
   -1.53038332   -0.70765692    0.00000000   3       7  Si
   -3.14415959   -0.09186471    0.00000000   2       8  N
   -3.40268075    0.95848335    0.00000000   1       9  H
   -3.95073599   -0.76720972    0.00000000   1      10  H
   -0.17836637    0.41349951    0.00000000   2      11  N
    1.49520211   -0.04739960    0.00000000   3      12  Si
    2.45603905    1.10727302    0.00000000   1      13  H
    2.30451743   -1.58574382    0.00000000   2      14  N
    1.10725559   -2.84610319    0.00000000   3      15  Si
    0.25044651    9.84053507    0.00000000   1      16  H
   -0.55826417    9.14832919    0.00000000   2      17  N
   -2.21485401    9.86144929    0.00000000   3      18  Si
   -2.11798884   11.37217450    0.00000000   1      19  H
   -3.94101036    8.51840116    0.00000000   3      20  Si
   -6.29546461    8.51041423    0.00000000   3      21  Si
   -6.85788273    9.24490388   -1.20183078   1      22  H
   -6.59527836    7.03132310   -0.08618332   1      23  H
   -6.85799519    9.07524669    1.28814761   1      24  H
   -3.01161972    6.44782993    0.00000000   3      25  Si
   -3.96108808    5.15929380    0.00000000   4      26  O
   -1.22067485    6.27409446    0.00000000   2      27  N
   -0.88968349    5.24173748    0.00000000   1      28  H
    0.08778337    7.46864088    0.00000000   3      29  Si
    1.65372030    7.20139403    0.00000000   4      30  O

outcell: Unit cell vectors (Ang):
       30.000000    0.000000    0.000000
        0.000000   45.000000    0.000000
        0.000000    0.000000   10.000000

outcell: Cell vector modules (Ang)   :   30.000000   45.000000   10.000000
outcell: Cell angles (23,13,12) (deg):     90.0000     90.0000     90.0000
outcell: Cell volume (Ang**3)        :  13500.0000
<dSpData1D:S at geom step 1
  <sparsity:sparsity for geom step 1
    nrows_g=302 nrows=48 sparsity=.0780 nnzs=7110, refcount: 8>
  <dData1D:(new from dSpData1D) n=7110, refcount: 1>
refcount: 1>
new_DM -- step:     1
Initializing Density Matrix...

Attempting to read DM from file... Failed...
DM filled with atomic data:
<dSpData2D:DM initialized from atoms
  <sparsity:sparsity for geom step 1
    nrows_g=302 nrows=48 sparsity=.0780 nnzs=7110, refcount: 9>
  <dData2D:DM n=7110 m=8, refcount: 1>
refcount: 1>
     spin moment: S , {S} =   56.00000   0.00000   0.00000  56.00000
No. of atoms with KB's overlaping orbs in proc 0. Max # of overlaps:      27     134

Initializing spin-orbit part of the Hamiltonian
  Adding spin-orbit effects for H 
  Adding spin-orbit effects for N 
  Adding spin-orbit effects for Si
  Adding spin-orbit effects for O 


New grid distribution:   1
           1       1:  180    1:  125    1:   15
           2       1:  180    1:  125   16:   30
           3       1:  180    1:  125   31:   45
           4       1:  180    1:  125   46:   60
           5       1:  180  126:  250    1:   15
           6       1:  180  126:  250   16:   30
           7       1:  180  126:  250   31:   45
           8       1:  180  126:  250   46:   60

InitMesh: MESH =   360 x   500 x   120 =    21600000
InitMesh: (bp) =   180 x   250 x    60 =     2700000
InitMesh: Mesh cutoff (required, used) =   340.000   341.206 Ry
ExtMesh (bp) on 0 =   288 x   225 x   123 =     7970400
New grid distribution:   2
           1       1:  159    1:   39    1:   60
           2       1:  151  233:  250    1:   60
           3       1:  159   40:   56    1:   60
           4     160:  180   39:   56    1:   60
           5       1:  151   57:  232    1:   60
           6     152:  180   57:  231    1:   60
           7     160:  180    1:   38    1:   60
           8     152:  180  232:  250    1:   60
New grid distribution:   3
           1     147:  180   58:  217    1:   60
           2       1:  142    1:   35    1:   60
           3       1:  142   36:   57    1:   60
           4     143:  180   33:   57    1:   60
           5       1:  146   58:  221    1:   60
           6       1:  146  222:  250    1:   60
           7     143:  180    1:   32    1:   60
           8     147:  180  218:  250    1:   60
Setting up quadratic distribution...
ExtMesh (bp) on 0 =   267 x   139 x   168 =     6234984
PhiOnMesh: Number of (b)points on node 0 =               372060
PhiOnMesh: nlist on node 0 =              1786520

stepf: Fermi-Dirac step function

siesta: Program's energy decomposition (eV):
siesta: Ebs     =      -619.244663
siesta: Eions   =      3553.971015
siesta: Ena     =       374.984460
siesta: Ekin    =      3171.829671
siesta: Enl     =     -2985.165978
siesta: Eso     =        -0.003879
siesta: Edftu   =         0.000000
siesta: DEna    =       129.786074
siesta: DUscf   =        75.704248
siesta: DUext   =         0.000000
siesta: Exc     =     -1168.804614
siesta: eta*DQ  =         0.000000
siesta: Emadel  =         0.000000
siesta: Emeta   =         0.000000
siesta: Emolmec =         0.000000
siesta: Ekinion =         0.000000
siesta: Eharris =     -3884.550543
siesta: Etot    =     -3955.641032
siesta: FreeEng =     -3955.644332

        iscf     Eharris(eV)        E_KS(eV)     FreeEng(eV)     dDmax    Ef(eV) dHmax(eV)
   scf:    1    -3884.550543    -3955.641032    -3955.644332  0.970543 -4.935232 21.598987
     spin moment: S , {S} =    2.02342  -0.00000  -0.00000   2.02342
timer: Routine,Calls,Time,% = IterSCF        1      10.850  33.01
   scf:    2    -3996.034404    -3988.718449    -3988.718455  0.465877 -4.237875 11.295396
     spin moment: S , {S} =    2.00009   0.00000  -0.00000   2.00009
   scf:    3    -3957.024938    -3985.249268    -3985.283548  0.423700 -4.163386 12.491209
     spin moment: S , {S} =    1.98635  -0.00000  -0.00000   1.98635
   scf:    4    -4002.481120    -3997.289754    -3997.289755  0.246209 -3.855099  7.130973
     spin moment: S , {S} =    0.00011  -0.00000   0.00000   0.00011
   scf:    5    -3998.711211    -3998.070052    -3998.070052  0.036935 -3.730257  4.809790
     spin moment: S , {S} =    0.00006  -0.00000   0.00000   0.00006
   scf:    6    -3998.909343    -3998.487526    -3998.487526  0.028217 -3.703263  2.334726
     spin moment: S , {S} =    0.00003  -0.00000   0.00000   0.00003
   scf:    7    -3998.873187    -3998.675106    -3998.675106  0.022526 -3.767995  0.767694
     spin moment: S , {S} =    0.00001  -0.00000   0.00000   0.00001
   scf:    8    -3998.798901    -3998.735177    -3998.735177  0.011882 -3.805309  0.511049
     spin moment: S , {S} =    0.00000  -0.00000   0.00000   0.00000
   scf:    9    -3998.785353    -3998.759183    -3998.759183  0.007154 -3.820052  0.398642
     spin moment: S , {S} =    0.00000  -0.00000   0.00000   0.00000
   scf:   10    -3998.820274    -3998.780196    -3998.780196  0.023871 -3.852394  0.205362
     spin moment: S , {S} =    0.00000  -0.00000  -0.00000  -0.00000
   scf:   11    -3998.785011    -3998.782744    -3998.782745  0.004294 -3.838006  0.077941
     spin moment: S , {S} =    0.00000  -0.00000  -0.00000  -0.00000
   scf:   12    -3998.783791    -3998.783295    -3998.783296  0.001263 -3.834686  0.044274
     spin moment: S , {S} =    0.00000  -0.00000  -0.00000   0.00000
   scf:   13    -3998.784066    -3998.783676    -3998.783677  0.000945 -3.832356  0.023755
     spin moment: S , {S} =    0.00000  -0.00000  -0.00000   0.00000
   scf:   14    -3998.783998    -3998.783832    -3998.783833  0.000660 -3.831364  0.014903
     spin moment: S , {S} =    0.00000  -0.00000  -0.00000   0.00000
   scf:   15    -3998.784003    -3998.783912    -3998.783914  0.000698 -3.830945  0.008401
     spin moment: S , {S} =    0.00000   0.00000  -0.00000   0.00000
   scf:   16    -3998.783979    -3998.783943    -3998.783944  0.000537 -3.830875  0.003564
     spin moment: S , {S} =    0.00000   0.00000  -0.00000   0.00000
   scf:   17    -3998.783955    -3998.783949    -3998.783950  0.000230 -3.831031  0.003093
     spin moment: S , {S} =    0.00000   0.00000  -0.00000   0.00000
   scf:   18    -3998.783956    -3998.783952    -3998.783953  0.000225 -3.831139  0.001708
     spin moment: S , {S} =    0.00000   0.00000   0.00000   0.00000
   scf:   19    -3998.783954    -3998.783953    -3998.783954  0.000134 -3.831171  0.001241
     spin moment: S , {S} =    0.00000   0.00000   0.00000   0.00000
   scf:   20    -3998.783953    -3998.783953    -3998.783955  0.000064 -3.831189  0.000867
     spin moment: S , {S} =    0.00000   0.00000   0.00000   0.00000
   scf:   21    -3998.783953    -3998.783953    -3998.783955  0.000064 -3.831194  0.000608
     spin moment: S , {S} =    0.00000   0.00000   0.00000   0.00000
   scf:   22    -3998.783953    -3998.783953    -3998.783955  0.000077 -3.831203  0.000257
     spin moment: S , {S} =    0.00000   0.00000   0.00000   0.00000
   scf:   23    -3998.783953    -3998.783953    -3998.783955  0.000036 -3.831205  0.000144
     spin moment: S , {S} =    0.00000   0.00000   0.00000   0.00000
   scf:   24    -3998.783953    -3998.783953    -3998.783955  0.000021 -3.831203  0.000063
     spin moment: S , {S} =    0.00000   0.00000   0.00000  -0.00000
mix: Pulay -- resetting history
   scf:   25    -3998.783953    -3998.783953    -3998.783955  0.000011 -3.831200  0.000036
     spin moment: S , {S} =    0.00000   0.00000   0.00000  -0.00000
   scf:   26    -3998.783953    -3998.783953    -3998.783955  0.000003 -3.831199  0.000027
     spin moment: S , {S} =    0.00000   0.00000   0.00000  -0.00000
   scf:   27    -3998.783953    -3998.783953    -3998.783955  0.000002 -3.831198  0.000015
     spin moment: S , {S} =    0.00000   0.00000   0.00000  -0.00000
   scf:   28    -3998.783953    -3998.783953    -3998.783955  0.000002 -3.831198  0.000006
     spin moment: S , {S} =    0.00000  -0.00000   0.00000   0.00000
   scf:   29    -3998.783953    -3998.783953    -3998.783955  0.000000 -3.831199  0.000004
     spin moment: S , {S} =    0.00000  -0.00000   0.00000   0.00000
   scf:   30    -3998.783953    -3998.783953    -3998.783955  0.000000 -3.831199  0.000002
     spin moment: S , {S} =    0.00000   0.00000   0.00000  -0.00000
   scf:   31    -3998.783953    -3998.783953    -3998.783955  0.000000 -3.831199  0.000002
     spin moment: S , {S} =    0.00000   0.00000   0.00000  -0.00000
   scf:   32    -3998.783953    -3998.783953    -3998.783955  0.000000 -3.831198  0.000001
     spin moment: S , {S} =    0.00000   0.00000   0.00000   0.00000

SCF Convergence by DM+H criterion
max |DM_out - DM_in|         :     0.0000000703
max |H_out - H_in|      (eV) :     0.0000009402
SCF cycle converged after 32 iterations

Using DM_out to compute the final energy and forces
No. of atoms with KB's overlaping orbs in proc 0. Max # of overlaps:      27     134

siesta: E_KS(eV) =            -3998.7840

siesta: E_KS - E_eggbox =     -3998.7840
     spin moment: S , {S} =    0.00000   0.00000   0.00000   0.00000

siesta: Atomic forces (eV/Ang):
     1    0.142943   -0.027932   -0.000000
     2   -0.033310    0.042582    0.000000
     3   -0.030373   -0.017541   -0.000000
     4    0.068465   -0.134448    0.000000
     5    0.053608    0.005998   -0.000000
     6   -0.184599    0.017757    0.000000
     7    1.022789   -0.031891   -0.000001
     8   -0.627925    1.403392    0.000001
     9    0.158466   -0.978388   -0.000002
    10   -0.109068    0.134283    0.000001
    11   -0.177399   -0.357215    0.000001
    12   -0.275016    0.041723   -0.000000
    13   -0.122943   -0.049735    0.000000
    14    0.031839   -0.111256   -0.000000
    15    0.105016    0.092121    0.000000
    16   -0.088577   -0.122113   -0.000950
    17    0.032778   -0.083125   -0.000790
    18   -0.139308    0.037602    0.005205
    19    0.081109   -0.141750   -0.001429
    20    0.119237    0.076313   -0.001094
    21    0.059954   -0.023953   -0.006865
    22    0.082175    0.024924    0.120186
    23    0.104231   -0.026791    0.003562
    24    0.080309    0.068320   -0.095916
    25   -0.620055   -0.400212    0.001043
    26   -0.450807   -4.505993    0.000502
    27    0.330692   -0.447938   -0.000553
    28   -0.196015    0.669634   -0.000074
    29    0.149478    0.158101   -0.000219
    30    1.270618   -0.257997    0.000259
----------------------------------------
   Tot    0.838309   -4.945529    0.022864
----------------------------------------
   Max    4.505993
   Res    0.563016    sqrt( Sum f_i^2 / 3N )
----------------------------------------
   Max    4.505993    constrained

Stress tensor Voigt[x,y,z,yz,xz,xy] (kbar):        0.13        0.28       -0.01       -0.01        0.00        0.12
(Free)E + p*V (eV/cell)    -3999.9074
Target enthalpy (eV/cell)    -3998.7840

siesta: Stress tensor (static) (eV/Ang**3):
         0.000082    0.000073    0.000000
         0.000073    0.000175   -0.000004
         0.000000   -0.000004   -0.000008

siesta: Pressure (static):         -0.13332575  kBar

siesta: Stress tensor (total) (eV/Ang**3):
         0.000082    0.000073    0.000000
         0.000073    0.000175   -0.000004
         0.000000   -0.000004   -0.000008

siesta: Pressure (total):         -0.13332575  kBar

siesta: Temp_ion =       0.000 K

siesta: Eigenvalues (eV):
ik =     1
  -22.8352  -22.8352  -22.3339  -22.3339  -21.7132  -21.7132  -21.2604  -21.2604  -20.9946  -20.9946
  -20.8811  -20.8811  -19.3746  -19.3746  -19.2078  -19.2078  -18.5892  -18.5892  -15.0137  -15.0137
  -14.1022  -14.1022  -13.6189  -13.6189  -13.5525  -13.5525  -13.0634  -13.0634  -12.8618  -12.8618
  -12.4993  -12.4993  -12.1051  -12.1051  -11.8963  -11.8963  -11.5772  -11.5772  -11.4694  -11.4694
  -10.9480  -10.9480  -10.6026  -10.6026  -10.1759  -10.1759   -9.5422   -9.5422   -9.3213   -9.3213
   -9.1292   -9.1292   -9.0953   -9.0953   -9.0057   -9.0057   -8.7687   -8.7687   -8.5853   -8.5853
   -8.3825   -8.3825   -8.2132   -8.2132   -8.1059   -8.1059   -7.9906   -7.9906   -7.8905   -7.8905
   -7.7255   -7.7255   -7.3612   -7.3612   -7.2780   -7.2780   -7.2532   -7.2532   -6.8170   -6.8170
   -6.8065   -6.8065   -6.7119   -6.7119   -6.3782   -6.3782   -6.2811   -6.2811   -6.1476   -6.1476
   -5.7795   -5.7795   -5.6941   -5.6941   -5.5220   -5.5220   -4.1853   -4.1853   -3.4771   -3.4771
   -2.6891   -2.6891   -2.1896   -2.1896   -2.1440   -2.1440   -2.1071   -2.1071   -1.9778   -1.9778
   -1.9172   -1.9172   -1.6867   -1.6867   -1.6142   -1.6142   -1.5599   -1.5599   -1.3743   -1.3743
   -1.1396   -1.1396   -0.5350   -0.5350   -0.2832   -0.2832   -0.1788   -0.1788   -0.1715   -0.1715
   -0.0124   -0.0124    0.0582    0.0582    0.2605    0.2605    0.5414    0.5414    0.6040    0.6040
    0.6755    0.6755    0.7610    0.7610    1.2169    1.2169    1.3044    1.3044    1.3544    1.3544
    1.4566    1.4566    1.5792    1.5792    1.9534    1.9534    1.9828    1.9828    2.2136    2.2136
    2.4710    2.4710    2.7206    2.7206    2.8172    2.8172    2.8758    2.8758    2.8791    2.8791
    3.1073    3.1073    3.1084    3.1084    3.2300    3.2300    3.2611    3.2611    3.3319    3.3319
    3.7116    3.7116    3.9252    3.9252    4.2225    4.2225    4.2492    4.2492    4.2639    4.2639
    4.3910    4.3910    4.7252    4.7252    4.7451    4.7451    4.8170    4.8170    5.0813    5.0813
    5.1077    5.1077    5.2491    5.2491    5.5633    5.5633    5.7206    5.7206    5.7935    5.7935
    5.9256    5.9256    6.0727    6.0727    6.1967    6.1967    6.2371    6.2371    6.3542    6.3542
    6.6050    6.6050    6.6814    6.6814    6.8299    6.8299    7.0592    7.0592    7.2492    7.2492
    7.2881    7.2881    7.5188    7.5188    7.6798    7.6798    7.8602    7.8602    7.9720    7.9720
    8.0417    8.0417    8.1891    8.1891    8.4093    8.4093    8.4168    8.4168    8.7024    8.7024
    8.9613    8.9613    8.9900    8.9900    9.0659    9.0659    9.3260    9.3260    9.6185    9.6185
    9.7012    9.7012    9.8100    9.8100    9.8842    9.8842    9.9497    9.9497    9.9679    9.9679
   10.1781   10.1781   10.4773   10.4773   10.6945   10.6945   10.9554   10.9554   11.0383   11.0383
   11.3041   11.3041   11.4601   11.4601   11.6318   11.6318   11.7185   11.7185   11.7583   11.7583
   11.9430   11.9430   12.3545   12.3545   12.3701   12.3701   12.4286   12.4286   12.6317   12.6317
   12.9552   12.9552   12.9732   12.9732   13.0633   13.0633   13.3248   13.3248   13.3745   13.3745
   13.5318   13.5318   13.7774   13.7774   14.5096   14.5096   14.6594   14.6594   14.8010   14.8010
   14.8531   14.8531   14.9790   14.9790   15.1509   15.1509   16.1096   16.1096   16.5581   16.5581
   16.8321   16.8321   16.9510   16.9510   17.0288   17.0288   17.1770   17.1770   17.5030   17.5030
   18.2583   18.2583   18.2757   18.2757   18.6097   18.6097   18.7663   18.7663   18.8798   18.8798
   18.9266   18.9266   19.5455   19.5455   19.9260   19.9260   20.0301   20.0301   20.2514   20.2514
   20.7615   20.7615   21.0951   21.0951   21.2331   21.2331   21.6978   21.6978   22.2872   22.2872
   22.3448   22.3448   22.8904   22.8904   23.0288   23.0288   23.2305   23.2305   23.8347   23.8347
   24.5900   24.5900   24.8315   24.8315   24.8900   24.8900   25.8430   25.8430   25.9341   25.9341
   26.1731   26.1731   26.5658   26.5658   26.6433   26.6433   27.7584   27.7584   28.0426   28.0426
   28.5140   28.5140   28.5660   28.5660   29.4168   29.4168   29.5416   29.5416   30.5055   30.5055
   30.8295   30.8295   30.8873   30.8873   31.0105   31.0105   31.4279   31.4279   31.7103   31.7103
   31.7908   31.7908   32.1087   32.1087   32.1960   32.1960   33.4129   33.4129   33.4862   33.4862
   33.7608   33.7608   34.0955   34.0955   34.4802   34.4802   34.8897   34.8897   34.9583   34.9583
   35.6192   35.6192   36.0242   36.0242   36.2032   36.2032   37.2252   37.2252   37.5189   37.5189
   37.6521   37.6521   37.9518   37.9518   38.2082   38.2082   38.4698   38.4698   38.5031   38.5031
   39.1540   39.1540   40.3024   40.3024   40.3808   40.3808   40.7533   40.7533   41.3730   41.3730
   41.7471   41.7471   41.9118   41.9118   42.0264   42.0264   43.3587   43.3587   43.5202   43.5202
   43.9629   43.9629   44.5372   44.5372   44.8441   44.8441   45.1363   45.1363   45.2270   45.2270
   45.6775   45.6775   45.7484   45.7484   46.1864   46.1864   46.6572   46.6572   47.0829   47.0829
   47.1370   47.1370   47.5406   47.5406   48.6787   48.6787   48.8568   48.8568   49.3840   49.3840
   49.8069   49.8069   50.2383   50.2383   50.3418   50.3418   50.3610   50.3610   50.5300   50.5300
   51.7631   51.7631   52.7192   52.7192   52.8205   52.8205   54.0212   54.0212   54.4419   54.4419
   54.8464   54.8464   54.9580   54.9580   56.0028   56.0028   56.2889   56.2889   56.3053   56.3053
   57.0344   57.0344   57.8727   57.8727   58.0267   58.0267   58.5612   58.5612   59.7419   59.7419
   60.2755   60.2755   61.2938   61.2938   61.7851   61.7851   62.8829   62.8829   63.4353   63.4353
   65.3401   65.3401   65.4906   65.4906   67.1064   67.1064   67.3451   67.3451   68.4548   68.4548
   68.5281   68.5281   70.6268   70.6268   72.0544   72.0544   76.7061   76.7061   88.6965   88.6965
   91.9891   91.9891   93.1254   93.1254   95.1477   95.1477   96.5599   96.5599  100.2309  100.2309
  100.9213  100.9213  102.6400  102.6400  114.4397  114.4397  118.4337  118.4337  123.3397  123.3397
  132.5395  132.5395  138.9133  138.9133
siesta: Fermi energy =      -3.831198 eV

siesta: Program's energy decomposition (eV):
siesta: Ebs     =     -1109.295693
siesta: Eions   =      3553.971015
siesta: Ena     =       374.984460
siesta: Ekin    =      2743.124325
siesta: Enl     =     -2522.808450
siesta: Eso     =        -0.004663
siesta: Edftu   =         0.000000
siesta: DEna    =        36.874963
siesta: DUscf   =        13.887316
siesta: DUext   =         0.000000
siesta: Exc     =     -1090.870889
siesta: eta*DQ  =         0.000000
siesta: Emadel  =         0.000000
siesta: Emeta   =         0.000000
siesta: Emolmec =         0.000000
siesta: Ekinion =         0.000000
siesta: Eharris =     -3998.783953
siesta: Etot    =     -3998.783953
siesta: FreeEng =     -3998.783955

siesta: Final energy (eV):
siesta:  Band Struct. =   -1109.295693
siesta:       Kinetic =    2743.124325
siesta:       Hartree =   12850.581326
siesta:       Edftu   =       0.000000
siesta:       Eso     =      -0.004663
siesta:    Ext. field =       0.000000
siesta:   Exch.-corr. =   -1090.870889
siesta:  Ion-electron =  -28137.839048
siesta:       Ion-ion =    9636.224996
siesta:       Ekinion =       0.000000
siesta:         Total =   -3998.783953
siesta:         Fermi =      -3.831198

siesta: Atomic forces (eV/Ang):
siesta:      1    0.142943   -0.027932   -0.000000
siesta:      2   -0.033310    0.042582    0.000000
siesta:      3   -0.030373   -0.017541   -0.000000
siesta:      4    0.068465   -0.134448    0.000000
siesta:      5    0.053608    0.005998   -0.000000
siesta:      6   -0.184599    0.017757    0.000000
siesta:      7    1.022789   -0.031891   -0.000001
siesta:      8   -0.627925    1.403392    0.000001
siesta:      9    0.158466   -0.978388   -0.000002
siesta:     10   -0.109068    0.134283    0.000001
siesta:     11   -0.177399   -0.357215    0.000001
siesta:     12   -0.275016    0.041723   -0.000000
siesta:     13   -0.122943   -0.049735    0.000000
siesta:     14    0.031839   -0.111256   -0.000000
siesta:     15    0.105016    0.092121    0.000000
siesta:     16   -0.088577   -0.122113   -0.000950
siesta:     17    0.032778   -0.083125   -0.000790
siesta:     18   -0.139308    0.037602    0.005205
siesta:     19    0.081109   -0.141750   -0.001429
siesta:     20    0.119237    0.076313   -0.001094
siesta:     21    0.059954   -0.023953   -0.006865
siesta:     22    0.082175    0.024924    0.120186
siesta:     23    0.104231   -0.026791    0.003562
siesta:     24    0.080309    0.068320   -0.095916
siesta:     25   -0.620055   -0.400212    0.001043
siesta:     26   -0.450807   -4.505993    0.000502
siesta:     27    0.330692   -0.447938   -0.000553
siesta:     28   -0.196015    0.669634   -0.000074
siesta:     29    0.149478    0.158101   -0.000219
siesta:     30    1.270618   -0.257997    0.000259
siesta: ----------------------------------------
siesta:    Tot    0.838309   -4.945529    0.022864

siesta: Stress tensor (static) (eV/Ang**3):
siesta:     0.000082    0.000073    0.000000
siesta:     0.000073    0.000175   -0.000004
siesta:     0.000000   -0.000004   -0.000008

siesta: Cell volume =      13500.000000 Ang**3

siesta: Pressure (static):
siesta:                Solid            Molecule  Units
siesta:          -0.00000091          0.00000175  Ry/Bohr**3
siesta:          -0.00008321          0.00016037  eV/Ang**3
siesta:          -0.13332575          0.25694629  kBar
(Free)E+ p_basis*V_orbitals  =       -3977.655870
(Free)Eharris+ p_basis*V_orbitals  =       -3977.655870
     spin moment: S , {S} =    0.00000   0.00000   0.00000   0.00000

siesta: Electric dipole (a.u.)  =   -1.162657    1.586641   -0.001830
siesta: Electric dipole (Debye) =   -2.955182    4.032842   -0.004651

cite: Please see "AT.bib" for an exhaustive BiBTeX file.
cite: Please clearly indicate Siesta version in published work: v4.1.5-1-g384057250
cite: This calculation has made use of the following articles
cite: which are encouraged to be cited in a published work.
        Primary SIESTA paper
          DOI: www.doi.org/10.1088/0953-8984/14/11/302
        Spin-orbit coupling (on-site approximation)
          DOI: www.doi.org/10.1088/0953-8984/19/19/489001


WARNING: alloc-realloc-dealloc name mismatch
         Name: atomlist isa
         Size:              -120. Bytes
         Node:     0
         Subsequent mismatches will not be reported
>> End of run:   1-FEB-2024  19:23:43
Job completed
