<?xml version="1.0" encoding="UTF-8" ?>
<psml version="1.1" energy_unit="hartree" length_unit="bohr"
 uuid="b74f6fe0-3f1e-11ef-7a51-7d54ff05ffac"
 xmlns="http://esl.cecam.org/PSML/ns/1.1">
<provenance creator="ATM4.2.7" date="11-JUL-24">
<annotation action="semilocal-pseudopotential-generation" />
<input-file name="INP">
<![CDATA[   pg  C
        tm2    2.000
   C    vwr 00000000
       0.0
    1    3
    2    0     1.000     1.000
    2    1     1.000     1.000
    3    2     0.000     0.000
   1.09653   0.72393   1.85279   0.00000   1.00000   0.00000
]]>
</input-file>
</provenance>
<pseudo-atom-spec atomic-label="C" atomic-number="6" z-pseudo="4"
 flavor="Troullier-Martins" relativity="dirac" spin-dft="no"
 core-corrections="no">
<annotation pseudo-energy="-5.40807639087" />
<exchange-correlation>
<annotation atom-xc-code="vw" siesta-xc-type="VDW" siesta-xc-authors="DRSLL" />
<libxc-info number-of-functionals="2">
<functional name="XC_GGA_X_OPTB88_VDW" type="XC_EXCHANGE" id="139" />
<functional name="XC_NOT_IMPL" type="XC_EXCHANGE_CORRELATION" id="-1" />
</libxc-info>
</exchange-correlation>
<valence-configuration total-valence-charge="4">
<shell n="2" l="s" occupation="2" />
<shell n="2" l="p" occupation="2" />
</valence-configuration>
</pseudo-atom-spec>
<grid npts="376">
<annotation type="sampled-log-atom"
 recipe="r(i:1..N) = a*(exp(b*(i-1))-1); resampled"
 recipe-cont="a: scale; b: step" scale="0.413125362778E-03"
 step="0.125000000000E-01" delta="0.500000000000E-02" rmax="20" />
<grid-data>
  0.000000000000E+00  5.011754802073E-03  1.010916406402E-02  1.528428587985E-02
  2.051294588609E-02  2.579306902283E-02  3.080490455088E-02  3.585705078143E-02
  4.120333662099E-02  4.674450415624E-02  5.235966953373E-02  5.790983282241E-02
  6.324301618788E-02  6.906387791697E-02  7.447503532343E-02  8.030763612978E-02
  8.551367796568E-02  9.105548065289E-02  9.695469890584E-02  1.032343840481E-01
  1.085485054922E-01  1.141350877691E-01  1.200081002442E-01  1.261822285081E-01
  1.326729110971E-01  1.377583943340E-01  1.430382040414E-01  1.485197658220E-01
  1.542107890253E-01  1.601192775907E-01  1.662535413039E-01  1.726222074842E-01
  1.792342331180E-01  1.860989174560E-01  1.932259150919E-01  2.006252495407E-01
  2.057145602314E-01  2.109327074357E-01  2.162829526653E-01  2.217686399978E-01
  2.273931981662E-01  2.331601427026E-01  2.390730781349E-01  2.451357002404E-01
  2.513517983552E-01  2.577252577429E-01  2.642600620232E-01  2.709602956615E-01
  2.778301465218E-01  2.848739084847E-01  2.920959841306E-01  2.995008874919E-01
  3.070932468743E-01  3.148778077495E-01  3.228594357215E-01  3.310431195676E-01
  3.394339743566E-01  3.480372446459E-01  3.568583077594E-01  3.659026771488E-01
  3.751760058394E-01  3.846840899635E-01  3.944328723831E-01  4.044284464046E-01
  4.095207264967E-01  4.146770595872E-01  4.198982513636E-01  4.251851176477E-01
  4.305384845232E-01  4.359591884645E-01  4.414480764677E-01  4.470060061826E-01
  4.526338460471E-01  4.583324754226E-01  4.641027847315E-01  4.699456755965E-01
  4.758620609811E-01  4.818528653325E-01  4.879190247262E-01  4.940614870118E-01
  5.002812119616E-01  5.065791714203E-01  5.129563494569E-01  5.194137425184E-01
  5.259523595855E-01  5.325732223306E-01  5.392773652769E-01  5.460658359603E-01
  5.529396950933E-01  5.599000167303E-01  5.669478884357E-01  5.740844114538E-01
  5.813107008809E-01  5.886278858393E-01  5.960371096542E-01  6.035395300317E-01
  6.111363192404E-01  6.188286642941E-01  6.266177671372E-01  6.345048448330E-01
  6.424911297534E-01  6.505778697716E-01  6.587663284573E-01  6.670577852738E-01
  6.754535357780E-01  6.839548918231E-01  6.925631817632E-01  7.012797506612E-01
  7.101059604987E-01  7.190431903889E-01  7.280928367922E-01  7.372563137342E-01
  7.465350530269E-01  7.559305044921E-01  7.654441361883E-01  7.750774346398E-01
  7.848319050690E-01  7.947090716318E-01  8.047104776556E-01  8.148376858804E-01
  8.250922787031E-01  8.354758584246E-01  8.459900475006E-01  8.566364887943E-01
  8.674168458339E-01  8.783328030721E-01  8.893860661494E-01  9.005783621608E-01
  9.119114399251E-01  9.233870702589E-01  9.350070462527E-01  9.467731835515E-01
  9.586873206382E-01  9.707513191208E-01  9.829670640237E-01  9.953364640819E-01
  1.007861452039E+00  1.020543984951E+00  1.033386044488E+00  1.046389637249E+00
  1.059556795071E+00  1.072889575350E+00  1.086390061359E+00  1.100060362577E+00
  1.113902615017E+00  1.127918981558E+00  1.142111652287E+00  1.156482844837E+00
  1.171034804735E+00  1.185769805757E+00  1.200690150274E+00  1.215798169622E+00
  1.231096224459E+00  1.246586705138E+00  1.262272032077E+00  1.278154656141E+00
  1.294237059022E+00  1.310521753628E+00  1.327011284476E+00  1.343708228089E+00
  1.360615193398E+00  1.377734822151E+00  1.395069789325E+00  1.412622803543E+00
  1.430396607500E+00  1.448393978389E+00  1.466617728335E+00  1.485070704837E+00
  1.503755791210E+00  1.522675907036E+00  1.541834008622E+00  1.561233089460E+00
  1.580876180697E+00  1.600766351605E+00  1.620906710064E+00  1.641300403046E+00
  1.661950617106E+00  1.682860578884E+00  1.704033555602E+00  1.725472855583E+00
  1.747181828758E+00  1.769163867202E+00  1.791422405650E+00  1.813960922046E+00
  1.836782938077E+00  1.859892019732E+00  1.883291777850E+00  1.906985868692E+00
  1.930977994508E+00  1.955271904115E+00  1.979871393487E+00  2.004780306344E+00
  2.030002534754E+00  2.055542019743E+00  2.081402751905E+00  2.107588772034E+00
  2.134104171748E+00  2.160953094132E+00  2.188139734386E+00  2.215668340476E+00
  2.243543213804E+00  2.271768709876E+00  2.300349238982E+00  2.329289266888E+00
  2.358593315533E+00  2.388265963734E+00  2.418311847902E+00  2.448735662769E+00
  2.479542162116E+00  2.510736159523E+00  2.542322529114E+00  2.574306206324E+00
  2.606692188669E+00  2.639485536522E+00  2.672691373913E+00  2.706314889320E+00
  2.740361336487E+00  2.774836035239E+00  2.809744372319E+00  2.845091802225E+00
  2.880883848065E+00  2.917126102420E+00  2.953824228214E+00  2.990983959606E+00
  3.028611102878E+00  3.066711537348E+00  3.105291216287E+00  3.144356167848E+00
  3.183912496009E+00  3.223966381527E+00  3.264524082903E+00  3.305591937361E+00
  3.347176361835E+00  3.389283853978E+00  3.431920993170E+00  3.475094441551E+00
  3.518810945061E+00  3.563077334491E+00  3.607900526556E+00  3.653287524970E+00
  3.699245421544E+00  3.745781397293E+00  3.792902723558E+00  3.840616763142E+00
  3.888930971461E+00  3.937852897708E+00  3.987390186033E+00  4.037550576739E+00
  4.088341907489E+00  4.139772114531E+00  4.191849233940E+00  4.244581402872E+00
  4.297976860836E+00  4.352043950980E+00  4.406791121398E+00  4.462226926445E+00
  4.518360028080E+00  4.575199197214E+00  4.632753315082E+00  4.691031374633E+00
  4.750042481932E+00  4.809795857584E+00  4.870300838176E+00  4.931566877735E+00
  4.993603549203E+00  5.056420545938E+00  5.120027683221E+00  5.184434899798E+00
  5.249652259429E+00  5.315689952456E+00  5.382558297406E+00  5.450267742592E+00
  5.518828867753E+00  5.588252385704E+00  5.658549144012E+00  5.729730126687E+00
  5.801806455904E+00  5.874789393735E+00  5.948690343913E+00  6.023520853612E+00
  6.099292615250E+00  6.176017468321E+00  6.253707401237E+00  6.332374553211E+00
  6.412031216143E+00  6.492689836549E+00  6.574363017504E+00  6.657063520608E+00
  6.740804267982E+00  6.825598344289E+00  6.911458998776E+00  6.998399647344E+00
  7.086433874648E+00  7.175575436213E+00  7.265838260591E+00  7.357236451531E+00
  7.449784290187E+00  7.543496237347E+00  7.638386935693E+00  7.734471212089E+00
  7.831764079900E+00  7.930280741335E+00  8.030036589820E+00  8.131047212412E+00
  8.233328392226E+00  8.336896110903E+00  8.441766551110E+00  8.547956099068E+00
  8.655481347109E+00  8.764359096272E+00  8.874606358927E+00  8.986240361432E+00
  9.099278546828E+00  9.213738577561E+00  9.329638338245E+00  9.446995938451E+00
  9.565829715545E+00  9.686158237545E+00  9.808000306028E+00  9.931374959066E+00
  1.005630147420E+01  1.018279937145E+01  1.031088841637E+01  1.044058862313E+01
  1.057192025766E+01  1.070490384079E+01  1.083956015147E+01  1.097591023004E+01
  1.111397538146E+01  1.125377717869E+01  1.139533746606E+01  1.153867836265E+01
  1.168382226575E+01  1.183079185441E+01  1.197961009291E+01  1.213030023442E+01
  1.228288582457E+01  1.243739070517E+01  1.259383901793E+01  1.275225520820E+01
  1.291266402885E+01  1.307509054407E+01  1.323956013335E+01  1.340609849538E+01
  1.357473165213E+01  1.374548595287E+01  1.391838807831E+01  1.409346504475E+01
  1.427074420834E+01  1.445025326929E+01  1.463202027626E+01  1.481607363073E+01
  1.500244209139E+01  1.519115477871E+01  1.538224117941E+01  1.557573115115E+01
  1.577165492712E+01  1.597004312082E+01  1.617092673079E+01  1.637433714552E+01
  1.658030614829E+01  1.678886592219E+01  1.700004905509E+01  1.721388854479E+01
  1.743041780416E+01  1.764967066632E+01  1.787168138998E+01  1.809648466477E+01
  1.832411561666E+01  1.855460981344E+01  1.878800327032E+01  1.902433245547E+01
  1.926363429584E+01  1.950594618280E+01  1.975130597809E+01  1.999975201968E+01
</grid-data>
</grid>
<valence-charge total-charge="4" is-unscreening-charge="yes"
 rescaled-to-z-pseudo="no">
<radfunc>
<data>
  6.107827876406E-01  6.115390318710E-01  6.138581983779E-01  6.178071226057E-01
  6.234202951410E-01  6.307329160148E-01  6.391885833117E-01  6.491887903773E-01
  6.613643771674E-01  6.756852231035E-01  6.919306452874E-01  7.096653022874E-01
  7.282395885134E-01  7.501800811244E-01  7.720903524230E-01  7.972846638144E-01
  8.211045098531E-01  8.477855242362E-01  8.776221093936E-01  9.109248290156E-01
  9.402794482551E-01  9.722280660681E-01  1.006940280757E+00  1.044583161225E+00
  1.085317353605E+00  1.117987135316E+00  1.152537220275E+00  1.189017670612E+00
  1.227469742914E+00  1.267923851745E+00  1.310397319065E+00  1.354891918346E+00
  1.401391232905E+00  1.449857861684E+00  1.500230522644E+00  1.552421124430E+00
  1.588167973970E+00  1.624628342448E+00  1.661752731636E+00  1.699484645449E+00
  1.737760360862E+00  1.776508763195E+00  1.815651259809E+00  1.855101787263E+00
  1.894766927683E+00  1.934546150521E+00  1.974332195813E+00  2.014011614492E+00
  2.053465480000E+00  2.092570283410E+00  2.131199021218E+00  2.169222480943E+00
  2.206510724443E+00  2.242934762457E+00  2.278368406266E+00  2.312690273526E+00
  2.345785915482E+00  2.377550022032E+00  2.407888649815E+00  2.436721407048E+00
  2.463983517735E+00  2.489627677689E+00  2.513625606203E+00  2.535969190942E+00
  2.546523751935E+00  2.556671120383E+00  2.566416135190E+00  2.575764898628E+00
  2.584724736058E+00  2.593304142357E+00  2.601512714480E+00  2.609361069704E+00
  2.616860749163E+00  2.624024106421E+00  2.630864180948E+00  2.637394556482E+00
  2.643629204454E+00  2.649582312794E+00  2.655268100635E+00  2.660700619645E+00
  2.665893542953E+00  2.670859942856E+00  2.675612058831E+00  2.680161057597E+00
  2.684516787390E+00  2.688687528889E+00  2.692679745681E+00  2.696497837513E+00
  2.700143900048E+00  2.703617495249E+00  2.706915437019E+00  2.710031597105E+00
  2.712956736727E+00  2.715678369732E+00  2.718180663308E+00  2.720444382419E+00
  2.722446884002E+00  2.724162166587E+00  2.725560980234E+00  2.726611000427E+00
  2.727277067707E+00  2.727521492181E+00  2.727304418489E+00  2.726584242090E+00
  2.725318061694E+00  2.723462144994E+00  2.720972375319E+00  2.717804635114E+00
  2.713915067823E+00  2.709260142519E+00  2.703796453482E+00  2.697480395623E+00
  2.690268253185E+00  2.682116764714E+00  2.672983470565E+00  2.662827207130E+00
  2.651608595941E+00  2.639290541690E+00  2.625838738684E+00  2.611222176222E+00
  2.595413635297E+00  2.578390167782E+00  2.560133547919E+00  2.540630685298E+00
  2.519873987857E+00  2.497861663225E+00  2.474597946796E+00  2.450093245528E+00
  2.424364187486E+00  2.397433568795E+00  2.369330191898E+00  2.340088592338E+00
  2.309748652465E+00  2.278355104734E+00  2.245956941909E+00  2.212606743248E+00
  2.178359935483E+00  2.143274021108E+00  2.107407808027E+00  2.070820686263E+00
  2.033572007192E+00  1.995720631699E+00  1.957324726322E+00  1.918441877299E+00
  1.879129416941E+00  1.839444511955E+00  1.799443909527E+00  1.759183870189E+00
  1.718720017918E+00  1.678107213589E+00  1.637399436813E+00  1.596649651912E+00
  1.555909685722E+00  1.515230129785E+00  1.474660225158E+00  1.434247773640E+00
  1.394039064440E+00  1.354078796984E+00  1.314410008548E+00  1.275074015197E+00
  1.236110354208E+00  1.197556735445E+00  1.159448998670E+00  1.121821076831E+00
  1.084704966490E+00  1.048130707879E+00  1.012126365801E+00  9.767180171324E-01
  9.419297415147E-01  9.077836235886E-01  8.742997904181E-01  8.414964344062E-01
  8.093898309428E-01  7.779943725468E-01  7.473225976692E-01  7.173852258775E-01
  6.881911963860E-01  6.597477100253E-01  6.320602722230E-01  6.051327367933E-01
  5.789673527729E-01  5.535648384103E-01  5.289244837566E-01  5.050442003549E-01
  4.819205459410E-01  4.595488256379E-01  4.379231339937E-01  4.170364257079E-01
  3.968805780112E-01  3.774464556209E-01  3.587239676283E-01  3.407021447109E-01
  3.233692331037E-01  3.067127662685E-01  2.907196259651E-01  2.753761061169E-01
  2.606679707278E-01  2.465805072743E-01  2.330985890948E-01  2.202067246332E-01
  2.078891067036E-01  1.961296878079E-01  1.849122446883E-01  1.742204296809E-01
  1.640378153624E-01  1.543479377699E-01  1.451343329004E-01  1.363805767722E-01
  1.280703227979E-01  1.201873305239E-01  1.127155069160E-01  1.056389500863E-01
  9.894198168256E-02  9.260917226779E-02  8.662536313406E-02  8.097568621386E-02
  7.564558045993E-02  7.062080990996E-02  6.588747810370E-02  6.143204004905E-02
  5.724131946199E-02  5.330252304631E-02  4.960324894946E-02  4.613149173286E-02
  4.287564539521E-02  3.982450490401E-02  3.696726641507E-02  3.429352682115E-02
  3.179328255035E-02  2.945692652124E-02  2.727524528464E-02  2.523941590708E-02
  2.334100063488E-02  2.157194003994E-02  1.992454517166E-02  1.839148899304E-02
  1.696579717500E-02  1.564083861066E-02  1.441031565109E-02  1.326825394704E-02
  1.220899200593E-02  1.122717074780E-02  1.031772272629E-02  9.475861144855E-03
  8.697069072075E-03  7.977088519357E-03  7.311909398612E-03  6.697758632767E-03
  6.131089438494E-03  5.608570748285E-03  5.127076831344E-03  4.683677163869E-03
  4.275626559096E-03  3.900355549398E-03  3.555461074957E-03  3.238697493561E-03
  2.947967860682E-03  2.681315545746E-03  2.436916199162E-03  2.213070024547E-03
  2.008194394811E-03  1.820816823915E-03  1.649568245444E-03  1.493176597335E-03
  1.350460700728E-03  1.220324570165E-03  1.101751866044E-03  9.938007048465E-04
  8.955989518540E-04  8.063396275669E-04  7.252764569655E-04  6.517197943502E-04
  5.850327661879E-04  5.246276065067E-04  4.699622109318E-04  4.205371917278E-04
  3.758925060622E-04  3.356048503609E-04  2.992855120687E-04  2.665775388733E-04
  2.371531920196E-04  2.107118609551E-04  1.869778489173E-04  1.656986901308E-04
  1.466435688197E-04  1.296014276156E-04  1.143792939474E-04  1.008008713724E-04
  8.870530158831E-05  7.794586402911E-05  6.838883749259E-05  5.991247802471E-05
  5.240597193523E-05  4.576859495015E-05  3.990896102458E-05  3.474418750398E-05
  3.019920373131E-05  2.620618095066E-05  2.270388304005E-05  1.963711439457E-05
  1.695624392080E-05  1.461669172753E-05  1.257849879802E-05  1.080592006243E-05
  9.267027409455E-06  7.933364618774E-06  6.779613960593E-06  5.783293595317E-06
  4.924478759788E-06  4.185543768057E-06  3.550927686384E-06  3.006918198780E-06
  2.541455915361E-06  2.143956108011E-06  1.805146865082E-06  1.516922612936E-06
  1.272211630564E-06  1.064856467774E-06  8.895065519516E-07  7.415219581033E-07
  6.168873818610E-07  5.121353757155E-07  4.242779548064E-07  3.507458214716E-07
  2.893344727186E-07  2.381565265888E-07  1.955996568096E-07  1.602895677797E-07
  1.310574823373E-07  1.069116600127E-07  8.701250665548E-08  7.065087702242E-08
  5.722920218840E-08  4.624513860080E-08  3.727729912573E-08  2.997352307337E-08
  2.403857045500E-08  1.922979766246E-08  1.534068885375E-08  1.220550254162E-08
  9.686533441334E-09  7.668063554705E-09  6.054709674341E-09  4.768444959691E-09
  3.745600255498E-09  2.934353846043E-09  2.292635329429E-09  1.786379727463E-09
  1.388077050817E-09  1.075570465120E-09  8.310630864389E-10  6.402993959310E-10
  4.918924131828E-10  3.767722041870E-10  2.877351115486E-10  2.190763600760E-10
  1.662914807418E-10  1.258343724950E-10  9.492183986851E-11  7.137615357652E-11
  5.349862431808E-11  3.996839451957E-11  2.976167174739E-11  2.208747977311E-11
  1.633671377092E-11  1.204187651870E-11  8.845361441638E-12  6.474551946697E-12
  4.722338518787E-12  3.431927239696E-12  2.485035754516E-12  1.792753725289E-12
  1.288491639576E-12  9.225605071179E-13  6.580205300667E-13  4.675134868818E-13
</data>
</radfunc>
</valence-charge>
<semilocal-potentials set="scalar_relativistic">
<slps n="2" l="s" rc="1.08639006136" flavor="Troullier-Martins">
<radfunc>
<data>
 -7.435903159312E+00 -7.197156582409E+00 -6.589157899900E+00 -5.720195988791E+00
 -4.759989803953E+00 -3.845049965518E+00 -3.095979859630E+00 -2.480290880959E+00
 -1.972169320054E+00 -1.573122131529E+00 -1.274087862529E+00 -1.056817857533E+00
 -9.004510633845E-01 -7.737955476341E-01 -6.866596105293E-01 -6.166937359424E-01
 -5.692283078206E-01 -5.305138512112E-01 -4.993041736289E-01 -4.743039580450E-01
 -4.578822766320E-01 -4.438824403431E-01 -4.315726508873E-01 -4.201784932903E-01
 -4.088719512251E-01 -3.999184904087E-01 -3.901230790694E-01 -3.790798665210E-01
 -3.663791294921E-01 -3.516194375089E-01 -3.344241850019E-01 -3.144626147488E-01
 -2.914751080903E-01 -2.653020491886E-01 -2.359149793379E-01 -2.034480708558E-01
 -1.802447396505E-01 -1.559619924596E-01 -1.307936940994E-01 -1.049797445496E-01
 -7.880605564074E-02 -5.260319515571E-02 -2.674361490294E-02 -1.637450473653E-03
  2.227303899335E-02  4.451989993971E-02  6.461811316886E-02  8.207347968944E-02
  9.639049678414E-02  1.070815618543E-01  1.136749474430E-01  1.157218936776E-01
  1.128024934899E-01  1.045301329329E-01  9.055450758296E-02  7.056265365432E-02
  4.427834360268E-02  1.146098005345E-02 -2.809734770109E-02 -7.457535262797E-02
 -1.281264161911E-01 -1.888824247206E-01 -2.569571762071E-01 -3.324489853144E-01
 -3.730031673819E-01 -4.154421614614E-01 -4.597743330332E-01 -5.060070981696E-01
 -5.541468380451E-01 -6.041987865557E-01 -6.561668909941E-01 -7.100536460172E-01
 -7.658599013775E-01 -8.235846441284E-01 -8.832247561827E-01 -9.447747482417E-01
 -1.008226471189E+00 -1.073568806086E+00 -1.140787333875E+00 -1.209863985861E+00
 -1.280776675909E+00 -1.353498915206E+00 -1.427999410283E+00 -1.504241644868E+00
 -1.582183446028E+00 -1.661776534977E+00 -1.742966062889E+00 -1.825690132080E+00
 -1.909879302943E+00 -1.995456087108E+00 -2.082334427338E+00 -2.170419164670E+00
 -2.259605493159E+00 -2.349778402254E+00 -2.440812106193E+00 -2.532569458806E+00
 -2.624901350665E+00 -2.717646083509E+00 -2.810628714357E+00 -2.903660358551E+00
 -2.996537437259E+00 -3.089040851244E+00 -3.180935048896E+00 -3.271967041891E+00
 -3.361864735524E+00 -3.450337934035E+00 -3.537066765223E+00 -3.621730599077E+00
 -3.703933252200E+00 -3.783300864350E+00 -3.859466095550E+00 -3.931981366949E+00
 -4.000520968455E+00 -4.064747491445E+00 -4.124285082335E+00 -4.178808406511E+00
 -4.227991426984E+00 -4.271534934173E+00 -4.309165452814E+00 -4.340642610955E+00
 -4.365764938299E+00 -4.384376145960E+00 -4.396371404107E+00 -4.401703570381E+00
 -4.400389200370E+00 -4.392514170490E+00 -4.378238692218E+00 -4.357801437673E+00
 -4.331522698876E+00 -4.299804736507E+00 -4.263133138224E+00 -4.222073200600E+00
 -4.177263139020E+00 -4.129405830251E+00 -4.079253214961E+00 -4.027586818188E+00
 -3.975191267693E+00 -3.922819463408E+00 -3.871148928718E+00 -3.820722965753E+00
 -3.771890719240E+00 -3.724696735661E+00 -3.678813164235E+00 -3.633613563648E+00
 -3.588906894384E+00 -3.544703690404E+00 -3.501010097244E+00 -3.457814474487E+00
 -3.415113155503E+00 -3.372899368463E+00 -3.331181770583E+00 -3.289955249341E+00
 -3.249216419703E+00 -3.208962605862E+00 -3.169191206200E+00 -3.129897281976E+00
 -3.091076920045E+00 -3.052725981466E+00 -3.014840224718E+00 -2.977415302025E+00
 -2.940446864936E+00 -2.903930125800E+00 -2.867861515106E+00 -2.832236171789E+00
 -2.797048103485E+00 -2.762293231992E+00 -2.727966856640E+00 -2.694064233420E+00
 -2.660580807383E+00 -2.627511595196E+00 -2.594851670567E+00 -2.562596248284E+00
 -2.530740512721E+00 -2.499279715654E+00 -2.468209000334E+00 -2.437522563181E+00
 -2.407215495834E+00 -2.377284865438E+00 -2.347725871943E+00 -2.318533998693E+00
 -2.289704876155E+00 -2.261205137049E+00 -2.233066977824E+00 -2.205285063757E+00
 -2.177854105276E+00 -2.150769184866E+00 -2.124025362627E+00 -2.097617483673E+00
 -2.071540873086E+00 -2.045790954125E+00 -2.020363210452E+00 -1.995253257974E+00
 -1.970456842055E+00 -1.945969806887E+00 -1.921788084924E+00 -1.897907659132E+00
 -1.874324616112E+00 -1.851035220765E+00 -1.828035704871E+00 -1.805322378588E+00
 -1.782891594744E+00 -1.760739770932E+00 -1.738863392624E+00 -1.717258994642E+00
 -1.695923178116E+00 -1.674852560358E+00 -1.654043819139E+00 -1.633493680241E+00
 -1.613198918527E+00 -1.593156348575E+00 -1.573362823277E+00 -1.553815240962E+00
 -1.534510543070E+00 -1.515445714203E+00 -1.496617772256E+00 -1.478023773131E+00
 -1.459660809493E+00 -1.441526010040E+00 -1.423616540515E+00 -1.405929600946E+00
 -1.388462424511E+00 -1.371212280886E+00 -1.354176473757E+00 -1.337352340152E+00
 -1.320737250267E+00 -1.304328606541E+00 -1.288123844047E+00 -1.272120429612E+00
 -1.256315861319E+00 -1.240707668450E+00 -1.225293410612E+00 -1.210070677965E+00
 -1.195037090497E+00 -1.180190297664E+00 -1.165527978189E+00 -1.151047839620E+00
 -1.136747617961E+00 -1.122625077318E+00 -1.108678009625E+00 -1.094904234235E+00
 -1.081301597582E+00 -1.067867972866E+00 -1.054601259705E+00 -1.041499383825E+00
 -1.028560296739E+00 -1.015781975414E+00 -1.003162421969E+00 -9.906996633603E-01
 -9.783917510653E-01 -9.662367607834E-01 -9.542327921369E-01 -9.423779683713E-01
 -9.306704360623E-01 -9.191083648268E-01 -9.076899470352E-01 -8.964133975291E-01
 -8.852769533415E-01 -8.742788734213E-01 -8.634174383602E-01 -8.526909501239E-01
 -8.420977317862E-01 -8.316361272662E-01 -8.213045010694E-01 -8.111012380318E-01
 -8.010247430663E-01 -7.910734409137E-01 -7.812457758959E-01 -7.715402116719E-01
 -7.619552309981E-01 -7.524893354900E-01 -7.431410453880E-01 -7.339088993259E-01
 -7.247914541019E-01 -7.157872844525E-01 -7.068949828300E-01 -6.981131591815E-01
 -6.894404407318E-01 -6.808754717684E-01 -6.724169134291E-01 -6.640634434928E-01
 -6.558137561721E-01 -6.476665619094E-01 -6.396205871750E-01 -6.316745742672E-01
 -6.238272811164E-01 -6.160774810900E-01 -6.084239628007E-01 -6.008655299169E-01
 -5.934010009755E-01 -5.860292091970E-01 -5.787490023031E-01 -5.715592423359E-01
 -5.644588054805E-01 -5.574465818885E-01 -5.505214755048E-01 -5.436824038960E-01
 -5.369282980809E-01 -5.302581023633E-01 -5.236707741668E-01 -5.171652838720E-01
 -5.107406146548E-01 -5.043957623279E-01 -4.981297351834E-01 -4.919415538375E-01
 -4.858302510777E-01 -4.797948717112E-01 -4.738344724155E-01 -4.679481215908E-01
 -4.621348992146E-01 -4.563938966971E-01 -4.507242167397E-01 -4.451249731943E-01
 -4.395952909250E-01 -4.341343056706E-01 -4.287411639102E-01 -4.234150227290E-01
 -4.181550496869E-01 -4.129604226880E-01 -4.078303298524E-01 -4.027639693886E-01
 -3.977605494687E-01 -3.928192881043E-01 -3.879394130239E-01 -3.831201615529E-01
 -3.783607804933E-01 -3.736605260067E-01 -3.690186634977E-01 -3.644344674989E-01
 -3.599072215576E-01 -3.554362181235E-01 -3.510207584385E-01 -3.466601524269E-01
 -3.423537185879E-01 -3.381007838887E-01 -3.339006836597E-01 -3.297527614898E-01
 -3.256563691245E-01 -3.216108663642E-01 -3.176156209641E-01 -3.136700085353E-01
 -3.097734124472E-01 -3.059252237311E-01 -3.021248409851E-01 -2.983716702796E-01
 -2.946651250651E-01 -2.910046260797E-01 -2.873896012594E-01 -2.838194856480E-01
 -2.802937213087E-01 -2.768117572376E-01 -2.733730492767E-01 -2.699770600292E-01
 -2.666232587757E-01 -2.633111213907E-01 -2.600401302609E-01 -2.568097742047E-01
 -2.536195483913E-01 -2.504689542626E-01 -2.473574994551E-01 -2.442846977225E-01
 -2.412500688603E-01 -2.382531386301E-01 -2.352934386859E-01 -2.323705065007E-01
 -2.294838852943E-01 -2.266331239616E-01 -2.238177770024E-01 -2.210374044517E-01
 -2.182915718106E-01 -2.155798499789E-01 -2.129018151876E-01 -2.102570489326E-01
 -2.076451379097E-01 -2.050656739496E-01 -2.025182539543E-01 -2.000024798340E-01
</data>
</radfunc>
</slps>
<slps n="2" l="p" rc="0.719043190389" flavor="Troullier-Martins">
<radfunc>
<data>
 -2.716830829708E+01 -2.692956128633E+01 -2.632155586482E+01 -2.545256367358E+01
 -2.449227354102E+01 -2.357715197952E+01 -2.282776909529E+01 -2.221156713459E+01
 -2.170260997345E+01 -2.130228045541E+01 -2.100139500871E+01 -2.078161650238E+01
 -2.062206873388E+01 -2.049091393581E+01 -2.039846880797E+01 -2.032136972521E+01
 -2.026612757290E+01 -2.021748352341E+01 -2.017360733884E+01 -2.013246647423E+01
 -2.010001467486E+01 -2.006658971054E+01 -2.003076304181E+01 -1.999092818748E+01
 -1.994526613474E+01 -1.990596440025E+01 -1.986126162477E+01 -1.981010148932E+01
 -1.975133959063E+01 -1.968374689184E+01 -1.960601722343E+01 -1.951677913279E+01
 -1.941461209882E+01 -1.929806674295E+01 -1.916568817616E+01 -1.901604105339E+01
 -1.890599321385E+01 -1.878725430517E+01 -1.865944338435E+01 -1.852219689417E+01
 -1.837516974566E+01 -1.821803563691E+01 -1.805048661529E+01 -1.787223196903E+01
 -1.768299662018E+01 -1.748251961916E+01 -1.727055152212E+01 -1.704685370626E+01
 -1.681119900018E+01 -1.656337239512E+01 -1.630317448575E+01 -1.603042736852E+01
 -1.574498337192E+01 -1.544673687270E+01 -1.513563915077E+01 -1.481171676444E+01
 -1.447509295069E+01 -1.412601069251E+01 -1.376485847187E+01 -1.339219699092E+01
 -1.300878614362E+01 -1.261561113955E+01 -1.221390653011E+01 -1.180517673633E+01
 -1.159872525886E+01 -1.139121152622E+01 -1.118290528079E+01 -1.097409473236E+01
 -1.076508632691E+01 -1.055620433161E+01 -1.034779021758E+01 -1.014020182158E+01
 -9.933812266427E+00 -9.729008619273E+00 -9.526190265712E+00 -9.325766976982E+00
 -9.128156646642E+00 -8.933782672622E+00 -8.743070960343E+00 -8.556446522888E+00
 -8.374329655255E+00 -8.197131661686E+00 -8.025250118384E+00 -7.859063658928E+00
 -7.698926276879E+00 -7.545161150057E+00 -7.398054004405E+00 -7.257846053051E+00
 -7.124726569077E+00 -6.998825179696E+00 -6.880204006140E+00 -6.768849819049E+00
 -6.664666434969E+00 -6.567467647407E+00 -6.476971067633E+00 -6.392793348118E+00
 -6.314447377369E+00 -6.241342171478E+00 -6.172786347732E+00 -6.107996252194E+00
 -6.046110029846E+00 -5.986209177473E+00 -5.927349400653E+00 -5.868603022542E+00
 -5.809114900085E+00 -5.748178253835E+00 -5.685318733483E+00 -5.620443993031E+00
 -5.553919494145E+00 -5.486852702879E+00 -5.420789452247E+00 -5.355884823891E+00
 -5.292027108818E+00 -5.229112837353E+00 -5.167016996750E+00 -5.105673718045E+00
 -5.045019692861E+00 -4.985013386725E+00 -4.925625995521E+00 -4.866840362480E+00
 -4.808648271354E+00 -4.751048217797E+00 -4.694043373795E+00 -4.637639780029E+00
 -4.581844801008E+00 -4.526665777658E+00 -4.472108961579E+00 -4.418178603842E+00
 -4.364876306724E+00 -4.312200257871E+00 -4.260142436559E+00 -4.208698485453E+00
 -4.157860016832E+00 -4.107609337904E+00 -4.057927877543E+00 -4.008796369357E+00
 -3.960194370724E+00 -3.912101665486E+00 -3.864500458498E+00 -3.817374223986E+00
 -3.770719787007E+00 -3.724525707455E+00 -3.678813271533E+00 -3.633613563648E+00
 -3.588906894384E+00 -3.544703690404E+00 -3.501010097244E+00 -3.457814474487E+00
 -3.415113155503E+00 -3.372899368463E+00 -3.331181770583E+00 -3.289955249341E+00
 -3.249216419703E+00 -3.208962605862E+00 -3.169191206200E+00 -3.129897281976E+00
 -3.091076920045E+00 -3.052725981466E+00 -3.014840224718E+00 -2.977415302025E+00
 -2.940446864936E+00 -2.903930125800E+00 -2.867861515106E+00 -2.832236171789E+00
 -2.797048103485E+00 -2.762293231992E+00 -2.727966856640E+00 -2.694064233420E+00
 -2.660580807383E+00 -2.627511595196E+00 -2.594851670567E+00 -2.562596248284E+00
 -2.530740512721E+00 -2.499279715654E+00 -2.468209000334E+00 -2.437522563181E+00
 -2.407215495834E+00 -2.377284865438E+00 -2.347725871943E+00 -2.318533998693E+00
 -2.289704876155E+00 -2.261205137049E+00 -2.233066977824E+00 -2.205285063757E+00
 -2.177854105276E+00 -2.150769184866E+00 -2.124025362627E+00 -2.097617483673E+00
 -2.071540873086E+00 -2.045790954125E+00 -2.020363210452E+00 -1.995253257974E+00
 -1.970456842055E+00 -1.945969806887E+00 -1.921788084924E+00 -1.897907659132E+00
 -1.874324616112E+00 -1.851035220765E+00 -1.828035704871E+00 -1.805322378588E+00
 -1.782891594744E+00 -1.760739770932E+00 -1.738863392624E+00 -1.717258994642E+00
 -1.695923178116E+00 -1.674852560358E+00 -1.654043819139E+00 -1.633493680241E+00
 -1.613198918527E+00 -1.593156348575E+00 -1.573362823277E+00 -1.553815240962E+00
 -1.534510543070E+00 -1.515445714203E+00 -1.496617772256E+00 -1.478023773131E+00
 -1.459660809493E+00 -1.441526010040E+00 -1.423616540515E+00 -1.405929600946E+00
 -1.388462424511E+00 -1.371212280886E+00 -1.354176473757E+00 -1.337352340152E+00
 -1.320737250267E+00 -1.304328606541E+00 -1.288123844047E+00 -1.272120429612E+00
 -1.256315861319E+00 -1.240707668450E+00 -1.225293410612E+00 -1.210070677965E+00
 -1.195037090497E+00 -1.180190297664E+00 -1.165527978189E+00 -1.151047839620E+00
 -1.136747617961E+00 -1.122625077318E+00 -1.108678009625E+00 -1.094904234235E+00
 -1.081301597582E+00 -1.067867972866E+00 -1.054601259705E+00 -1.041499383825E+00
 -1.028560296739E+00 -1.015781975414E+00 -1.003162421969E+00 -9.906996633603E-01
 -9.783917510653E-01 -9.662367607834E-01 -9.542327921369E-01 -9.423779683713E-01
 -9.306704360623E-01 -9.191083648268E-01 -9.076899470352E-01 -8.964133975291E-01