Executable      : siesta-5
Version         : 5.1-MaX-41-g6ad11e234
Architecture    : x86_64
Compiler version: GNU-12.2.0
Compiler flags  : -DSIESTA__METIS -fallow-argument-mismatch -O3 -march=native
Parallelisations: MPI, OpenMP
* OpenMP version: 201511
NetCDF support
NetCDF-4 support
NetCDF-4 MPI-IO support
METIS ordering support
Lua support
Native ELPA support
DFT-D3 support
Wannier90 wrapper support

Runtime information:
* Directory : /home/cdelv/Si_DNA2/Si/Base_Pairs/AT_VDW_OP
* Running on 32 nodes in parallel.
* Running 1 OpenMP threads.
* Running 32 processes.
* OpenMP NOT bound (please bind threads!)
* OpenMP runtime schedule DYNAMIC, chunks 1
** Changing chunk size:
** OpenMP runtime schedule DYNAMIC, chunks 32
** OpenMP (trying to FORCE nesting)
* OpenMP allows 255 nested levels.
>> Start of run:  12-OCT-2024  16:59:19

                           *********************** 
                           *  WELCOME TO SIESTA  * 
                           *********************** 

 NOTE: Siesta V5 introduces some new defaults for basis-set generation
 NOTE: which might lead to slightly different numerical results.
 NOTE: Please see the manual for full details and compatibility measures.


reinit: Reading from standard input
reinit: Dumping input in INPUT_TMP.89027
************************** Dump of input data file ****************************
# mpirun -np 8 siesta-5 < AT.fdf > AT.out &
SystemLabel      AT
NumberOfAtoms    30
NumberOfSpecies  4
%block ChemicalSpeciesLabel
    1    1  H ../../../Pseudos/VW/H/H.psf
    2    7  N ../../../Pseudos/VW/N/N.psf
    3   14  Si ../../../Pseudos/VW/Si/Si.psf
    4    8  O ../../../Pseudos/VW/O/O.psf
%endblock ChemicalSpeciesLabel
############################################
# This overrides Defaults.fdf configuration
############################################
XC.Functional               VDW
XC.Authors                  DRSLL
MD.Steps                    1000
%block Geometry.Constraints
    atom all 0.0 0.0 1.0 # constrain along z Cartesian vector
    atom [6]
    clear-prev [22 -- 24]
%endblock
AtomicCoordinatesFormat NotScaledCartesianAng
%block AtomicCoordinatesAndAtomicSpecies
    2.31653473   -5.14834903    0.00000000   1       1  H
    1.40295054   -4.64047007    0.00000000   2       2  N
   -0.17305462   -5.47759156    0.00000000   3       3  Si
   -0.07825592   -6.95235237    0.00000000   1       4  H
   -1.62086051   -4.60275182    0.00000000   2       5  N
   -1.09026419   -2.87456374    0.00000000   3       6  Si
   -1.54498205   -0.71056273    0.00000000   3       7  Si
   -3.13778666   -0.06337329    0.00000000   2       8  N
   -3.45478743    0.93546037    0.00000000   1       9  H
   -3.97865771   -0.64892738    0.00000000   1      10  H
   -0.19771536    0.39780325    0.00000000   2      11  N
    1.45681394   -0.06320645    0.00000000   3      12  Si
    2.40968441    1.06684500    0.00000000   1      13  H
    2.27386672   -1.57492915    0.00000000   2      14  N
    1.09873163   -2.83375100    0.00000000   3      15  Si
    0.59758242    7.20937325    0.00000000   1      16  H
   -0.20594101    6.53823254    0.00000000   2      17  N
   -1.84498478    7.25857131    0.00000000   3      18  Si
   -1.71286651    8.74551428    0.00000000   1      19  H
   -3.56250366    5.94497859    0.00000000   3      20  Si
   -5.88846916    5.96354846    0.00000000   3      21  Si
   -6.35530093    6.75136388   -1.20183078   1      22  H
   -6.09570956    4.45036591   -0.08618332   1      23  H
   -6.44729271    6.58719586    1.28814761   1      24  H
   -2.69328938    3.87193209    0.00000000   3      25  Si
   -3.66477176    2.61940744    0.00000000   4      26  O
   -0.91685760    3.71793697    0.00000000   2      27  N
   -0.56252603    2.71404584    0.00000000   1      28  H
    0.40268867    4.87058027    0.00000000   3      29  Si
    1.93578488    4.53210341    0.00000000   4      30  O
%endblock AtomicCoordinatesAndAtomicSpecies
#############
# Unit Cell
#############
LatticeConstant 1.0 Ang
%block LatticeVectors
    16.855075   0.000000    0.000000
    0.000000    24.528070   0.000000
    0.000000    0.000000    10.315061
%endblock LatticeVectors
%include ../../../Defaults.fdf
************************** End of input data file *****************************

reinit: -----------------------------------------------------------------------
reinit: System Name: 
reinit: -----------------------------------------------------------------------
reinit: System Label: AT
reinit: -----------------------------------------------------------------------

NOTE on units for spin output: 
{S} is the spin magnetic moment, in units of the Bohr magneton,
assuming a g-factor for the electron spin of exactly 2.
The spin magnetic moment is then numerically equal to the charge inbalance,
in units of electrons, between the spin-up and -down channels.


initatom: Reading input for the pseudopotentials and atomic orbitals ----------
Species number:   1 Atomic number:    1 Label: H
Species number:   2 Atomic number:    7 Label: N
Species number:   3 Atomic number:   14 Label: Si
Species number:   4 Atomic number:    8 Label: O

Ground state valence configuration (from tables):   1s01  2p00  3d00  4f00
Ground state valence configuration (from tables):   2s02  2p03  3d00  4f00
Ground state valence configuration (from tables):   3s02  3p02  3d00  4f00
Ground state valence configuration (from tables):   2s02  2p04  3d00  4f00

---- Processing specs for species: H
Reading pseudopotential information in formatted form from:
  ../../../Pseudos/VW/H/H.psf

---- Processing specs for species: N
Reading pseudopotential information in formatted form from:
  ../../../Pseudos/VW/N/N.psf

---- Processing specs for species: Si
Reading pseudopotential information in formatted form from:
  ../../../Pseudos/VW/Si/Si.psf

---- Processing specs for species: O
Reading pseudopotential information in formatted form from:
  ../../../Pseudos/VW/O/O.psf

---- Pseudopotential check for H 

Pseudopotential generated from a fully relativistic atomic calculation
There are spin-orbit semi-local pseudopotentials available

Pseudized shells:
1s( 1.00) rc: 0.04
Valence configuration for ps generation: (assumed as above)

---- Pseudopotential check for N 

Pseudopotential generated from a fully relativistic atomic calculation
There are spin-orbit semi-local pseudopotentials available

Pseudized shells:
2s( 2.00) rc: 1.00
2p( 3.00) rc: 1.04
3d( 0.00) rc: 2.87
Valence configuration for ps generation: (assumed as above)

---- Pseudopotential check for Si

Pseudopotential generated from a fully relativistic atomic calculation
There are spin-orbit semi-local pseudopotentials available

Pseudized shells:
3s( 2.00) rc: 1.67
3p( 2.00) rc: 1.99
3d( 0.00) rc: 2.04
Valence configuration for ps generation: (assumed as above)

---- Pseudopotential check for O 

Pseudopotential generated from a fully relativistic atomic calculation
There are spin-orbit semi-local pseudopotentials available

Pseudized shells:
2s( 2.00) rc: 0.89
2p( 4.00) rc: 1.03
3d( 0.00) rc: 1.64
Valence configuration for ps generation: (assumed as above)
For H, standard SIESTA heuristics set lmxkb to 2
 (one more than the basis l, including polarization orbitals).
Use PS.lmax or PS.KBprojectors blocks to override.
For N, standard SIESTA heuristics set lmxkb to 3
 (one more than the basis l, including polarization orbitals).
Use PS.lmax or PS.KBprojectors blocks to override.
For Si, standard SIESTA heuristics set lmxkb to 3
 (one more than the basis l, including polarization orbitals).
Use PS.lmax or PS.KBprojectors blocks to override.
For O, standard SIESTA heuristics set lmxkb to 3
 (one more than the basis l, including polarization orbitals).
Use PS.lmax or PS.KBprojectors blocks to override.
../../../Pseudos/VW/H/H.psf pseudopotential only contains V_ls up to l=0 -- lmxkb reset.
../../../Pseudos/VW/N/N.psf pseudopotential only contains V_ls up to l=2 -- lmxkb reset.
../../../Pseudos/VW/Si/Si.psf pseudopotential only contains V_ls up to l=2 -- lmxkb reset.
../../../Pseudos/VW/O/O.psf pseudopotential only contains V_ls up to l=2 -- lmxkb reset.

<basis_specs>
===============================================================================
H                    Z=   1    Mass=  1.0080        Charge= 0.17977+309
Lmxo=1 Lmxkb= 0    BasisType=split      Semic=F
L=0  Nsemic=0  Cnfigmx=1
          i=1  nzeta=2  polorb=1  (1s)  (to be polarized perturbatively)
            splnorm:   0.62000    
               vcte:    40.000    
               rinn:  -0.90000    
               qcoe:    0.0000    
               qyuk:    0.0000    
               qwid:   0.10000E-01
                rcs:    0.0000      0.0000    
            lambdas:    1.0000      1.0000    
L=1  Nsemic=0  Cnfigmx=2
          i=1  nzeta=0  polorb=0  (2p)  (perturbative polarization orbital) (from 1s)
===============================================================================
</basis_specs>

Filter: Requested cutoff:  290.000000 Ry
Using PAO.SplitTailNorm
atom: Called for H                     (Z =   1)
NOTE: H pseudopotential has channels up to l= 0
NOTE: PAOs with higher l will be generated with V_local
Maximum radius (at nrval) set to   50.00000 8518

read_vps: Pseudopotential generation method:
read_vps: ATM4.2.7  Troullier-Martins                       
Valence charge in pseudo generation:    1.00000

xc_check: Exchange-correlation functional:
xc_check: VDW Dion-Rydberg-Schroeder-Langreth-Lundqvist
V l=0 = -2*Zval/r beyond r=  0.0399
All V_l potentials equal beyond r=  0.0399
This should be close to max(r_c) in ps generation
All pots = -2*Zval/r beyond r=  0.0399
Using small-core scheme (local charge) for Vlocal

VLOCAL_FROM_CHLOCAL: 99.0% of the norm of Vloc inside  27227.515 Ry
VLOCAL_FROM_CHLOCAL: 99.9% of the norm of Vloc inside  62052.012 Ry
atom: Maximum radius for chlocal:    0.04942
atom: Maximum radius for r*vlocal+2*Zval:    0.04228

KBgen: Kleinman-Bylander projectors: 
GHOST: No ghost state for L =  0
KBproj: WARNING: Rc(0)=      0.3608
KBproj: WARNING: Cut off radius for the KB projector too small
   l= 0   rc=  0.360771   el= -0.503243   Ekb=-43.540856   kbcos= -0.003669

KBgen: Total number of Kleinman-Bylander projectors:   1
atom: -------------------------------------------------------------------------

atom: SANKEY-TYPE ORBITALS:
atom: Selected multiple-zeta basis: split     

SPLIT: Orbitals with angular momentum L= 0

SPLIT: Basis orbitals for state 1s

SPLIT: PAO cut-off radius determined from an
SPLIT: energy shift=  0.005000 Ry
Split based on tail norm

   izeta = 1
                 lambda =    1.000000
                     rc =    5.772464
                 energy =   -0.497573
                kinetic =    0.983085
    potential(screened) =   -1.480658
       potential(ionic) =   -1.978266
PAO Filter: Cutoff used:  142.10 Ry
PAO Filter: diagnostic kin energy tol:    0.003000 Ry
PAO Filter: Nominal cutoff (before filtering):  117.93 Ry
Filter:    Number of eigenfunctions  of the
           filtering kernel (total, used)= 55 20

   izeta = 2
                 rmatch =    1.631860
              splitnorm =    0.620000
                 energy =    1.774382
                kinetic =    6.071357
    potential(screened) =   -4.296974
       potential(ionic) =   -4.727849
PAO Filter: Cutoff used:  142.10 Ry
PAO Filter: diagnostic kin energy tol:    0.003000 Ry
PAO Filter: Nominal cutoff (before filtering):  901.83 Ry
Filter:    Number of eigenfunctions  of the
           filtering kernel (total, used)= 23  5
*Note: V_local used for l= 1

** Using vlocal for PAOs with L= 1

POLgen: Perturbative polarization orbital with L=  1

POLgen: Polarization orbital for state 1s
*Note: V_local used for lpol= 1

** Using vlocal for PAOs with L= 1
Split based on tail norm

   izeta = 1
                     rc =    5.772464
                 energy =    0.609532
                kinetic =    1.250628
    potential(screened) =   -0.641096
       potential(ionic) =   -1.109550
PAO Filter: diagnostic kin energy tol:    0.003000 Ry
PAO Filter: Nominal cutoff (before filtering):   54.19 Ry
Filter:    Number of eigenfunctions  of the
           filtering kernel (total, used)= 55 20
atom: Total number of Sankey-type orbitals:  5

atm_pop: Valence configuration (for local Pseudopot. screening):
 1s( 1.00)                                                            
 2p( 0.00)                                                            
Vna: chval, zval:    1.00000   1.00000

Vna:  Cut-off radius for the neutral-atom potential:   5.772464
VNA Filter: diagnostic kinetic energy tol:    0.003000 Ry
VNA Filter: Nominal cutoff (before filtering):31865.46 Ry
VNA Filter: Cutoff used:   290.00 Ry
Filter:    Number of eigenfunctions  of the
           filtering kernel (total, used)= 74 30

atom: _________________________________________________________________________

<basis_specs>
===============================================================================
N                    Z=   7    Mass=  14.007        Charge= 0.17977+309
Lmxo=2 Lmxkb= 2    BasisType=split      Semic=F
L=0  Nsemic=0  Cnfigmx=2
          i=1  nzeta=2  polorb=0  (2s)
            splnorm:   0.28000    
               vcte:    40.000    
               rinn:  -0.90000    
               qcoe:    0.0000    
               qyuk:    0.0000    
               qwid:   0.10000E-01
                rcs:    0.0000      0.0000    
            lambdas:    1.0000      1.0000    
L=1  Nsemic=0  Cnfigmx=2
          i=1  nzeta=2  polorb=1  (2p)  (to be polarized perturbatively)
            splnorm:   0.28000    
               vcte:    40.000    
               rinn:  -0.90000    
               qcoe:    0.0000    
               qyuk:    0.0000    
               qwid:   0.10000E-01
                rcs:    0.0000      0.0000    
            lambdas:    1.0000      1.0000    
L=2  Nsemic=0  Cnfigmx=3
          i=1  nzeta=0  polorb=0  (3d)  (perturbative polarization orbital) (from 2p)
-------------------------------------------------------------------------------
L=0  Nkbl=1  erefs: 0.17977+309
L=1  Nkbl=1  erefs: 0.17977+309
L=2  Nkbl=1  erefs: 0.17977+309
===============================================================================
</basis_specs>

Filter: Requested cutoff:  290.000000 Ry
Using PAO.SplitTailNorm
atom: Called for N                     (Z =   7)
Maximum radius (at nrval) set to   50.00000 8518

read_vps: Pseudopotential generation method:
read_vps: ATM4.2.7  Troullier-Martins                       
Valence charge in pseudo generation:    5.00000

xc_check: Exchange-correlation functional:
xc_check: VDW Dion-Rydberg-Schroeder-Langreth-Lundqvist
V l=0 = -2*Zval/r beyond r=  1.6351
V l=1 = -2*Zval/r beyond r=  1.6351
V l=2 = -2*Zval/r beyond r=  3.0728
All V_l potentials equal beyond r=  2.8817
This should be close to max(r_c) in ps generation
All pots = -2*Zval/r beyond r=  3.0728
Using small-core scheme (local charge) for Vlocal

VLOCAL_FROM_CHLOCAL: 99.0% of the norm of Vloc inside      5.227 Ry
VLOCAL_FROM_CHLOCAL: 99.9% of the norm of Vloc inside     11.913 Ry
atom: Maximum radius for chlocal:    3.41750
atom: Maximum radius for r*vlocal+2*Zval:    3.16984

KBgen: Kleinman-Bylander projectors: 
GHOST: No ghost state for L =  0
   l= 0   rc=  2.978674   el= -1.380579   Ekb= -3.918497   kbcos= -0.639583
GHOST: No ghost state for L =  1
j- l= 1   rc=  2.945979   el= -0.537631   Ekb=-10.726195   kbcos= -0.541225
GHOST: No ghost state for L =  1
j+ l= 1   rc=  2.945979   el= -0.536259   Ekb=-10.704119   kbcos= -0.540979
GHOST: No ghost state for L =  2
j- l= 2   rc=  3.869979   el=  0.013287   Ekb= -0.791795   kbcos= -0.046021
GHOST: No ghost state for L =  2
j+ l= 2   rc=  3.869979   el=  0.013287   Ekb= -0.790042   kbcos= -0.046052

KBgen: Total number of Kleinman-Bylander projectors:  17
atom: -------------------------------------------------------------------------

atom: SANKEY-TYPE ORBITALS:
atom: Selected multiple-zeta basis: split     

SPLIT: Orbitals with angular momentum L= 0

SPLIT: Basis orbitals for state 2s

SPLIT: PAO cut-off radius determined from an
SPLIT: energy shift=  0.005000 Ry
Split based on tail norm

   izeta = 1
                 lambda =    1.000000
                     rc =    4.265195
                 energy =   -1.374896
                kinetic =    1.265116
    potential(screened) =   -2.640012
       potential(ionic) =   -8.160676
PAO Filter: Cutoff used:  142.10 Ry
PAO Filter: diagnostic kin energy tol:    0.003000 Ry
PAO Filter: Nominal cutoff (before filtering):   71.53 Ry
Filter:    Number of eigenfunctions  of the
           filtering kernel (total, used)= 43 15

   izeta = 2
                 rmatch =    2.173283
              splitnorm =    0.280000
                 energy =   -0.503777
                kinetic =    3.173825
    potential(screened) =   -3.677602
       potential(ionic) =   -9.854287
PAO Filter: Cutoff used:  142.10 Ry
PAO Filter: diagnostic kin energy tol:    0.003000 Ry
PAO Filter: Nominal cutoff (before filtering):  129.00 Ry
Filter:    Number of eigenfunctions  of the
           filtering kernel (total, used)= 27  7

SPLIT: Orbitals with angular momentum L= 1

SPLIT: Basis orbitals for state 2p

SPLIT: PAO cut-off radius determined from an
SPLIT: energy shift=  0.005000 Ry
Split based on tail norm

   izeta = 1
                 lambda =    1.000000
                     rc =    5.317222
                 energy =   -0.531068
                kinetic =    3.641750
    potential(screened) =   -4.172818
       potential(ionic) =   -9.515546
PAO Filter: Cutoff used:  142.10 Ry
PAO Filter: diagnostic kin energy tol:    0.003000 Ry
PAO Filter: Nominal cutoff (before filtering):   83.42 Ry
Filter:    Number of eigenfunctions  of the
           filtering kernel (total, used)= 51 18

   izeta = 2
                 rmatch =    2.624859
              splitnorm =    0.280000
                 energy =   -0.159696
                kinetic =    6.395910
    potential(screened) =   -6.555607
       potential(ionic) =  -12.720241
PAO Filter: Cutoff used:  142.10 Ry
PAO Filter: diagnostic kin energy tol:    0.003000 Ry
PAO Filter: Nominal cutoff (before filtering):   94.45 Ry
Filter:    Number of eigenfunctions  of the
           filtering kernel (total, used)= 30  8

POLgen: Perturbative polarization orbital with L=  2

POLgen: Polarization orbital for state 2p
Split based on tail norm

   izeta = 1
                     rc =    5.317222
                 energy =    1.517402
                kinetic =    2.627978
    potential(screened) =   -1.110576
       potential(ionic) =   -5.200503
PAO Filter: diagnostic kin energy tol:    0.003000 Ry
PAO Filter: Nominal cutoff (before filtering):   71.63 Ry
Filter:    Number of eigenfunctions  of the
           filtering kernel (total, used)= 51 17
atom: Total number of Sankey-type orbitals: 13

atm_pop: Valence configuration (for local Pseudopot. screening):
 2s( 2.00)                                                            
 2p( 3.00)                                                            
 3d( 0.00)                                                            
Vna: chval, zval:    5.00000   5.00000

Vna:  Cut-off radius for the neutral-atom potential:   5.317222
VNA Filter: diagnostic kinetic energy tol:    0.003000 Ry
VNA Filter: Nominal cutoff (before filtering):   72.95 Ry
VNA Filter: Cutoff used:   290.00 Ry
Filter:    Number of eigenfunctions  of the
           filtering kernel (total, used)= 69 27

atom: _________________________________________________________________________

<basis_specs>
===============================================================================
Si                   Z=  14    Mass=  28.090        Charge= 0.17977+309
Lmxo=2 Lmxkb= 2    BasisType=split      Semic=F
L=0  Nsemic=0  Cnfigmx=3
          i=1  nzeta=2  polorb=0  (3s)
            splnorm:   0.28000    
               vcte:    40.000    
               rinn:  -0.90000    
               qcoe:    0.0000    
               qyuk:    0.0000    
               qwid:   0.10000E-01
                rcs:    0.0000      0.0000    
            lambdas:    1.0000      1.0000    
L=1  Nsemic=0  Cnfigmx=3
          i=1  nzeta=2  polorb=1  (3p)  (to be polarized perturbatively)
            splnorm:   0.28000    
               vcte:    40.000    
               rinn:  -0.90000    
               qcoe:    0.0000    
               qyuk:    0.0000    
               qwid:   0.10000E-01
                rcs:    0.0000      0.0000    
            lambdas:    1.0000      1.0000    
L=2  Nsemic=0  Cnfigmx=3
          i=1  nzeta=0  polorb=0  (3d)  (perturbative polarization orbital) (from 3p)
-------------------------------------------------------------------------------
L=0  Nkbl=1  erefs: 0.17977+309
L=1  Nkbl=1  erefs: 0.17977+309
L=2  Nkbl=1  erefs: 0.17977+309
===============================================================================
</basis_specs>

Filter: Requested cutoff:  290.000000 Ry
Using PAO.SplitTailNorm
atom: Called for Si                    (Z =  14)
Maximum radius (at nrval) set to   50.00000 8518

read_vps: Pseudopotential generation method:
read_vps: ATM4.2.7  Troullier-Martins                       
Valence charge in pseudo generation:    4.00000

read_vps: Pseudopotential includes a core correction:
read_vps: Pseudo-core for xc-correction

xc_check: Exchange-correlation functional:
xc_check: VDW Dion-Rydberg-Schroeder-Langreth-Lundqvist
V l=0 = -2*Zval/r beyond r=  2.9817
V l=1 = -2*Zval/r beyond r=  2.9817
V l=2 = -2*Zval/r beyond r=  2.9817
All V_l potentials equal beyond r=  2.0176
This should be close to max(r_c) in ps generation
All pots = -2*Zval/r beyond r=  2.9817
Using large-core scheme (fit) for Vlocal

atom: Estimated core radius    2.98166
Fit of Vlocal with continuous 2nd derivative
Fitting vlocal at       2.0236
Choosing vlocal chloc cutoff:  5827  3.380000
qtot up to nchloc:    3.99989445
atom: Maximum radius for chlocal:    3.38000
atom: Maximum radius for r*vlocal+2*Zval:    3.38000

KBgen: Kleinman-Bylander projectors: 
GHOST: No ghost state for L =  0
   l= 0   rc=  2.003410   el= -0.803423   Ekb=  5.870525   kbcos=  0.272667
GHOST: No ghost state for L =  1
j- l= 1   rc=  2.007441   el= -0.308801   Ekb=  2.177563   kbcos=  0.262902
GHOST: No ghost state for L =  1
j+ l= 1   rc=  2.007441   el= -0.306484   Ekb=  2.175431   kbcos=  0.263305
GHOST: No ghost state for L =  2
j- l= 2   rc=  2.052316   el=  0.012742   Ekb= -1.769752   kbcos= -0.063968
GHOST: No ghost state for L =  2
j+ l= 2   rc=  2.052316   el=  0.012742   Ekb= -1.765924   kbcos= -0.063963

KBgen: Total number of Kleinman-Bylander projectors:  17
atom: -------------------------------------------------------------------------

atom: SANKEY-TYPE ORBITALS:
atom: Selected multiple-zeta basis: split     

SPLIT: Orbitals with angular momentum L= 0

SPLIT: Basis orbitals for state 3s

SPLIT: PAO cut-off radius determined from an
SPLIT: energy shift=  0.005000 Ry
Split based on tail norm

   izeta = 1
                 lambda =    1.000000
                     rc =    5.818909
                 energy =   -0.797519
                kinetic =    0.548821
    potential(screened) =   -1.346340
       potential(ionic) =   -3.719935
PAO Filter: Cutoff used:  142.10 Ry
PAO Filter: diagnostic kin energy tol:    0.003000 Ry
PAO Filter: Nominal cutoff (before filtering):   16.64 Ry
Filter:    Number of eigenfunctions  of the
           filtering kernel (total, used)= 55 20

   izeta = 2
                 rmatch =    3.322857
              splitnorm =    0.280000
                 energy =   -0.092731
                kinetic =    1.786480
    potential(screened) =   -1.879211
       potential(ionic) =   -4.463576
PAO Filter: Cutoff used:  142.10 Ry
PAO Filter: diagnostic kin energy tol:    0.003000 Ry
PAO Filter: Nominal cutoff (before filtering):   37.41 Ry
Filter:    Number of eigenfunctions  of the
           filtering kernel (total, used)= 36 11

SPLIT: Orbitals with angular momentum L= 1

SPLIT: Basis orbitals for state 3p

SPLIT: PAO cut-off radius determined from an
SPLIT: energy shift=  0.005000 Ry
Split based on tail norm

   izeta = 1
                 lambda =    1.000000
                     rc =    7.640950
                 energy =   -0.301391
                kinetic =    0.815831
    potential(screened) =   -1.117222
       potential(ionic) =   -3.295768
PAO Filter: Cutoff used:  142.10 Ry
PAO Filter: diagnostic kin energy tol:    0.003000 Ry
PAO Filter: Nominal cutoff (before filtering):    6.39 Ry
Filter:    Number of eigenfunctions  of the
           filtering kernel (total, used)= 69 27

   izeta = 2
                 rmatch =    4.390991
              splitnorm =    0.280000
                 energy =   -0.103037
                kinetic =    1.493033
    potential(screened) =   -1.596069
       potential(ionic) =   -4.032629
PAO Filter: Cutoff used:  142.10 Ry
PAO Filter: diagnostic kin energy tol:    0.003000 Ry
PAO Filter: Nominal cutoff (before filtering):   13.44 Ry
Filter:    Number of eigenfunctions  of the
           filtering kernel (total, used)= 44 14

POLgen: Perturbative polarization orbital with L=  2

POLgen: Polarization orbital for state 3p
Split based on tail norm

   izeta = 1
                     rc =    7.640950
                 energy =    0.295111
                kinetic =    1.410872
    potential(screened) =   -1.115761
       potential(ionic) =   -3.163821
PAO Filter: diagnostic kin energy tol:    0.003000 Ry
PAO Filter: Nominal cutoff (before filtering):   23.60 Ry
Filter:    Number of eigenfunctions  of the
           filtering kernel (total, used)= 69 26
atom: Total number of Sankey-type orbitals: 13

atm_pop: Valence configuration (for local Pseudopot. screening):
 3s( 2.00)                                                            
 3p( 2.00)                                                            
 3d( 0.00)                                                            
Vna: chval, zval:    4.00000   4.00000

Vna:  Cut-off radius for the neutral-atom potential:   7.640950
VNA Filter: diagnostic kinetic energy tol:    0.003000 Ry
VNA Filter: Nominal cutoff (before filtering):   11.08 Ry
VNA Filter: Cutoff used:   290.00 Ry
Filter:    Number of eigenfunctions  of the
           filtering kernel (total, used)= 95 40
comcore: Pseudo-core radius Rcore=  2.984657
PCC Filter: diagnostic kin energy tol:    0.003000 Ry
PCC Filter: Nominal cutoff (before filtering):  103.93 Ry
PCC Filter: Cutoff used:   290.00 Ry
Filter:    Number of eigenfunctions  of the
           filtering kernel (total, used)= 43 15

atom: _________________________________________________________________________

<basis_specs>
===============================================================================
O                    Z=   8    Mass=  15.999        Charge= 0.17977+309
Lmxo=2 Lmxkb= 2    BasisType=split      Semic=F
L=0  Nsemic=0  Cnfigmx=2
          i=1  nzeta=2  polorb=0  (2s)
            splnorm:   0.28000    
               vcte:    40.000    
               rinn:  -0.90000    
               qcoe:    0.0000    
               qyuk:    0.0000    
               qwid:   0.10000E-01
                rcs:    0.0000      0.0000    
            lambdas:    1.0000      1.0000    
L=1  Nsemic=0  Cnfigmx=2
          i=1  nzeta=2  polorb=1  (2p)  (to be polarized perturbatively)
            splnorm:   0.28000    
               vcte:    40.000    
               rinn:  -0.90000    
               qcoe:    0.0000    
               qyuk:    0.0000    
               qwid:   0.10000E-01
                rcs:    0.0000      0.0000    
            lambdas:    1.0000      1.0000    
L=2  Nsemic=0  Cnfigmx=3
          i=1  nzeta=0  polorb=0  (3d)  (perturbative polarization orbital) (from 2p)
-------------------------------------------------------------------------------
L=0  Nkbl=1  erefs: 0.17977+309
L=1  Nkbl=1  erefs: 0.17977+309
L=2  Nkbl=1  erefs: 0.17977+309
===============================================================================
</basis_specs>

Filter: Requested cutoff:  290.000000 Ry
Using PAO.SplitTailNorm
atom: Called for O                     (Z =   8)
Maximum radius (at nrval) set to   50.00000 8518

read_vps: Pseudopotential generation method:
read_vps: ATM4.2.7  Troullier-Martins                       
Valence charge in pseudo generation:    6.00000

xc_check: Exchange-correlation functional:
xc_check: VDW Dion-Rydberg-Schroeder-Langreth-Lundqvist
V l=0 = -2*Zval/r beyond r=  1.3024
V l=1 = -2*Zval/r beyond r=  1.3024
V l=2 = -2*Zval/r beyond r=  1.7668
All V_l potentials equal beyond r=  1.6269
This should be close to max(r_c) in ps generation
All pots = -2*Zval/r beyond r=  1.7668
Using small-core scheme (local charge) for Vlocal

VLOCAL_FROM_CHLOCAL: 99.0% of the norm of Vloc inside     16.399 Ry
VLOCAL_FROM_CHLOCAL: 99.9% of the norm of Vloc inside     37.374 Ry
atom: Maximum radius for chlocal:    1.95370
atom: Maximum radius for r*vlocal+2*Zval:    1.79729

KBgen: Kleinman-Bylander projectors: 
GHOST: No ghost state for L =  0
   l= 0   rc=  1.770385   el= -1.777146   Ekb=-20.483406   kbcos= -0.111991
GHOST: No ghost state for L =  1
j- l= 1   rc=  1.745634   el= -0.683129   Ekb=-12.195034   kbcos= -0.452315
GHOST: No ghost state for L =  1
j+ l= 1   rc=  1.745634   el= -0.680470   Ekb=-12.162909   kbcos= -0.451770
GHOST: No ghost state for L =  2
j- l= 2   rc=  2.784994   el=  0.013305   Ekb= -1.481537   kbcos= -0.010110
GHOST: No ghost state for L =  2
j+ l= 2   rc=  2.784994   el=  0.013305   Ekb= -1.467492   kbcos= -0.010143

KBgen: Total number of Kleinman-Bylander projectors:  17
atom: -------------------------------------------------------------------------

atom: SANKEY-TYPE ORBITALS:
atom: Selected multiple-zeta basis: split     

SPLIT: Orbitals with angular momentum L= 0

SPLIT: Basis orbitals for state 2s

SPLIT: PAO cut-off radius determined from an
SPLIT: energy shift=  0.005000 Ry
Split based on tail norm

   izeta = 1
                 lambda =    1.000000
                     rc =    3.812214
                 energy =   -1.771504
                kinetic =    1.675963
    potential(screened) =   -3.447467
       potential(ionic) =  -11.343845
PAO Filter: Cutoff used:  142.10 Ry
PAO Filter: diagnostic kin energy tol:    0.003000 Ry
PAO Filter: Nominal cutoff (before filtering):  117.95 Ry
Filter:    Number of eigenfunctions  of the
           filtering kernel (total, used)= 40 13

   izeta = 2
                 rmatch =    1.891855
              splitnorm =    0.280000
                 energy =   -0.658411
                kinetic =    4.147017
    potential(screened) =   -4.805428
       potential(ionic) =  -13.682672
PAO Filter: Cutoff used:  142.10 Ry
PAO Filter: diagnostic kin energy tol:    0.003000 Ry
PAO Filter: Nominal cutoff (before filtering):  173.72 Ry
Filter:    Number of eigenfunctions  of the
           filtering kernel (total, used)= 25  6

SPLIT: Orbitals with angular momentum L= 1

SPLIT: Basis orbitals for state 2p

SPLIT: PAO cut-off radius determined from an
SPLIT: energy shift=  0.005000 Ry
Split based on tail norm

   izeta = 1
                 lambda =    1.000000
                     rc =    4.762307
                 energy =   -0.675736
                kinetic =    4.938110
    potential(screened) =   -5.613846
       potential(ionic) =  -13.284802
PAO Filter: Cutoff used:  142.10 Ry
PAO Filter: diagnostic kin energy tol:    0.003000 Ry
PAO Filter: Nominal cutoff (before filtering):   95.70 Ry
Filter:    Number of eigenfunctions  of the
           filtering kernel (total, used)= 47 16

   izeta = 2
                 rmatch =    2.271492
              splitnorm =    0.280000
                 energy =   -0.195975
                kinetic =    8.556899
    potential(screened) =   -8.752874
       potential(ionic) =  -17.616199
PAO Filter: Cutoff used:  142.10 Ry
PAO Filter: diagnostic kin energy tol:    0.003000 Ry
PAO Filter: Nominal cutoff (before filtering):  102.30 Ry
Filter:    Number of eigenfunctions  of the
           filtering kernel (total, used)= 28  7

POLgen: Perturbative polarization orbital with L=  2

POLgen: Polarization orbital for state 2p
Split based on tail norm

   izeta = 1
                     rc =    4.762307
                 energy =    2.062551
                kinetic =    3.839367
    potential(screened) =   -1.776815
       potential(ionic) =   -7.691384
PAO Filter: diagnostic kin energy tol:    0.003000 Ry
PAO Filter: Nominal cutoff (before filtering):   97.50 Ry
Filter:    Number of eigenfunctions  of the
           filtering kernel (total, used)= 47 15
atom: Total number of Sankey-type orbitals: 13

atm_pop: Valence configuration (for local Pseudopot. screening):
 2s( 2.00)                                                            
 2p( 4.00)                                                            
 3d( 0.00)                                                            
Vna: chval, zval:    6.00000   6.00000

Vna:  Cut-off radius for the neutral-atom potential:   4.762307
VNA Filter: diagnostic kinetic energy tol:    0.003000 Ry
VNA Filter: Nominal cutoff (before filtering):   68.40 Ry
VNA Filter: Cutoff used:   290.00 Ry
Filter:    Number of eigenfunctions  of the
           filtering kernel (total, used)= 63 24

atom: _________________________________________________________________________

prinput: Basis input 

PAO.BasisType split     

%block ChemicalSpeciesLabel
    1    1 H                       # Species index, atomic number, species label
    2    7 N                       # Species index, atomic number, species label
    3   14 Si                      # Species index, atomic number, species label
    4    8 O                       # Species index, atomic number, species label
%endblock ChemicalSpeciesLabel

%block PAO.Basis                 # Define Basis set
# WARNING: This information might be incomplete!
H                     1                    # Species label, number of l-shells
 n=1   0   2 P   1                   # n, l, Nzeta, Polarization, NzetaPol
   5.772      1.632   
   1.000      1.000   
N                     2                    # Species label, number of l-shells
 n=2   0   2                         # n, l, Nzeta 
   4.265      2.173   
   1.000      1.000   
 n=2   1   2 P   1                   # n, l, Nzeta, Polarization, NzetaPol
   5.317      2.625   
   1.000      1.000   
Si                    2                    # Species label, number of l-shells
 n=3   0   2                         # n, l, Nzeta 
   5.819      3.323   
   1.000      1.000   
 n=3   1   2 P   1                   # n, l, Nzeta, Polarization, NzetaPol
   7.641      4.391   
   1.000      1.000   
O                     2                    # Species label, number of l-shells
 n=2   0   2                         # n, l, Nzeta 
   3.812      1.892   
   1.000      1.000   
 n=2   1   2 P   1                   # n, l, Nzeta, Polarization, NzetaPol
   4.762      2.271   
   1.000      1.000   
%endblock PAO.Basis

prinput: ----------------------------------------------------------------------

Dumping basis to NetCDF file H.ion.nc
Dumping basis to NetCDF file N.ion.nc
Dumping basis to NetCDF file Si.ion.nc
Dumping basis to NetCDF file O.ion.nc
coor:   Atomic-coordinates input format  =     Cartesian coordinates
coor:                                          (in Angstroms)

siesta: Atomic coordinates (Bohr) and species
siesta:      4.37762  -9.72897   0.00000  1        1
siesta:      2.65119  -8.76922   0.00000  2        2
siesta:     -0.32703 -10.35115   0.00000  3        3
siesta:     -0.14788 -13.13804   0.00000  1        4
siesta:     -3.06298  -8.69794   0.00000  2        5
siesta:     -2.06030  -5.43214   0.00000  3        6
siesta:     -2.91959  -1.34277   0.00000  3        7
siesta:     -5.92956  -0.11976   0.00000  2        8
siesta:     -6.52860   1.76776   0.00000  1        9
siesta:     -7.51857  -1.22630   0.00000  1       10
siesta:     -0.37363   0.75174   0.00000  2       11
siesta:      2.75298  -0.11944   0.00000  3       12
siesta:      4.55364   2.01604   0.00000  1       13
siesta:      4.29699  -2.97618   0.00000  2       14
siesta:      2.07630  -5.35501   0.00000  3       15
siesta:      1.12927  13.62374   0.00000  1       16
siesta:     -0.38917  12.35547   0.00000  2       17
siesta:     -3.48652  13.71671   0.00000  3       18
siesta:     -3.23685  16.52663   0.00000  1       19
siesta:     -6.73216  11.23438   0.00000  3       20
siesta:    -11.12759  11.26947   0.00000  3       21
siesta:    -12.00978  12.75823  -2.27113  1       22
siesta:    -11.51922   8.40997  -0.16286  1       23
siesta:    -12.18362  12.44800   2.43425  1       24
siesta:     -5.08958   7.31689   0.00000  3       25
siesta:     -6.92541   4.94996   0.00000  4       26
siesta:     -1.73261   7.02588   0.00000  2       27
siesta:     -1.06302   5.12880   0.00000  1       28
siesta:      0.76097   9.20406   0.00000  3       29
siesta:      3.65810   8.56443   0.00000  4       30

siesta: System type = molecule  

initatomlists: Number of atoms, orbitals, and projectors:     30   302   334

siesta: ******************** Simulation parameters ****************************
siesta:
siesta: The following are some of the parameters of the simulation.
siesta: A complete list of the parameters used, including default values,
siesta: can be found in file out.fdf
siesta:
redata: Spin configuration                          = spin-orbit+offsite
redata: Number of spin components                   = 8
redata: Time-Reversal Symmetry                      = F
redata: Spin spiral                                 = F
redata: Long output                                 =   F
redata: Number of Atomic Species                    =        4
redata: Charge density info will appear in .RHO file
redata: Write Mulliken Pop.                         = NO
redata: Matel table size (NRTAB)                    =     1024
redata: Mesh Cutoff                                 =   300.0000 Ry
redata: Net charge of the system                    =     0.0000 |e|
redata: Min. number of SCF Iter                     =        1
redata: Max. number of SCF Iter                     =      200
redata: SCF convergence failure will abort job
redata: SCF mix quantity                            = Hamiltonian
redata: Mix DM or H after convergence               =   F
redata: Recompute H after scf cycle                 =   F
redata: Mix DM in first SCF step                    =   T
redata: Write Pulay info on disk                    =   F
redata: New DM Occupancy tolerance                  = 0.000000000001
redata: No kicks to SCF
redata: DM Mixing Weight for Kicks                  =     0.5000
redata: Require Harris convergence for SCF          =   F
redata: Harris energy tolerance for SCF             =     0.000100 eV
redata: Require DM convergence for SCF              =   T
redata: DM tolerance for SCF                        =     0.000008
redata: Require EDM convergence for SCF             =   F
redata: EDM tolerance for SCF                       =     0.001000 eV
redata: Require H convergence for SCF               =   T
redata: Hamiltonian tolerance for SCF               =     0.000001 eV
redata: Require (free) Energy convergence for SCF   =   F
redata: (free) Energy tolerance for SCF             =     0.000100 eV
redata: Using DFT-D3 dispersion                     =   F
redata: Using Saved Data (generic)                  =   F
redata: Use continuation files for DM               =   T
redata: Neglect nonoverlap interactions             =   F
redata: Method of Calculation                       = Diagonalization
redata: Electronic Temperature                      =     1.0000 K
redata: Fix the spin of the system                  =   F
redata: Split SR and SO contributions               =   F
redata: Max. number of TDED Iter                    =        1
redata: Number of TDED substeps                     =        3
redata: Dynamics option                             = Broyden coord. optimization
redata: Variable cell                               =   F
redata: Maximum number of optimization moves        =     1000
redata: Force tolerance                             =     0.0080 eV/Ang
mix.SCF: Pulay mixing                            = Pulay
mix.SCF:    Variant                              = stable
mix.SCF:    History steps                        = 6
mix.SCF:    Linear mixing weight                 =     0.250000
mix.SCF:    Mixing weight                        =     0.250000
mix.SCF:    SVD condition                        = 0.1000E-07
mix.SCF:    Restart steps                        = 24
mix.SCF:    Restart save steps                   = 3
mix.SCF: Spin-component mixing                   all
redata: Save all siesta data in one NC              =   F
redata: ***********************************************************************

%block SCF.Mixers
  Pulay
%endblock SCF.Mixers

%block SCF.Mixer.Pulay
  # Mixing method
  method pulay
  variant stable

  # Mixing options
  weight 0.2500
  weight.linear 0.2500
  history 6
  restart 24
  restart.save 3
%endblock SCF.Mixer.Pulay

DM_history_depth set to one: no extrapolation allowed by default for geometry relaxation
Size of DM history Fstack: 1
Total number of electrons:    98.000000
Total ionic charge:    98.000000

* ProcessorY, Blocksize:    8   9


* Orbital distribution balance (max,min):    18     9


siesta: k-grid: Number of k-points = 1
siesta: k-point is Gamma-only

diag: Algorithm                                     = ELPA-2stage
diag: ELPA GPU string key                           = nvidia-gpu
diag: Parallel over k                               =   F
diag: Use parallel 2D distribution                  =   T
diag: Parallel block-size                           = 9
diag: Parallel distribution                         =     4 x     8
diag: Used triangular part                          = Lower
diag: Absolute tolerance                            =  0.100E-15
diag: Orthogonalization factor                      =  0.100E-05
diag: Memory factor                                 =  1.0000

siesta: Constraints applied in the following order:
siesta: Constraint v=[  0.00000,  0.00000,  1.00000] (30): pos-dir
  [ 1 -- 30 ]
siesta: Constraint (1): pos
  [ 6 ]


ts: **************************************************************
ts: Save H and S matrices                           =    F
ts: Save DM and EDM matrices                        =    F
ts: Only save the overlap matrix S                  =    F
ts: **************************************************************

************************ Begin: TS CHECKS AND WARNINGS ************************
************************ End: TS CHECKS AND WARNINGS **************************


                     ====================================
                        Begin Broyden opt. move =      0
                     ====================================

outcoor: Atomic coordinates (Ang):                          
    2.31653473   -5.14834903    0.00000000   1       1  H
    1.40295054   -4.64047007    0.00000000   2       2  N
   -0.17305462   -5.47759156    0.00000000   3       3  Si
   -0.07825592   -6.95235237    0.00000000   1       4  H
   -1.62086051   -4.60275182    0.00000000   2       5  N
   -1.09026419   -2.87456374    0.00000000   3       6  Si
   -1.54498205   -0.71056273    0.00000000   3       7  Si
   -3.13778666   -0.06337329    0.00000000   2       8  N
   -3.45478743    0.93546037    0.00000000   1       9  H
   -3.97865771   -0.64892738    0.00000000   1      10  H
   -0.19771536    0.39780325    0.00000000   2      11  N
    1.45681394   -0.06320645    0.00000000   3      12  Si
    2.40968441    1.06684500    0.00000000   1      13  H
    2.27386672   -1.57492915    0.00000000   2      14  N
    1.09873163   -2.83375100    0.00000000   3      15  Si
    0.59758242    7.20937325    0.00000000   1      16  H
   -0.20594101    6.53823254    0.00000000   2      17  N
   -1.84498478    7.25857131    0.00000000   3      18  Si
   -1.71286651    8.74551428    0.00000000   1      19  H
   -3.56250366    5.94497859    0.00000000   3      20  Si
   -5.88846916    5.96354846    0.00000000   3      21  Si
   -6.35530093    6.75136388   -1.20183078   1      22  H
   -6.09570956    4.45036591   -0.08618332   1      23  H
   -6.44729271    6.58719586    1.28814761   1      24  H
   -2.69328938    3.87193209    0.00000000   3      25  Si
   -3.66477176    2.61940744    0.00000000   4      26  O
   -0.91685760    3.71793697    0.00000000   2      27  N
   -0.56252603    2.71404584    0.00000000   1      28  H
    0.40268867    4.87058027    0.00000000   3      29  Si
    1.93578488    4.53210341    0.00000000   4      30  O

outcell: Unit cell vectors (Ang):
       16.855075    0.000000    0.000000
        0.000000   24.528070    0.000000
        0.000000    0.000000   10.315061

outcell: Cell vector modules (Ang)   :   16.855075   24.528070   10.315061
outcell: Cell angles (23,13,12) (deg):     90.0000     90.0000     90.0000
outcell: Cell volume (Ang**3)        :   4264.4779
<dSpData1D:S at geom step 0
  <sparsity:sparsity for geom step 0
    nrows_g=302 nrows=18 sparsity=.0320 nnzs=2916, refcount: 8>
  <dData1D:(new from dSpData1D) n=2916, refcount: 1>
refcount: 1>
new_DM -- step:     1
Initializing Density Matrix...

Attempting to read DM from file... Failed...
DM filled with atomic data:
<dSpData2D:DM initialized from atoms
  <sparsity:sparsity for geom step 0
    nrows_g=302 nrows=18 sparsity=.0320 nnzs=2916, refcount: 9>
  <dData2D:DM n=2916 m=8, refcount: 1>
refcount: 1>
     spin moment: {S} , |S| = {    0.00000    0.00000   56.00000 }    56.00000

InitMesh: MESH = 180 x 256 x 108 = 4976640
InitMesh: Mesh cutoff (required, used) =   300.000   301.061 Ry
New grid distribution [1]: sub = 2
New grid distribution [2]: sub = 2
New grid distribution [3]: sub = 2
Setting up quadratic distribution...

stepf: Fermi-Dirac step function

siesta: Program's energy decomposition (eV):
siesta: Ebs     =      -743.383388
siesta: Eions   =     11034.916955
siesta: Ena     =      1991.302547
siesta: Ekin    =      2983.427360
siesta: Enl(+so)=     -1932.150811
siesta: Eso(nil)=         0.000000
siesta: Edftu   =         0.000000
siesta: DEna    =        38.880357
siesta: DUscf   =        57.288301
siesta: DUext   =         0.000000
siesta: Ex      =     -2447.885992
siesta: Ec      =      -216.581566
siesta: Exc     =     -2664.467558
siesta: EbV     =         0.000000
siesta: eta*DQ  =         0.000000
siesta: Emadel  =         0.000000
siesta: Emeta   =         0.000000
siesta: Emolmec =         0.000000
siesta: Ekinion =         0.000000
siesta: Eharris =    -10513.561866
siesta: Etot    =    -10560.636759
siesta: FreeEng =    -10560.636759

        iscf     Eharris(eV)        E_KS(eV)     FreeEng(eV)     dDmax    Ef(eV) dHmax(eV)
   scf:    1   -10513.561866   -10560.636759   -10560.636759  0.937372 -4.475570 17.282198
     spin moment: {S} , |S| = {   -0.05708   -0.05708    1.99882 }     2.00045
timer: Routine,Calls,Time,% = IterSCF        1       5.230  13.06
   scf:    2   -10589.594038   -10585.465719   -10585.465719  0.521247 -4.012781  8.923819
     spin moment: {S} , |S| = {   -0.08117   -0.08118    1.99722 }     2.00051
   scf:    3   -10589.946971   -10590.801432   -10590.801432  0.474735 -4.138576  5.658099
     spin moment: {S} , |S| = {   -0.00709   -0.00708    0.00028 }     0.01003
   scf:    4   -10592.783651   -10591.883233   -10591.883233  0.026464 -4.026185  4.221015
     spin moment: {S} , |S| = {   -0.00519   -0.00518    0.00017 }     0.00733
   scf:    5   -10593.352211   -10592.634772   -10592.634772  0.041612 -3.860112  2.277326
     spin moment: {S} , |S| = {   -0.00276   -0.00276    0.00006 }     0.00390
   scf:    6   -10593.303538   -10592.963644   -10592.963644  0.036142 -3.731196  0.807389
     spin moment: {S} , |S| = {   -0.00120   -0.00120    0.00001 }     0.00170
   scf:    7   -10593.114820   -10593.036063   -10593.036063  0.014618 -3.718293  0.310952
     spin moment: {S} , |S| = {   -0.00065   -0.00064   -0.00000 }     0.00091
   scf:    8   -10593.084150   -10593.059233   -10593.059233  0.007983 -3.727684  0.184342
     spin moment: {S} , |S| = {   -0.00038   -0.00038   -0.00000 }     0.00053
   scf:    9   -10593.089322   -10593.073210   -10593.073210  0.007381 -3.733784  0.092659
     spin moment: {S} , |S| = {   -0.00018   -0.00018   -0.00000 }     0.00025
   scf:   10   -10593.083987   -10593.078177   -10593.078177  0.005415 -3.744334  0.059061
     spin moment: {S} , |S| = {   -0.00008   -0.00008   -0.00000 }     0.00011
   scf:   11   -10593.082569   -10593.080180   -10593.080180  0.003935 -3.746002  0.039775
     spin moment: {S} , |S| = {   -0.00003   -0.00003   -0.00000 }     0.00005
   scf:   12   -10593.081586   -10593.080824   -10593.080824  0.002432 -3.746666  0.030345
     spin moment: {S} , |S| = {   -0.00002   -0.00002   -0.00000 }     0.00002
   scf:   13   -10593.081601   -10593.081161   -10593.081161  0.002459 -3.745552  0.015051
     spin moment: {S} , |S| = {   -0.00001   -0.00001   -0.00000 }     0.00001
   scf:   14   -10593.081327   -10593.081234   -10593.081234  0.001174 -3.745273  0.010179
     spin moment: {S} , |S| = {   -0.00000   -0.00000   -0.00000 }     0.00001
   scf:   15   -10593.081301   -10593.081262   -10593.081262  0.000916 -3.745007  0.005301
     spin moment: {S} , |S| = {   -0.00000   -0.00000   -0.00000 }     0.00000
   scf:   16   -10593.081277   -10593.081269   -10593.081269  0.000426 -3.744909  0.002876
     spin moment: {S} , |S| = {   -0.00000   -0.00000   -0.00000 }     0.00000
   scf:   17   -10593.081275   -10593.081272   -10593.081272  0.000295 -3.744896  0.001583
     spin moment: {S} , |S| = {   -0.00000   -0.00000   -0.00000 }     0.00000
   scf:   18   -10593.081274   -10593.081272   -10593.081272  0.000149 -3.744857  0.000961
     spin moment: {S} , |S| = {   -0.00000   -0.00000   -0.00000 }     0.00000
   scf:   19   -10593.081273   -10593.081273   -10593.081273  0.000101 -3.744866  0.000381
     spin moment: {S} , |S| = {   -0.00000   -0.00000   -0.00000 }     0.00000
   scf:   20   -10593.081273   -10593.081273   -10593.081273  0.000022 -3.744857  0.000247
     spin moment: {S} , |S| = {   -0.00000   -0.00000   -0.00000 }     0.00000
   scf:   21   -10593.081272   -10593.081272   -10593.081272  0.000021 -3.744857  0.000137
     spin moment: {S} , |S| = {   -0.00000   -0.00000   -0.00000 }     0.00000
   scf:   22   -10593.081272   -10593.081272   -10593.081272  0.000005 -3.744858  0.000084
     spin moment: {S} , |S| = {   -0.00000   -0.00000   -0.00000 }     0.00000
   scf:   23   -10593.081272   -10593.081272   -10593.081272  0.000004 -3.744859  0.000053
     spin moment: {S} , |S| = {   -0.00000   -0.00000   -0.00000 }     0.00000
   scf:   24   -10593.081272   -10593.081272   -10593.081272  0.000003 -3.744862  0.000024
     spin moment: {S} , |S| = {   -0.00000   -0.00000   -0.00000 }     0.00000
mix: Pulay -- resetting history
   scf:   25   -10593.081272   -10593.081272   -10593.081272  0.000002 -3.744862  0.000011
     spin moment: {S} , |S| = {   -0.00000   -0.00000   -0.00000 }     0.00000
   scf:   26   -10593.081272   -10593.081272   -10593.081272  0.000001 -3.744862  0.000008
     spin moment: {S} , |S| = {   -0.00000   -0.00000   -0.00000 }     0.00000
   scf:   27   -10593.081272   -10593.081272   -10593.081272  0.000000 -3.744862  0.000005
     spin moment: {S} , |S| = {   -0.00000   -0.00000   -0.00000 }     0.00000
   scf:   28   -10593.081272   -10593.081272   -10593.081272  0.000000 -3.744863  0.000003
     spin moment: {S} , |S| = {   -0.00000   -0.00000   -0.00000 }     0.00000
   scf:   29   -10593.081272   -10593.081272   -10593.081272  0.000000 -3.744863  0.000001
     spin moment: {S} , |S| = {   -0.00000   -0.00000   -0.00000 }     0.00000
   scf:   30   -10593.081272   -10593.081272   -10593.081272  0.000000 -3.744863  0.000001
     spin moment: {S} , |S| = {   -0.00000   -0.00000   -0.00000 }     0.00000

SCF Convergence by DM+H criterion
max |DM_out - DM_in|         :     0.0000000652
max |H_out - H_in|      (eV) :     0.0000008114
SCF cycle converged after 30 iterations

Using DM_out to compute the final energy and forces

siesta: E_KS(eV) =           -10593.0813

siesta: E_KS - E_eggbox =    -10593.0813
     spin moment: {S} , |S| = {   -0.00000   -0.00000   -0.00000 }     0.00000

siesta: Atomic forces (eV/Ang):
     1   -0.112129    0.068582   -0.000001
     2   -0.367971    0.161369   -0.000003
     3   -0.173870    0.321913    0.000005
     4    0.021609   -0.003668   -0.000003
     5    0.670014    0.251127    0.000008
     6   -0.304895   -0.493928   -0.000032
     7    0.042625    0.547345   -0.000001
     8   -0.041519   -0.017321    0.000033
     9    0.057506   -0.454040   -0.000935
    10    0.247954    0.114476    0.000611
    11   -0.004436   -0.433870    0.000026
    12   -0.125890   -0.192158    0.000006
    13    0.024628    0.077668    0.000001
    14   -0.663147   -0.005078   -0.000009
    15    0.640024   -0.059778    0.000015
    16   -0.145862   -0.159858   -0.004213
    17   -0.203975   -0.043336   -0.004643
    18    0.439769    0.093997    0.020289
    19   -0.007177   -0.025836   -0.017345
    20    0.014803    0.061365    0.039065
    21   -0.136059   -0.050731    0.292984
    22    0.017439   -0.008884   -1.644336
    23   -0.051144    0.074444   -0.238691
    24    0.027480   -0.011107    1.548751
    25   -0.187384   -0.845633    0.013729
    26    0.386263    0.811751   -0.001701
    27   -0.032922    0.021081   -0.003403
    28   -0.076337    0.275675   -0.001389
    29    0.561049   -0.111343   -0.000023
    30   -0.792306    0.220239    0.000588
----------------------------------------
   Tot   -0.275859    0.184459   -0.000618
----------------------------------------
   Max    1.644336
   Res    0.350726    sqrt( Sum f_i^2 / 3N )
----------------------------------------
   Max    0.845633    constrained

Stress tensor Voigt[x,y,z,yz,xz,xy] (kbar):        2.41        1.76       -1.50        0.00       -0.01        0.13
(Free)E + p*V (eV/cell)   -10595.4516
Target enthalpy (eV/cell)   -10593.0813

Broyden_optim: max_history for broyden:   5
Broyden_optim: cycle on maxit: T
Broyden_optim: initial inverse jacobian:   1.0000

Broyden_optim: No of elements:     90

                     ====================================
                        Begin Broyden opt. move =      1
                     ====================================

outcoor: Atomic coordinates (Ang):                          
    2.31422693   -5.14693750    0.00000000   1       1  H
    1.39537707   -4.63714882    0.00000000   2       2  N
   -0.17663317   -5.47096604    0.00000000   3       3  Si
   -0.07781116   -6.95242787    0.00000000   1       4  H
   -1.60707048   -4.59758320    0.00000000   2       5  N
   -1.09026419   -2.87456374    0.00000000   3       6  Si
   -1.54410475   -0.69929743    0.00000000   3       7  Si
   -3.13864120   -0.06372980    0.00000000   2       8  N
   -3.45360385    0.92611545    0.00000000   1       9  H
   -3.97355438   -0.64657126    0.00000000   1      10  H
   -0.19780666    0.38887346    0.00000000   2      11  N
    1.45422290   -0.06716140    0.00000000   3      12  Si
    2.41019130    1.06844354    0.00000000   1      13  H
    2.26021802   -1.57503366    0.00000000   2      14  N
    1.11190443   -2.83498134    0.00000000   3      15  Si
    0.59458032    7.20608310    0.00000000   1      16  H
   -0.21013916    6.53734060    0.00000000   2      17  N
   -1.83593358    7.26050592    0.00000000   3      18  Si
   -1.71301422    8.74498252    0.00000000   1      19  H
   -3.56219900    5.94624159    0.00000000   3      20  Si
   -5.89126949    5.96250434    0.00000000   3      21  Si
   -6.35494201    6.75118103   -1.20183078   1      22  H
   -6.09676220    4.45189809   -0.08618332   1      23  H
   -6.44672713    6.58696725    1.28814761   1      24  H
   -2.69714606    3.85452750    0.00000000   3      25  Si
   -3.65682180    2.63611467    0.00000000   4      26  O
   -0.91753519    3.71837085    0.00000000   2      27  N
   -0.56409717    2.71971970    0.00000000   1      28  H
    0.41423601    4.86828864    0.00000000   3      29  Si
    1.91947786    4.53663630    0.00000000   4      30  O

outcell: Unit cell vectors (Ang):
       16.855075    0.000000    0.000000
        0.000000   24.528070    0.000000
        0.000000    0.000000   10.315061

outcell: Cell vector modules (Ang)   :   16.855075   24.528070   10.315061
outcell: Cell angles (23,13,12) (deg):     90.0000     90.0000     90.0000
outcell: Cell volume (Ang**3)        :   4264.4779
<dSpData1D:S at geom step 1
  <sparsity:sparsity for geom step 1
    nrows_g=302 nrows=18 sparsity=.0320 nnzs=2916, refcount: 8>
  <dData1D:(new from dSpData1D) n=2916, refcount: 1>
refcount: 1>
new_DM -- step:     2
Re-using DM from previous geometries...
Number of DMs in history: 1
 DM extrapolation coefficients: 
1   1.00000
New DM after history re-use:
<dSpData2D:SpM extrapolated using coords
  <sparsity:sparsity for geom step 1
    nrows_g=302 nrows=18 sparsity=.0320 nnzs=2916, refcount: 10>
  <dData2D:(temp array for extrapolation) n=2916 m=8, refcount: 1>
refcount: 1>
     spin moment: {S} , |S| = {    0.00006    0.00006   -0.00000 }     0.00008

InitMesh: MESH = 180 x 256 x 108 = 4976640
InitMesh: Mesh cutoff (required, used) =   300.000   301.061 Ry
New grid distribution [1]: sub = 2
New grid distribution [2]: sub = 2
New grid distribution [3]: sub = 2
Setting up quadratic distribution...

        iscf     Eharris(eV)        E_KS(eV)     FreeEng(eV)     dDmax    Ef(eV) dHmax(eV)
   scf:    1   -10592.743545   -10593.113891   -10593.113891  0.013136 -3.836070  0.305444
     spin moment: {S} , |S| = {   -0.00000   -0.00000   -0.00000 }     0.00000
   scf:    2   -10592.903657   -10593.059060   -10593.059060  0.015328 -3.465872  0.969104
     spin moment: {S} , |S| = {   -0.00000   -0.00000   -0.00000 }     0.00000
   scf:    3   -10593.146351   -10593.129320   -10593.129320  0.012952 -3.891569  0.056077
     spin moment: {S} , |S| = {   -0.00000   -0.00000   -0.00000 }     0.00000
   scf:    4   -10593.129714   -10593.129561   -10593.129561  0.000521 -3.901993  0.025340
     spin moment: {S} , |S| = {   -0.00000   -0.00000   -0.00000 }     0.00000
   scf:    5   -10593.129659   -10593.129616   -10593.129616  0.000452 -3.908598  0.008094
     spin moment: {S} , |S| = {   -0.00000   -0.00000   -0.00000 }     0.00000
   scf:    6   -10593.129627   -10593.129622   -10593.129622  0.000180 -3.909943  0.004030
     spin moment: {S} , |S| = {   -0.00000   -0.00000   -0.00000 }     0.00000
   scf:    7   -10593.129624   -10593.129623   -10593.129623  0.000101 -3.910658  0.001546
     spin moment: {S} , |S| = {   -0.00000   -0.00000   -0.00000 }     0.00000
   scf:    8   -10593.129624   -10593.129624   -10593.129624  0.000055 -3.910757  0.000424
     spin moment: {S} , |S| = {   -0.00000   -0.00000   -0.00000 }     0.00000
   scf:    9   -10593.129624   -10593.129624   -10593.129624  0.000016 -3.910773  0.000261
     spin moment: {S} , |S| = {   -0.00000   -0.00000   -0.00000 }     0.00000
   scf:   10   -10593.129624   -10593.129624   -10593.129624  0.000005 -3.910765  0.000103
     spin moment: {S} , |S| = {   -0.00000   -0.00000   -0.00000 }     0.00000
   scf:   11   -10593.129624   -10593.129624   -10593.129624  0.000001 -3.910767  0.000035
     spin moment: {S} , |S| = {   -0.00000   -0.00000   -0.00000 }     0.00000
   scf:   12   -10593.129624   -10593.129624   -10593.129624  0.000001 -3.910767  0.000008
     spin moment: {S} , |S| = {   -0.00000   -0.00000   -0.00000 }     0.00000
   scf:   13   -10593.129624   -10593.129624   -10593.129624  0.000000 -3.910767  0.000005
     spin moment: {S} , |S| = {   -0.00000   -0.00000   -0.00000 }     0.00000
   scf:   14   -10593.129624   -10593.129624   -10593.129624  0.000000 -3.910766  0.000002
     spin moment: {S} , |S| = {   -0.00000   -0.00000   -0.00000 }     0.00000
   scf:   15   -10593.129624   -10593.129624   -10593.129624  0.000000 -3.910765  0.000001
     spin moment: {S} , |S| = {   -0.00000   -0.00000   -0.00000 }     0.00000
   scf:   16   -10593.129624   -10593.129624   -10593.129624  0.000000 -3.910765  0.000001
     spin moment: {S} , |S| = {   -0.00000   -0.00000   -0.00000 }     0.00000

SCF Convergence by DM+H criterion
max |DM_out - DM_in|         :     0.0000000408
max |H_out - H_in|      (eV) :     0.0000006028
SCF cycle converged after 16 iterations

Using DM_out to compute the final energy and forces

siesta: E_KS(eV) =           -10593.1296
     spin moment: {S} , |S| = {   -0.00000   -0.00000   -0.00000 }     0.00000

siesta: Atomic forces (eV/Ang):
     1   -0.296737    0.251752   -0.000000
     2    0.133437   -0.031054   -0.000002
     3    0.076001   -0.049893    0.000004
     4   -0.076040    0.030573   -0.000002
     5    0.256086    0.390477    0.000006
     6   -0.107342   -0.217997   -0.000026
     7   -0.025633    0.136131   -0.000000
     8    0.297767   -0.014604    0.000033
     9   -0.445216   -1.352086   -0.001976
    10    0.381542    1.217577    0.000629
    11    0.077838   -0.293709    0.000022
    12   -0.093171    0.003165    0.000005
    13   -0.106690    0.043780    0.000001
    14   -0.272260    0.113477   -0.000008
    15    0.013819   -0.230941    0.000013
    16   -0.061756   -0.154832   -0.004250
    17    0.081233   -0.215423   -0.004709
    18    0.115503   -0.006064    0.020732
    19   -0.033957    0.069698   -0.017425
    20    0.151952   -0.039124    0.038568
    21   -0.047033    0.016649    0.293803
    22   -0.013755    0.106947   -1.705073
    23   -0.007158   -0.241837   -0.252880
    24   -0.009192    0.095707    1.624225
    25    0.697809    0.665444    0.013993
    26   -0.468988   -0.561550   -0.001832
    27    0.078702    0.058729   -0.003483
    28   -0.062822    0.125292   -0.001330
    29   -1.081505    0.219786   -0.000111
    30    0.611223   -0.093893    0.000621
----------------------------------------
   Tot   -0.236341    0.042174   -0.000452
----------------------------------------
   Max    1.705073
   Res    0.386999    sqrt( Sum f_i^2 / 3N )
----------------------------------------
   Max    1.352086    constrained

Stress tensor Voigt[x,y,z,yz,xz,xy] (kbar):        1.12        1.42       -1.56       -0.01       -0.00        0.07
(Free)E + p*V (eV/cell)   -10593.9898
Target enthalpy (eV/cell)   -10593.1296

                     ====================================
                        Begin Broyden opt. move =      2
                     ====================================

outcoor: Atomic coordinates (Ang):                          
    2.31162735   -5.14473202    0.00000000   1       1  H
    1.39654605   -4.63742086    0.00000000   2       2  N
   -0.17596736   -5.47140313    0.00000000   3       3  Si
   -0.07847732   -6.95216003    0.00000000   1       4  H
   -1.60482702   -4.59416241    0.00000000   2       5  N
   -1.09026419   -2.87456374    0.00000000   3       6  Si
   -1.54432930   -0.69810485    0.00000000   3       7  Si
   -3.13603260   -0.06385774    0.00000000   2       8  N
   -3.45750419    0.91427044    0.00000000   1       9  H
   -3.97021187   -0.63590463    0.00000000   1      10  H
   -0.19712476    0.38630041    0.00000000   2      11  N
    1.45340667   -0.06713367    0.00000000   3      12  Si
    2.40925664    1.06882708    0.00000000   1      13  H
    2.25783287   -1.57403954    0.00000000   2      14  N
    1.11202549   -2.83700451    0.00000000   3      15  Si
    0.59403931    7.20472669    0.00000000   1      16  H
   -0.20942752    6.53545338    0.00000000   2      17  N
   -1.83492171    7.26045279    0.00000000   3      18  Si
   -1.71331170    8.74559312    0.00000000   1      19  H
   -3.56086782    5.94589885    0.00000000   3      20  Si
   -5.89168152    5.96265019    0.00000000   3      21  Si
   -6.35506251    6.75211794   -1.20183078   1      22  H
   -6.09682491    4.44977947   -0.08618332   1      23  H
   -6.44680765    6.58780570    1.28814761   1      24  H
   -2.69103287    3.86035715    0.00000000   3      25  Si
   -3.66093039    2.63119519    0.00000000   4      26  O
   -0.91684572    3.71888535    0.00000000   2      27  N
   -0.56464752    2.72081733    0.00000000   1      28  H
    0.40476145    4.87021409    0.00000000   3      29  Si
    1.92483250    4.53581375    0.00000000   4      30  O

outcell: Unit cell vectors (Ang):
       16.855075    0.000000    0.000000
        0.000000   24.528070    0.000000
        0.000000    0.000000   10.315061

outcell: Cell vector modules (Ang)   :   16.855075   24.528070   10.315061
outcell: Cell angles (23,13,12) (deg):     90.0000     90.0000     90.0000
outcell: Cell volume (Ang**3)        :   4264.4779
<dSpData1D:S at geom step 2
  <sparsity:sparsity for geom step 2
    nrows_g=302 nrows=18 sparsity=.0320 nnzs=2916, refcount: 8>
  <dData1D:(new from dSpData1D) n=2916, refcount: 1>
refcount: 1>
new_DM -- step:     3
Re-using DM from previous geometries...
Number of DMs in history: 1
 DM extrapolation coefficients: 
1   1.00000
New DM after history re-use:
<dSpData2D:SpM extrapolated using coords
  <sparsity:sparsity for geom step 2
    nrows_g=302 nrows=18 sparsity=.0320 nnzs=2916, refcount: 10>
  <dData2D:(temp array for extrapolation) n=2916 m=8, refcount: 1>
refcount: 1>
     spin moment: {S} , |S| = {   -0.00001   -0.00001   -0.00000 }     0.00002

InitMesh: MESH = 180 x 256 x 108 = 4976640
InitMesh: Mesh cutoff (required, used) =   300.000   301.061 Ry
New grid distribution [1]: sub = 2
New grid distribution [2]: sub = 2
New grid distribution [3]: sub = 2
Setting up quadratic distribution...

        iscf     Eharris(eV)        E_KS(eV)     FreeEng(eV)     dDmax    Ef(eV) dHmax(eV)
   scf:    1   -10593.110699   -10593.199432   -10593.199432  0.007679 -3.852562  0.232629
     spin moment: {S} , |S| = {   -0.00000   -0.00000   -0.00000 }     0.00000
   scf:    2   -10593.161982   -10593.189076   -10593.189076  0.006952 -3.737079  0.524174
     spin moment: {S} , |S| = {   -0.00000   -0.00000   -0.00000 }     0.00000
   scf:    3   -10593.203936   -10593.201422   -10593.201422  0.005081 -3.810928  0.043124
     spin moment: {S} , |S| = {   -0.00000   -0.00000   -0.00000 }     0.00000
   scf:    4   -10593.201521   -10593.201484   -10593.201484  0.000550 -3.797765  0.010304
     spin moment: {S} , |S| = {   -0.00000   -0.00000   -0.00000 }     0.00000
   scf:    5   -10593.201496   -10593.201491   -10593.201491  0.000185 -3.795203  0.004398
     spin moment: {S} , |S| = {   -0.00000   -0.00000   -0.00000 }     0.00000
   scf:    6   -10593.201493   -10593.201492   -10593.201492  0.000064 -3.794967  0.001568
     spin moment: {S} , |S| = {   -0.00000   -0.00000   -0.00000 }     0.00000
   scf:    7   -10593.201493   -10593.201493   -10593.201493  0.000033 -3.795087  0.000398
     spin moment: {S} , |S| = {   -0.00000   -0.00000   -0.00000 }     0.00000
   scf:    8   -10593.201493   -10593.201493   -10593.201493  0.000011 -3.795103  0.000293
     spin moment: {S} , |S| = {   -0.00000   -0.00000   -0.00000 }     0.00000
   scf:    9   -10593.201493   -10593.201493   -10593.201493  0.000005 -3.795107  0.000155
     spin moment: {S} , |S| = {   -0.00000   -0.00000   -0.00000 }     0.00000
   scf:   10   -10593.201493   -10593.201493   -10593.201493  0.000003 -3.795120  0.000030
     spin moment: {S} , |S| = {   -0.00000   -0.00000   -0.00000 }     0.00000
   scf:   11   -10593.201493   -10593.201493   -10593.201493  0.000000 -3.795120  0.000013
     spin moment: {S} , |S| = {   -0.00000   -0.00000   -0.00000 }     0.00000
   scf:   12   -10593.201493   -10593.201493   -10593.201493  0.000001 -3.795122  0.000007
     spin moment: {S} , |S| = {   -0.00000   -0.00000   -0.00000 }     0.00000
   scf:   13   -10593.201493   -10593.201493   -10593.201493  0.000000 -3.795122  0.000003
     spin moment: {S} , |S| = {   -0.00000   -0.00000   -0.00000 }     0.00000
   scf:   14   -10593.201493   -10593.201493   -10593.201493  0.000000 -3.795122  0.000001
     spin moment: {S} , |S| = {   -0.00000   -0.00000   -0.00000 }     0.00000

SCF Convergence by DM+H criterion
max |DM_out - DM_in|         :     0.0000001105
max |H_out - H_in|      (eV) :     0.0000009617
SCF cycle converged after 14 iterations

Using DM_out to compute the final energy and forces

siesta: E_KS(eV) =           -10593.2015
     spin moment: {S} , |S| = {   -0.00000   -0.00000   -0.00000 }     0.00000

siesta: Atomic forces (eV/Ang):
     1   -0.055437    0.152526   -0.000001
     2   -0.084494    0.067169   -0.000002
     3    0.054814   -0.018895    0.000004
     4   -0.101140    0.003754   -0.000002
     5    0.275080    0.344549    0.000007
     6   -0.086442   -0.158718   -0.000028
     7    0.029776    0.075035   -0.000000
     8    0.488094    0.071772    0.000031
     9   -0.765630   -2.582776   -0.002446
    10    0.600170    2.503142    0.000498
    11    0.043587   -0.276709    0.000023
    12   -0.061706    0.010786    0.000005
    13   -0.108775    0.042073    0.000001
    14   -0.258278    0.064512   -0.000008
    15    0.018698   -0.180797    0.000013
    16   -0.085664   -0.109949   -0.004217
    17   -0.035707   -0.110224   -0.004756
    18    0.097818    0.015009    0.020558
    19    0.036058    0.019730   -0.017308
    20    0.125490    0.005013    0.038540
    21   -0.043728   -0.029305    0.290485
    22    0.012061   -0.087389   -1.610175
    23   -0.031214    0.123958   -0.241701
    24    0.020263   -0.063169    1.522080
    25    0.147924    0.028085    0.013927
    26   -0.053847    0.037794   -0.001761
    27    0.029194    0.014116   -0.003479
    28   -0.209644    0.018721   -0.001322
    29   -0.111519    0.015368   -0.000041
    30   -0.144311    0.067875    0.000599
----------------------------------------
   Tot   -0.258509    0.063056   -0.000476
----------------------------------------
   Max    2.582776
   Res    0.469844    sqrt( Sum f_i^2 / 3N )
----------------------------------------
   Max    2.582776    constrained

Stress tensor Voigt[x,y,z,yz,xz,xy] (kbar):        1.60        2.67       -1.47       -0.00       -0.01        0.43
(Free)E + p*V (eV/cell)   -10595.6864
Target enthalpy (eV/cell)   -10593.2015

                     ====================================
                        Begin Broyden opt. move =      3
                     ====================================

outcoor: Atomic coordinates (Ang):                          
    2.31125505   -5.14513390    0.00000000   1       1  H
    1.39745796   -4.63795629    0.00000000   2       2  N
   -0.17614834   -5.47140059    0.00000000   3       3  Si
   -0.07798125   -6.95210836    0.00000000   1       4  H
   -1.60605178   -4.59552038    0.00000000   2       5  N
   -1.09026419   -2.87456374    0.00000000   3       6  Si
   -1.54459663   -0.69827154    0.00000000   3       7  Si
   -3.13860136   -0.06438294    0.00000000   2       8  N
   -3.45341958    0.92842785    0.00000000   1       9  H
   -3.97333157   -0.64985996    0.00000000   1      10  H
   -0.19722471    0.38744122    0.00000000   2      11  N
    1.45359118   -0.06719906    0.00000000   3      12  Si
    2.40972724    1.06865141    0.00000000   1      13  H
    2.25890246   -1.57419185    0.00000000   2      14  N
    1.11193318   -2.83635772    0.00000000   3      15  Si
    0.59446616    7.20508368    0.00000000   1      16  H
   -0.20897941    6.53565920    0.00000000   2      17  N
   -1.83529550    7.26033536    0.00000000   3      18  Si
   -1.71364279    8.74563492    0.00000000   1      19  H
   -3.56133783    5.94576592    0.00000000   3      20  Si
   -5.89150280    5.96289162    0.00000000   3      21  Si
   -6.35517931    6.75298262   -1.20183078   1      22  H
   -6.09663061    4.44832528   -0.08618332   1      23  H
   -6.44696873    6.58847721    1.28814761   1      24  H
   -2.69027682    3.86184680    0.00000000   3      25  Si
   -3.66174857    2.62951972    0.00000000   4      26  O
   -0.91684556    3.71893764    0.00000000   2      27  N
   -0.56337984    2.72100641    0.00000000   1      28  H
    0.40278859    4.87066465    0.00000000   3      29  Si
    1.92735814    4.53511480    0.00000000   4      30  O

outcell: Unit cell vectors (Ang):
       16.855075    0.000000    0.000000
        0.000000   24.528070    0.000000
        0.000000    0.000000   10.315061

outcell: Cell vector modules (Ang)   :   16.855075   24.528070   10.315061
outcell: Cell angles (23,13,12) (deg):     90.0000     90.0000     90.0000
outcell: Cell volume (Ang**3)        :   4264.4779
<dSpData1D:S at geom step 3
  <sparsity:sparsity for geom step 3
    nrows_g=302 nrows=18 sparsity=.0320 nnzs=2916, refcount: 8>
  <dData1D:(new from dSpData1D) n=2916, refcount: 1>
refcount: 1>
new_DM -- step:     4
Re-using DM from previous geometries...
Number of DMs in history: 1
 DM extrapolation coefficients: 
1   1.00000
New DM after history re-use:
<dSpData2D:SpM extrapolated using coords
  <sparsity:sparsity for geom step 3
    nrows_g=302 nrows=18 sparsity=.0320 nnzs=2916, refcount: 10>
  <dData2D:(temp array for extrapolation) n=2916 m=8, refcount: 1>
refcount: 1>
     spin moment: {S} , |S| = {   -0.00001   -0.00001   -0.00000 }     0.00002

InitMesh: MESH = 180 x 256 x 108 = 4976640
InitMesh: Mesh cutoff (required, used) =   300.000   301.061 Ry
New grid distribution [1]: sub = 2
New grid distribution [2]: sub = 2
New grid distribution [3]: sub = 2
Setting up quadratic distribution...

        iscf     Eharris(eV)        E_KS(eV)     FreeEng(eV)     dDmax    Ef(eV) dHmax(eV)
   scf:    1   -10593.213989   -10593.139535   -10593.139535  0.004530 -3.815681  0.094748
     spin moment: {S} , |S| = {   -0.00000   -0.00000   -0.00000 }     0.00000
   scf:    2   -10593.117613   -10593.133271   -10593.133271  0.005190 -3.796552  0.297253
     spin moment: {S} , |S| = {   -0.00000   -0.00000   -0.00000 }     0.00000
   scf:    3   -10593.141842   -10593.140384   -10593.140384  0.004132 -3.812470  0.024433
     spin moment: {S} , |S| = {   -0.00000   -0.00000   -0.00000 }     0.00000
   scf:    4   -10593.140414   -10593.140402   -10593.140402  0.000329 -3.811948  0.008009
     spin moment: {S} , |S| = {   -0.00000   -0.00000   -0.00000 }     0.00000
   scf:    5   -10593.140406   -10593.140405   -10593.140405  0.000206 -3.811956  0.002409
     spin moment: {S} , |S| = {   -0.00000   -0.00000   -0.00000 }     0.00000
   scf:    6   -10593.140405   -10593.140405   -10593.140405  0.000090 -3.812008  0.000735
     spin moment: {S} , |S| = {   -0.00000   -0.00000   -0.00000 }     0.00000
   scf:    7   -10593.140405   -10593.140405   -10593.140405  0.000024 -3.812099  0.000414
     spin moment: {S} , |S| = {   -0.00000   -0.00000   -0.00000 }     0.00000
   scf:    8   -10593.140405   -10593.140405   -10593.140405  0.000011 -3.812186  0.000131
     spin moment: {S} , |S| = {   -0.00000   -0.00000   -0.00000 }     0.00000
   scf:    9   -10593.140405   -10593.140405   -10593.140405  0.000003 -3.812208  0.000055
     spin moment: {S} , |S| = {   -0.00000   -0.00000   -0.00000 }     0.00000
   scf:   10   -10593.140405   -10593.140405   -10593.140405  0.000003 -3.812220  0.000053
     spin moment: {S} , |S| = {   -0.00000   -0.00000   -0.00000 }     0.00000
   scf:   11   -10593.140405   -10593.140405   -10593.140405  0.000002 -3.812223  0.000021
     spin moment: {S} , |S| = {   -0.00000   -0.00000   -0.00000 }     0.00000
   scf:   12   -10593.140405   -10593.140405   -10593.140405  0.000001 -3.812224  0.000012
     spin moment: {S} , |S| = {   -0.00000   -0.00000   -0.00000 }     0.00000
   scf:   13   -10593.140405   -10593.140405   -10593.140405  0.000000 -3.812224  0.000003
     spin moment: {S} , |S| = {   -0.00000   -0.00000   -0.00000 }     0.00000
   scf:   14   -10593.140405   -10593.140405   -10593.140405  0.000000 -3.812224  0.000002
     spin moment: {S} , |S| = {   -0.00000   -0.00000   -0.00000 }     0.00000
   scf:   15   -10593.140405   -10593.140405   -10593.140405  0.000000 -3.812224  0.000001
     spin moment: {S} , |S| = {   -0.00000   -0.00000   -0.00000 }     0.00000

SCF Convergence by DM+H criterion
max |DM_out - DM_in|         :     0.0000000664
max |H_out - H_in|      (eV) :     0.0000008246
SCF cycle converged after 15 iterations

Using DM_out to compute the final energy and forces

siesta: E_KS(eV) =           -10593.1404
     spin moment: {S} , |S| = {   -0.00000   -0.00000   -0.00000 }     0.00000

siesta: Atomic forces (eV/Ang):
     1    0.068105    0.171683   -0.000001
     2   -0.165709    0.113392   -0.000003
     3    0.070436   -0.014745    0.000005
     4   -0.168772   -0.048565   -0.000003
     5    0.276222    0.353683    0.000008
     6   -0.090972   -0.181566   -0.000031
     7   -0.011281    0.101488   -0.000001
     8    0.202743    0.005959    0.000033
     9   -0.236868   -0.892103   -0.001507
    10    0.275732    0.738568    0.000626
    11    0.046496   -0.277814    0.000024
    12   -0.065292    0.011240    0.000006
    13   -0.100346    0.036719    0.000001
    14   -0.269833    0.075906   -0.000009
    15    0.029071   -0.205969    0.000015
    16   -0.119569   -0.095066   -0.004214
    17   -0.062601   -0.087434   -0.004758
    18    0.111180    0.018730    0.020547
    19    0.067985   -0.004045   -0.017170
    20    0.129217    0.014236    0.038543
    21   -0.061297   -0.054621    0.288424
    22    0.031005   -0.239843   -1.536558
    23   -0.093922    0.464489   -0.238001
    24    0.041929   -0.183202    1.445499
    25    0.055764   -0.103014    0.013937
    26    0.032645    0.161863   -0.001755
    27    0.015840    0.005115   -0.003481
    28   -0.071747    0.106011   -0.001338
    29    0.153270   -0.035260   -0.000024
    30   -0.369993    0.117995    0.000594
----------------------------------------
   Tot   -0.280561    0.073828   -0.000591
----------------------------------------
   Max    1.536558
   Res    0.285099    sqrt( Sum f_i^2 / 3N )
----------------------------------------
   Max    0.892103    constrained

Stress tensor Voigt[x,y,z,yz,xz,xy] (kbar):        1.52        1.80       -1.40       -0.00       -0.01       -0.01
(Free)E + p*V (eV/cell)   -10594.8392
Target enthalpy (eV/cell)   -10593.1404

                     ====================================
                        Begin Broyden opt. move =      4
                     ====================================

outcoor: Atomic coordinates (Ang):                          
    2.31218169   -5.14211704    0.00000000   1       1  H
    1.39533758   -4.63637086    0.00000000   2       2  N
   -0.17493162   -5.47170689    0.00000000   3       3  Si
   -0.08081528   -6.95308631    0.00000000   1       4  H
   -1.60212748   -4.59015932    0.00000000   2       5  N
   -1.09026419   -2.87456374    0.00000000   3       6  Si
   -1.54528119   -0.69636767    0.00000000   3       7  Si
   -3.13851967   -0.06512309    0.00000000   2       8  N
   -3.45169355    0.93282173    0.00000000   1       9  H
   -3.97259413   -0.65723244    0.00000000   1      10  H
   -0.19639493    0.38335067    0.00000000   2      11  N
    1.45249595   -0.06706369    0.00000000   3      12  Si
    2.40834716    1.06914964    0.00000000   1      13  H
    2.25486278   -1.57281630    0.00000000   2      14  N
    1.11240977   -2.83971838    0.00000000   3      15  Si
    0.59258536    7.20363991    0.00000000   1      16  H
   -0.20961472    6.53414312    0.00000000   2      17  N
   -1.83352048    7.26054925    0.00000000   3      18  Si
   -1.71270573    8.74560161    0.00000000   1      19  H
   -3.55933773    5.94586320    0.00000000   3      20  Si
[...]
   -1.55905740   -0.71070924    0.00000000   3       7  Si
   -3.15067761   -0.08622324    0.00000000   2       8  N
   -3.48630298    0.89912574    0.00000000   1       9  H
   -3.96728977   -0.69941153    0.00000000   1      10  H
   -0.21218472    0.35580572    0.00000000   2      11  N
    1.43461306   -0.06611554    0.00000000   3      12  Si
    2.37582768    1.07912799    0.00000000   1      13  H
    2.22877192   -1.56840042    0.00000000   2      14  N
    1.10524093   -2.84221141    0.00000000   3      15  Si
    0.58010322    7.16166937    0.00000000   1      16  H
   -0.23236230    6.50548542    0.00000000   2      17  N
   -1.83773068    7.26064214    0.00000000   3      18  Si
   -1.69845748    8.74461162    0.00000000   1      19  H
   -3.56191711    5.94732786    0.00000000   3      20  Si
   -5.89499285    5.95411646    0.00000000   3      21  Si
   -6.34944714    6.74723983   -1.20183078   1      22  H
   -6.11586288    4.44346724   -0.08618332   1      23  H
   -6.43894571    6.58478166    1.28814761   1      24  H
   -2.71296327    3.85591396    0.00000000   3      25  Si
   -3.69332121    2.63310706    0.00000000   4      26  O
   -0.94774783    3.70358662    0.00000000   2      27  N
   -0.60692836    2.70714504    0.00000000   1      28  H
    0.37202226    4.84666649    0.00000000   3      29  Si
    1.89423136    4.53333576    0.00000000   4      30  O

outcell: Unit cell vectors (Ang):
       16.855075    0.000000    0.000000
        0.000000   24.528070    0.000000
        0.000000    0.000000   10.315061

outcell: Cell vector modules (Ang)   :   16.855075   24.528070   10.315061
outcell: Cell angles (23,13,12) (deg):     90.0000     90.0000     90.0000
outcell: Cell volume (Ang**3)        :   4264.4779
<dSpData1D:S at geom step 103
  <sparsity:sparsity for geom step 103
    nrows_g=302 nrows=18 sparsity=.0320 nnzs=2916, refcount: 8>
  <dData1D:(new from dSpData1D) n=2916, refcount: 1>
refcount: 1>
new_DM -- step:   104
Re-using DM from previous geometries...
Number of DMs in history: 1
 DM extrapolation coefficients: 
1   1.00000
New DM after history re-use:
<dSpData2D:SpM extrapolated using coords
  <sparsity:sparsity for geom step 103
    nrows_g=302 nrows=18 sparsity=.0320 nnzs=2916, refcount: 10>
  <dData2D:(temp array for extrapolation) n=2916 m=8, refcount: 1>
refcount: 1>
     spin moment: {S} , |S| = {   -0.00000   -0.00000   -0.00000 }     0.00000

InitMesh: MESH = 180 x 256 x 108 = 4976640
InitMesh: Mesh cutoff (required, used) =   300.000   301.061 Ry
New grid distribution [1]: sub = 2
New grid distribution [2]: sub = 2
New grid distribution [3]: sub = 2
Setting up quadratic distribution...

        iscf     Eharris(eV)        E_KS(eV)     FreeEng(eV)     dDmax    Ef(eV) dHmax(eV)
   scf:    1   -10593.175933   -10593.175325   -10593.175325  0.000096 -3.869522  0.001762
     spin moment: {S} , |S| = {   -0.00000   -0.00000   -0.00000 }     0.00000
   scf:    2   -10593.175317   -10593.175323   -10593.175323  0.000090 -3.869082  0.006997
     spin moment: {S} , |S| = {   -0.00000   -0.00000   -0.00000 }     0.00000
   scf:    3   -10593.175326   -10593.175325   -10593.175325  0.000070 -3.869455  0.000251
     spin moment: {S} , |S| = {   -0.00000   -0.00000   -0.00000 }     0.00000
   scf:    4   -10593.175325   -10593.175325   -10593.175325  0.000002 -3.869457  0.000116
     spin moment: {S} , |S| = {   -0.00000   -0.00000   -0.00000 }     0.00000
   scf:    5   -10593.175325   -10593.175325   -10593.175325  0.000001 -3.869459  0.000039
     spin moment: {S} , |S| = {   -0.00000   -0.00000   -0.00000 }     0.00000
   scf:    6   -10593.175325   -10593.175325   -10593.175325  0.000001 -3.869458  0.000010
     spin moment: {S} , |S| = {   -0.00000   -0.00000   -0.00000 }     0.00000
   scf:    7   -10593.175325   -10593.175325   -10593.175325  0.000000 -3.869458  0.000005
     spin moment: {S} , |S| = {   -0.00000   -0.00000   -0.00000 }     0.00000
   scf:    8   -10593.175325   -10593.175325   -10593.175325  0.000000 -3.869458  0.000002
     spin moment: {S} , |S| = {   -0.00000   -0.00000   -0.00000 }     0.00000
   scf:    9   -10593.175325   -10593.175325   -10593.175325  0.000000 -3.869458  0.000001
     spin moment: {S} , |S| = {   -0.00000   -0.00000   -0.00000 }     0.00000

SCF Convergence by DM+H criterion
max |DM_out - DM_in|         :     0.0000000613
max |H_out - H_in|      (eV) :     0.0000006129
SCF cycle converged after 9 iterations

Using DM_out to compute the final energy and forces

siesta: E_KS(eV) =           -10593.1753
     spin moment: {S} , |S| = {   -0.00000   -0.00000   -0.00000 }     0.00000

siesta: Atomic forces (eV/Ang):
     1    0.005242    0.006006   -0.000001
     2    0.001334    0.002587   -0.000003
     3    0.001803    0.001061    0.000005
     4    0.000114   -0.002016   -0.000002
     5    0.001512   -0.000596    0.000007
     6   -0.017347   -0.062162   -0.000028
     7   -0.006304   -0.001580   -0.000002
     8   -0.004958    0.000755    0.000027
     9   -0.003899   -0.003708   -0.002533
    10   -0.009310   -0.004191    0.000290
    11   -0.009206    0.002267    0.000021
    12   -0.008103    0.004260    0.000005
    13   -0.004985    0.001324    0.000001
    14   -0.005931    0.006544   -0.000009
    15   -0.000599    0.002459    0.000015
    16   -0.000852   -0.003744   -0.004036
    17   -0.000267   -0.002436   -0.004587
    18   -0.000480   -0.002691    0.019121
    19   -0.001415   -0.002298   -0.019426
    20   -0.001961   -0.000453    0.038211
    21   -0.002005   -0.000347    0.280686
    22   -0.002498   -0.000352   -1.636127
    23   -0.002843    0.000117   -0.235603
    24   -0.002476   -0.000367    1.555682
    25   -0.002011   -0.000910    0.013634
    26    0.001109   -0.000090   -0.001429
    27   -0.002877   -0.001630   -0.003472
    28   -0.004402   -0.000561   -0.001007
    29    0.002126   -0.002592   -0.000013
    30    0.000024   -0.000637    0.000582
----------------------------------------
   Tot   -0.081464   -0.065982    0.000011
----------------------------------------
   Max    1.636127
   Res    0.241262    sqrt( Sum f_i^2 / 3N )
----------------------------------------
   Max    0.009310    constrained

Stress tensor Voigt[x,y,z,yz,xz,xy] (kbar):        0.01        0.10       -1.50        0.00        0.00        0.03
(Free)E + p*V (eV/cell)   -10591.9446
Target enthalpy (eV/cell)   -10593.1753

                     ====================================
                        Begin Broyden opt. move =    104
                     ====================================

outcoor: Atomic coordinates (Ang):                          
    2.31532084   -5.12625854    0.00000000   1       1  H
    1.39809562   -4.62946948    0.00000000   2       2  N
   -0.15923379   -5.47494477    0.00000000   3       3  Si
   -0.06473551   -6.94931038    0.00000000   1       4  H
   -1.56740668   -4.58083498    0.00000000   2       5  N
   -1.09026419   -2.87456374    0.00000000   3       6  Si
   -1.56013231   -0.71084742    0.00000000   3       7  Si
   -3.15177956   -0.08646896    0.00000000   2       8  N
   -3.48740046    0.89889043    0.00000000   1       9  H
   -3.96844584   -0.69967248    0.00000000   1      10  H
   -0.21358712    0.35617402    0.00000000   2      11  N
    1.43328744   -0.06551584    0.00000000   3      12  Si
    2.37491444    1.07944412    0.00000000   1      13  H
    2.22791944   -1.56757507    0.00000000   2      14  N
    1.10512731   -2.84195332    0.00000000   3      15  Si
    0.58006878    7.16139051    0.00000000   1      16  H
   -0.23234612    6.50512796    0.00000000   2      17  N
   -1.83774150    7.26022865    0.00000000   3      18  Si
   -1.69866348    8.74418077    0.00000000   1      19  H
   -3.56212793    5.94722175    0.00000000   3      20  Si
   -5.89524902    5.95414653    0.00000000   3      21  Si
   -6.34979775    6.74727701   -1.20183078   1      22  H
   -6.11625111    4.44348777   -0.08618332   1      23  H
   -6.43932587    6.58481185    1.28814761   1      24  H
   -2.71306202    3.85594391    0.00000000   3      25  Si
   -3.69320079    2.63301117    0.00000000   4      26  O
   -0.94788735    3.70360470    0.00000000   2      27  N
   -0.60798327    2.70690446    0.00000000   1      28  H
    0.37218887    4.84631159    0.00000000   3      29  Si
    1.89441427    4.53309670    0.00000000   4      30  O

outcell: Unit cell vectors (Ang):
       16.855075    0.000000    0.000000
        0.000000   24.528070    0.000000
        0.000000    0.000000   10.315061

outcell: Cell vector modules (Ang)   :   16.855075   24.528070   10.315061
outcell: Cell angles (23,13,12) (deg):     90.0000     90.0000     90.0000
outcell: Cell volume (Ang**3)        :   4264.4779
<dSpData1D:S at geom step 104
  <sparsity:sparsity for geom step 104
    nrows_g=302 nrows=18 sparsity=.0320 nnzs=2916, refcount: 8>
  <dData1D:(new from dSpData1D) n=2916, refcount: 1>
refcount: 1>
new_DM -- step:   105
Re-using DM from previous geometries...
Number of DMs in history: 1
 DM extrapolation coefficients: 
1   1.00000
New DM after history re-use:
<dSpData2D:SpM extrapolated using coords
  <sparsity:sparsity for geom step 104
    nrows_g=302 nrows=18 sparsity=.0320 nnzs=2916, refcount: 10>
  <dData2D:(temp array for extrapolation) n=2916 m=8, refcount: 1>
refcount: 1>
     spin moment: {S} , |S| = {   -0.00000   -0.00000   -0.00000 }     0.00000

InitMesh: MESH = 180 x 256 x 108 = 4976640
InitMesh: Mesh cutoff (required, used) =   300.000   301.061 Ry
New grid distribution [1]: sub = 2
New grid distribution [2]: sub = 2
New grid distribution [3]: sub = 2
Setting up quadratic distribution...

        iscf     Eharris(eV)        E_KS(eV)     FreeEng(eV)     dDmax    Ef(eV) dHmax(eV)
   scf:    1   -10593.176581   -10593.175412   -10593.175412  0.000139 -3.869543  0.001820
     spin moment: {S} , |S| = {   -0.00000   -0.00000   -0.00000 }     0.00000
   scf:    2   -10593.175400   -10593.175409   -10593.175409  0.000133 -3.870144  0.005622
     spin moment: {S} , |S| = {   -0.00000   -0.00000   -0.00000 }     0.00000
   scf:    3   -10593.175414   -10593.175413   -10593.175413  0.000102 -3.869800  0.000309
     spin moment: {S} , |S| = {   -0.00000   -0.00000   -0.00000 }     0.00000
   scf:    4   -10593.175413   -10593.175413   -10593.175413  0.000004 -3.869859  0.000144
     spin moment: {S} , |S| = {   -0.00000   -0.00000   -0.00000 }     0.00000
   scf:    5   -10593.175413   -10593.175413   -10593.175413  0.000002 -3.869882  0.000036
     spin moment: {S} , |S| = {   -0.00000   -0.00000   -0.00000 }     0.00000
   scf:    6   -10593.175413   -10593.175413   -10593.175413  0.000001 -3.869890  0.000018
     spin moment: {S} , |S| = {   -0.00000   -0.00000   -0.00000 }     0.00000
   scf:    7   -10593.175413   -10593.175413   -10593.175413  0.000000 -3.869891  0.000009
     spin moment: {S} , |S| = {   -0.00000   -0.00000   -0.00000 }     0.00000
   scf:    8   -10593.175413   -10593.175413   -10593.175413  0.000000 -3.869892  0.000003
     spin moment: {S} , |S| = {   -0.00000   -0.00000   -0.00000 }     0.00000
   scf:    9   -10593.175413   -10593.175413   -10593.175413  0.000000 -3.869892  0.000001
     spin moment: {S} , |S| = {   -0.00000   -0.00000   -0.00000 }     0.00000
   scf:   10   -10593.175413   -10593.175413   -10593.175413  0.000000 -3.869892  0.000001
     spin moment: {S} , |S| = {   -0.00000   -0.00000   -0.00000 }     0.00000

SCF Convergence by DM+H criterion
max |DM_out - DM_in|         :     0.0000000246
max |H_out - H_in|      (eV) :     0.0000005110
SCF cycle converged after 10 iterations

Using DM_out to compute the final energy and forces

siesta: E_KS(eV) =           -10593.1754
     spin moment: {S} , |S| = {   -0.00000   -0.00000   -0.00000 }     0.00000

siesta: Atomic forces (eV/Ang):
     1   -0.000382    0.002922   -0.000001
     2    0.001289    0.002722   -0.000003
     3    0.001852    0.000289    0.000005
     4    0.006055    0.003250   -0.000002
     5    0.001614   -0.000531    0.000007
     6   -0.020319   -0.062360   -0.000028
     7   -0.006081   -0.001630   -0.000002
     8   -0.006093   -0.001855    0.000027
     9   -0.000794    0.001460   -0.002517
    10   -0.007650   -0.006845    0.000291
    11   -0.006813    0.002085    0.000021
    12   -0.007957    0.004871    0.000005
    13   -0.003640    0.000570    0.000001
    14   -0.006233    0.005701   -0.000009
    15   -0.000533    0.002721    0.000015
    16   -0.005321   -0.001779   -0.004037
    17    0.000196   -0.002523   -0.004589
    18   -0.000691   -0.001977    0.019128
    19    0.003181   -0.004035   -0.019414
    20   -0.002196    0.000020    0.038210
    21   -0.002088   -0.000485    0.280831
    22   -0.001990   -0.001469   -1.635646
    23   -0.003341    0.002479   -0.235705
    24   -0.001849   -0.001086    1.555091
    25   -0.002250    0.000290    0.013636
    26   -0.000655   -0.000689   -0.001434
    27   -0.004219   -0.001430   -0.003475
    28   -0.004101    0.000340   -0.001000
    29   -0.000377   -0.002804   -0.000015
    30    0.000533   -0.000303    0.000583
----------------------------------------
   Tot   -0.080853   -0.062083   -0.000024
----------------------------------------
   Max    1.635646
   Res    0.241188    sqrt( Sum f_i^2 / 3N )
----------------------------------------
   Max    0.007957    constrained

Stress tensor Voigt[x,y,z,yz,xz,xy] (kbar):        0.02        0.11       -1.50        0.00       -0.00        0.03
(Free)E + p*V (eV/cell)   -10591.9536
Target enthalpy (eV/cell)   -10593.1754

outcoor: Relaxed atomic coordinates (Ang):                  
    2.31532084   -5.12625854    0.00000000   1       1  H
    1.39809562   -4.62946948    0.00000000   2       2  N
   -0.15923379   -5.47494477    0.00000000   3       3  Si
   -0.06473551   -6.94931038    0.00000000   1       4  H
   -1.56740668   -4.58083498    0.00000000   2       5  N
   -1.09026419   -2.87456374    0.00000000   3       6  Si
   -1.56013231   -0.71084742    0.00000000   3       7  Si
   -3.15177956   -0.08646896    0.00000000   2       8  N
   -3.48740046    0.89889043    0.00000000   1       9  H
   -3.96844584   -0.69967248    0.00000000   1      10  H
   -0.21358712    0.35617402    0.00000000   2      11  N
    1.43328744   -0.06551584    0.00000000   3      12  Si
    2.37491444    1.07944412    0.00000000   1      13  H
    2.22791944   -1.56757507    0.00000000   2      14  N
    1.10512731   -2.84195332    0.00000000   3      15  Si
    0.58006878    7.16139051    0.00000000   1      16  H
   -0.23234612    6.50512796    0.00000000   2      17  N
   -1.83774150    7.26022865    0.00000000   3      18  Si
   -1.69866348    8.74418077    0.00000000   1      19  H
   -3.56212793    5.94722175    0.00000000   3      20  Si
   -5.89524902    5.95414653    0.00000000   3      21  Si
   -6.34979775    6.74727701   -1.20183078   1      22  H
   -6.11625111    4.44348777   -0.08618332   1      23  H
   -6.43932587    6.58481185    1.28814761   1      24  H
   -2.71306202    3.85594391    0.00000000   3      25  Si
   -3.69320079    2.63301117    0.00000000   4      26  O
   -0.94788735    3.70360470    0.00000000   2      27  N
   -0.60798327    2.70690446    0.00000000   1      28  H
    0.37218887    4.84631159    0.00000000   3      29  Si
    1.89441427    4.53309670    0.00000000   4      30  O

siesta: Program's energy decomposition (eV):
siesta: Ebs     =     -1124.667491
siesta: Eions   =     11034.916955
siesta: Ena     =      1992.623619
siesta: Ekin    =      2651.630673
siesta: Enl(+so)=     -1615.358504
siesta: Eso(nil)=         0.000000
siesta: Edftu   =         0.000000
siesta: DEna    =         4.770093
siesta: DUscf   =        12.419212
siesta: DUext   =         0.000000
siesta: Ex      =     -2389.020358
siesta: Ec      =      -215.323194
siesta: Exc     =     -2604.343551
siesta: EbV     =         0.000000
siesta: eta*DQ  =         0.000000
siesta: Emadel  =         0.000000
siesta: Emeta   =         0.000000
siesta: Emolmec =         0.000000
siesta: Ekinion =         0.000000
siesta: Eharris =    -10593.175413
siesta: Etot    =    -10593.175413
siesta: FreeEng =    -10593.175413

siesta: Final energy (eV):
siesta:  Band Struct. =   -1124.667491
siesta:       Kinetic =    2651.630673
siesta:       Hartree =    8028.030009
siesta:         Edftu =       0.000000
siesta:      Eso(nil) =       0.000000
siesta:    Ext. field =       0.000000
siesta:         Exch. =   -2389.020358
siesta:         Corr. =    -215.323194
siesta:     Bulk bias =       0.000000
siesta:   Exch.-corr. =   -2604.343551
siesta:  Ion-electron =  -18360.079236
siesta:       Ion-ion =    -308.413308
siesta:       Ekinion =       0.000000
siesta: D3 dispersion =       0.000000
siesta:         Total =  -10593.175413
siesta:         Fermi =      -3.869892

siesta: Atomic forces (eV/Ang):
siesta:      1   -0.000382    0.002922   -0.000001
siesta:      2    0.001289    0.002722   -0.000003
siesta:      3    0.001852    0.000289    0.000005
siesta:      4    0.006055    0.003250   -0.000002
siesta:      5    0.001614   -0.000531    0.000007
siesta:      6   -0.020319   -0.062360   -0.000028
siesta:      7   -0.006081   -0.001630   -0.000002
siesta:      8   -0.006093   -0.001855    0.000027
siesta:      9   -0.000794    0.001460   -0.002517
siesta:     10   -0.007650   -0.006845    0.000291
siesta:     11   -0.006813    0.002085    0.000021
siesta:     12   -0.007957    0.004871    0.000005
siesta:     13   -0.003640    0.000570    0.000001
siesta:     14   -0.006233    0.005701   -0.000009
siesta:     15   -0.000533    0.002721    0.000015
siesta:     16   -0.005321   -0.001779   -0.004037
siesta:     17    0.000196   -0.002523   -0.004589
siesta:     18   -0.000691   -0.001977    0.019128
siesta:     19    0.003181   -0.004035   -0.019414
siesta:     20   -0.002196    0.000020    0.038210
siesta:     21   -0.002088   -0.000485    0.280831
siesta:     22   -0.001990   -0.001469   -1.635646
siesta:     23   -0.003341    0.002479   -0.235705
siesta:     24   -0.001849   -0.001086    1.555091
siesta:     25   -0.002250    0.000290    0.013636
siesta:     26   -0.000655   -0.000689   -0.001434
siesta:     27   -0.004219   -0.001430   -0.003475
siesta:     28   -0.004101    0.000340   -0.001000
siesta:     29   -0.000377   -0.002804   -0.000015
siesta:     30    0.000533   -0.000303    0.000583
siesta: ----------------------------------------
siesta:    Tot   -0.080853   -0.062083   -0.000024

siesta: Stress tensor (static) (eV/Ang**3):
siesta:     0.000010    0.000021   -0.000000
siesta:     0.000021    0.000067    0.000000
siesta:    -0.000000    0.000000   -0.000937

siesta: Cell volume =       4264.477888 Ang**3

siesta: Pressure (static):
siesta:                Solid            Molecule  Units
siesta:           0.00000312         -0.00000038  Ry/Bohr**3
siesta:           0.00028652         -0.00003502  eV/Ang**3
siesta:           0.45904781         -0.05610205  kBar
(Free)E+ p_basis*V_orbitals  =      -10577.824714
(Free)Eharris+ p_basis*V_orbitals  =      -10577.824714
     spin moment: {S} , |S| = {   -0.00000   -0.00000   -0.00000 }     0.00000

siesta: Electric dipole (a.u.)  =   -1.164210    1.970523   -0.005466
siesta: Electric dipole (Debye) =   -2.959127    5.008570   -0.013894

cite: Please see "AT.bib" for an exhaustive BiBTeX file.
cite: Please clearly indicate Siesta version in published work: 5.1-MaX-41-g6ad11e234
cite: This calculation has made use of the following articles
cite: which are encouraged to be cited in a published work.
        Primary SIESTA paper
          DOI: www.doi.org/10.1088/0953-8984/14/11/302
        Spin-orbit coupling (off-site approximation)
          DOI: www.doi.org/10.1088/0953-8984/24/8/086005
        ELPA library
          DOI: www.doi.org/10.1088/0953-8984/26/21/213201


>> End of run:  12-OCT-2024  18:50:27
Job completed
