Executable      : siesta-5
Version         : 5.1-MaX-41-g6ad11e234
Architecture    : x86_64
Compiler version: GNU-11.4.0
Compiler flags  : -DSIESTA__METIS -fallow-argument-mismatch -O3 -march=native
Parallelisations: MPI, OpenMP
* OpenMP version: 201511
NetCDF support
NetCDF-4 support
NetCDF-4 MPI-IO support
METIS ordering support
Lua support
Native ELPA support
DFT-D3 support
Wannier90 wrapper support

Runtime information:
* Directory : /home/wind/Documents/Si_DNA2/Si/Bases/Adenine_GGA_OP
* Running on 8 nodes in parallel.
* Running 1 OpenMP threads.
* Running 8 processes.
* OpenMP NOT bound (please bind threads!)
* OpenMP runtime schedule DYNAMIC, chunks 1
** Changing chunk size:
** OpenMP runtime schedule DYNAMIC, chunks 32
** OpenMP (trying to FORCE nesting)
* OpenMP allows 255 nested levels.
>> Start of run:  11-OCT-2024  19:38:40

                           *********************** 
                           *  WELCOME TO SIESTA  * 
                           *********************** 

 NOTE: Siesta V5 introduces some new defaults for basis-set generation
 NOTE: which might lead to slightly different numerical results.
 NOTE: Please see the manual for full details and compatibility measures.


reinit: Reading from standard input
reinit: Dumping input in INPUT_TMP.93914
************************** Dump of input data file ****************************
# mpirun -np 4 siesta-5 < Adenine.fdf > Adenine.out
SystemLabel      Adenine
NumberOfAtoms    15
NumberOfSpecies  3
%block ChemicalSpeciesLabel
    1    1  H  ../../../Pseudos/PBE/H/H.psf
    2    7  N  ../../../Pseudos/PBE/N/N.psf
    3   14  Si ../../../Pseudos/PBE/Si/Si.psf
%endblock ChemicalSpeciesLabel
############################################
# This overrides Defaults.fdf configuration
############################################
MD.Steps                    1000
%block Geometry.Constraints
    atom all 0.0 0.0 1.0 # constrain along z Cartesian vector
    atom [6]
%endblock
AtomicCoordinatesFormat NotScaledCartesianAng
%block AtomicCoordinatesAndAtomicSpecies
    2.21762232   -5.11279452    0.00000000   1       1  H
    1.29501137   -4.59896583    0.00000000   2       2  N
   -0.29904047   -5.42682372    0.00000000   3       3  Si
   -0.24674975   -6.93013012    0.00000000   1       4  H
   -1.72423401   -4.48368219    0.00000000   2       5  N
   -1.16006198   -2.76542566    0.00000000   3       6  Si
   -1.47852890   -0.56637991    0.00000000   3       7  Si
   -3.00339962    0.30830853    0.00000000   2       8  N
   -3.03826294    1.36179510    0.00000000   1       9  H
   -3.94024356   -0.17255215    0.00000000   1      10  H
   -0.07927414    0.45677789    0.00000000   2      11  N
    1.57094203   -0.02429720    0.00000000   3      12  Si
    2.54369079    1.12474014    0.00000000   1      13  H
    2.32454704   -1.59358938    0.00000000   2      14  N
    1.05498597   -2.78042589    0.00000000   3      15  Si
%endblock AtomicCoordinatesAndAtomicSpecies
%include ../../../Defaults.fdf
************************** End of input data file *****************************

reinit: -----------------------------------------------------------------------
reinit: System Name: 
reinit: -----------------------------------------------------------------------
reinit: System Label: Adenine
reinit: -----------------------------------------------------------------------

NOTE on units for spin output: 
{S} is the spin magnetic moment, in units of the Bohr magneton,
assuming a g-factor for the electron spin of exactly 2.
The spin magnetic moment is then numerically equal to the charge inbalance,
in units of electrons, between the spin-up and -down channels.


initatom: Reading input for the pseudopotentials and atomic orbitals ----------
Species number:   1 Atomic number:    1 Label: H
Species number:   2 Atomic number:    7 Label: N
Species number:   3 Atomic number:   14 Label: Si

Ground state valence configuration (from tables):   1s01  2p00  3d00  4f00
Ground state valence configuration (from tables):   2s02  2p03  3d00  4f00
Ground state valence configuration (from tables):   3s02  3p02  3d00  4f00

---- Processing specs for species: H
Reading pseudopotential information in formatted form from:
  ../../../Pseudos/PBE/H/H.psf

---- Processing specs for species: N
Reading pseudopotential information in formatted form from:
  ../../../Pseudos/PBE/N/N.psf

---- Processing specs for species: Si
Reading pseudopotential information in formatted form from:
  ../../../Pseudos/PBE/Si/Si.psf

---- Pseudopotential check for H 

Pseudopotential generated from a fully relativistic atomic calculation
There are spin-orbit semi-local pseudopotentials available

Pseudized shells:
1s( 1.00) rc: 0.05
Valence configuration for ps generation: (assumed as above)

---- Pseudopotential check for N 

Pseudopotential generated from a fully relativistic atomic calculation
There are spin-orbit semi-local pseudopotentials available

Pseudized shells:
2s( 2.00) rc: 1.02
2p( 3.00) rc: 1.36
3d( 0.00) rc: 3.29
Valence configuration for ps generation: (assumed as above)

---- Pseudopotential check for Si

Pseudopotential generated from a fully relativistic atomic calculation
There are spin-orbit semi-local pseudopotentials available

Pseudized shells:
3s( 2.00) rc: 1.67
3p( 2.00) rc: 2.22
3d( 0.00) rc: 3.44
Valence configuration for ps generation: (assumed as above)
For H, standard SIESTA heuristics set lmxkb to 2
 (one more than the basis l, including polarization orbitals).
Use PS.lmax or PS.KBprojectors blocks to override.
For N, standard SIESTA heuristics set lmxkb to 3
 (one more than the basis l, including polarization orbitals).
Use PS.lmax or PS.KBprojectors blocks to override.
For Si, standard SIESTA heuristics set lmxkb to 3
 (one more than the basis l, including polarization orbitals).
Use PS.lmax or PS.KBprojectors blocks to override.
../../../Pseudos/PBE/H/H.psf pseudopotential only contains V_ls up to l=0 -- lmxkb reset.
../../../Pseudos/PBE/N/N.psf pseudopotential only contains V_ls up to l=2 -- lmxkb reset.
../../../Pseudos/PBE/Si/Si.psf pseudopotential only contains V_ls up to l=2 -- lmxkb reset.

<basis_specs>
===============================================================================
H                    Z=   1    Mass=  1.0080        Charge= 0.17977+309
Lmxo=1 Lmxkb= 0    BasisType=split      Semic=F
L=0  Nsemic=0  Cnfigmx=1
          i=1  nzeta=2  polorb=1  (1s)  (to be polarized perturbatively)
            splnorm:   0.62000    
               vcte:    40.000    
               rinn:  -0.90000    
               qcoe:    0.0000    
               qyuk:    0.0000    
               qwid:   0.10000E-01
                rcs:    0.0000      0.0000    
            lambdas:    1.0000      1.0000    
L=1  Nsemic=0  Cnfigmx=2
          i=1  nzeta=0  polorb=0  (2p)  (perturbative polarization orbital) (from 1s)
===============================================================================
</basis_specs>

Filter: Requested cutoff:  290.000000 Ry
Using PAO.SplitTailNorm
atom: Called for H                     (Z =   1)
NOTE: H pseudopotential has channels up to l= 0
NOTE: PAOs with higher l will be generated with V_local
Maximum radius (at nrval) set to   50.00000 8518

read_vps: Pseudopotential generation method:
read_vps: ATM4.2.7  Troullier-Martins                       
Valence charge in pseudo generation:    1.00000

xc_check: Exchange-correlation functional:
xc_check: GGA Perdew, Burke & Ernzerhof 1996
V l=0 = -2*Zval/r beyond r=  0.0513
All V_l potentials equal beyond r=  0.0513
This should be close to max(r_c) in ps generation
All pots = -2*Zval/r beyond r=  0.0513
Using small-core scheme (local charge) for Vlocal

VLOCAL_FROM_CHLOCAL: 99.0% of the norm of Vloc inside  16462.511 Ry
VLOCAL_FROM_CHLOCAL: 99.9% of the norm of Vloc inside  37518.368 Ry
atom: Maximum radius for chlocal:    0.06330
atom: Maximum radius for r*vlocal+2*Zval:    0.05437

KBgen: Kleinman-Bylander projectors: 
GHOST: No ghost state for L =  0
KBproj: WARNING: Rc(0)=      0.3107
KBproj: WARNING: Cut off radius for the KB projector too small
   l= 0   rc=  0.310725   el= -0.477181   Ekb=-33.944693   kbcos= -0.005118

KBgen: Total number of Kleinman-Bylander projectors:   1
atom: -------------------------------------------------------------------------

atom: SANKEY-TYPE ORBITALS:
atom: Selected multiple-zeta basis: split     

SPLIT: Orbitals with angular momentum L= 0

SPLIT: Basis orbitals for state 1s

SPLIT: PAO cut-off radius determined from an
SPLIT: energy shift=  0.005000 Ry
Split based on tail norm

   izeta = 1
                 lambda =    1.000000
                     rc =    5.772464
                 energy =   -0.471502
                kinetic =    0.941609
    potential(screened) =   -1.413111
       potential(ionic) =   -1.936120
PAO Filter: Cutoff used:  142.10 Ry
PAO Filter: diagnostic kin energy tol:    0.003000 Ry
PAO Filter: Nominal cutoff (before filtering):  107.24 Ry
Filter:    Number of eigenfunctions  of the
           filtering kernel (total, used)= 55 20

   izeta = 2
                 rmatch =    1.661681
              splitnorm =    0.620000
                 energy =    1.741023
                kinetic =    5.838304
    potential(screened) =   -4.097281
       potential(ionic) =   -4.634491
PAO Filter: Cutoff used:  142.10 Ry
PAO Filter: diagnostic kin energy tol:    0.003000 Ry
PAO Filter: Nominal cutoff (before filtering):  829.47 Ry
Filter:    Number of eigenfunctions  of the
           filtering kernel (total, used)= 23  5
*Note: V_local used for l= 1

** Using vlocal for PAOs with L= 1

POLgen: Perturbative polarization orbital with L=  1

POLgen: Polarization orbital for state 1s
*Note: V_local used for lpol= 1

** Using vlocal for PAOs with L= 1
Split based on tail norm

   izeta = 1
                     rc =    5.772464
                 energy =    0.606793
                kinetic =    1.227790
    potential(screened) =   -0.620997
       potential(ionic) =   -1.099517
PAO Filter: diagnostic kin energy tol:    0.003000 Ry
PAO Filter: Nominal cutoff (before filtering):   49.50 Ry
Filter:    Number of eigenfunctions  of the
           filtering kernel (total, used)= 55 20
atom: Total number of Sankey-type orbitals:  5

atm_pop: Valence configuration (for local Pseudopot. screening):
 1s( 1.00)                                                            
 2p( 0.00)                                                            
Vna: chval, zval:    1.00000   1.00000

Vna:  Cut-off radius for the neutral-atom potential:   5.772464
VNA Filter: diagnostic kinetic energy tol:    0.003000 Ry
VNA Filter: Nominal cutoff (before filtering):21300.87 Ry
VNA Filter: Cutoff used:   290.00 Ry
Filter:    Number of eigenfunctions  of the
           filtering kernel (total, used)= 74 30

atom: _________________________________________________________________________

<basis_specs>
===============================================================================
N                    Z=   7    Mass=  14.007        Charge= 0.17977+309
Lmxo=2 Lmxkb= 2    BasisType=split      Semic=F
L=0  Nsemic=0  Cnfigmx=2
          i=1  nzeta=2  polorb=0  (2s)
            splnorm:   0.28000    
               vcte:    40.000    
               rinn:  -0.90000    
               qcoe:    0.0000    
               qyuk:    0.0000    
               qwid:   0.10000E-01
                rcs:    0.0000      0.0000    
            lambdas:    1.0000      1.0000    
L=1  Nsemic=0  Cnfigmx=2
          i=1  nzeta=2  polorb=1  (2p)  (to be polarized perturbatively)
            splnorm:   0.28000    
               vcte:    40.000    
               rinn:  -0.90000    
               qcoe:    0.0000    
               qyuk:    0.0000    
               qwid:   0.10000E-01
                rcs:    0.0000      0.0000    
            lambdas:    1.0000      1.0000    
L=2  Nsemic=0  Cnfigmx=3
          i=1  nzeta=0  polorb=0  (3d)  (perturbative polarization orbital) (from 2p)
-------------------------------------------------------------------------------
L=0  Nkbl=1  erefs: 0.17977+309
L=1  Nkbl=1  erefs: 0.17977+309
L=2  Nkbl=1  erefs: 0.17977+309
===============================================================================
</basis_specs>

Filter: Requested cutoff:  290.000000 Ry
Using PAO.SplitTailNorm
atom: Called for N                     (Z =   7)
Maximum radius (at nrval) set to   50.00000 8518

read_vps: Pseudopotential generation method:
read_vps: ATM4.2.7  Troullier-Martins                       
Valence charge in pseudo generation:    5.00000

xc_check: Exchange-correlation functional:
xc_check: GGA Perdew, Burke & Ernzerhof 1996
V l=0 = -2*Zval/r beyond r=  1.3505
V l=1 = -2*Zval/r beyond r=  1.3628
V l=2 = -2*Zval/r beyond r=  3.2536
All V_l potentials equal beyond r=  3.2406
This should be close to max(r_c) in ps generation
All pots = -2*Zval/r beyond r=  3.2536
Using small-core scheme (local charge) for Vlocal

VLOCAL_FROM_CHLOCAL: 99.0% of the norm of Vloc inside      4.134 Ry
VLOCAL_FROM_CHLOCAL: 99.9% of the norm of Vloc inside      9.420 Ry
atom: Maximum radius for chlocal:    3.83522
atom: Maximum radius for r*vlocal+2*Zval:    3.56452

KBgen: Kleinman-Bylander projectors: 
GHOST: No ghost state for L =  0
   l= 0   rc=  3.286396   el= -1.364990   Ekb= -4.084395   kbcos= -0.707149
GHOST: No ghost state for L =  1
j- l= 1   rc=  3.273237   el= -0.522099   Ekb= -9.337483   kbcos= -0.603568
GHOST: No ghost state for L =  1
j+ l= 1   rc=  3.273237   el= -0.520710   Ekb= -9.322891   kbcos= -0.603256
GHOST: No ghost state for L =  2
j- l= 2   rc=  3.699250   el=  0.012944   Ekb= -0.680922   kbcos= -0.059812
GHOST: No ghost state for L =  2
j+ l= 2   rc=  3.699250   el=  0.012944   Ekb= -0.679799   kbcos= -0.059842

KBgen: Total number of Kleinman-Bylander projectors:  17
atom: -------------------------------------------------------------------------

atom: SANKEY-TYPE ORBITALS:
atom: Selected multiple-zeta basis: split     

SPLIT: Orbitals with angular momentum L= 0

SPLIT: Basis orbitals for state 2s

SPLIT: PAO cut-off radius determined from an
SPLIT: energy shift=  0.005000 Ry
Split based on tail norm

   izeta = 1
                 lambda =    1.000000
                     rc =    4.256654
                 energy =   -1.359295
                kinetic =    1.255415
    potential(screened) =   -2.614710
       potential(ionic) =   -8.142669
PAO Filter: Cutoff used:  142.10 Ry
PAO Filter: diagnostic kin energy tol:    0.003000 Ry
PAO Filter: Nominal cutoff (before filtering):   67.41 Ry
Filter:    Number of eigenfunctions  of the
           filtering kernel (total, used)= 43 14

   izeta = 2
                 rmatch =    2.177654
              splitnorm =    0.280000
                 energy =   -0.492898
                kinetic =    3.145026
    potential(screened) =   -3.637923
       potential(ionic) =   -9.831650
PAO Filter: Cutoff used:  142.10 Ry
PAO Filter: diagnostic kin energy tol:    0.003000 Ry
PAO Filter: Nominal cutoff (before filtering):  127.34 Ry
Filter:    Number of eigenfunctions  of the
           filtering kernel (total, used)= 27  7

SPLIT: Orbitals with angular momentum L= 1

SPLIT: Basis orbitals for state 2p

SPLIT: PAO cut-off radius determined from an
SPLIT: energy shift=  0.005000 Ry
Split based on tail norm

   izeta = 1
                 lambda =    1.000000
                     rc =    5.274774
                 energy =   -0.515520
                kinetic =    3.486851
    potential(screened) =   -4.002371
       potential(ionic) =   -9.345231
PAO Filter: Cutoff used:  142.10 Ry
PAO Filter: diagnostic kin energy tol:    0.003000 Ry
PAO Filter: Nominal cutoff (before filtering):   56.62 Ry
Filter:    Number of eigenfunctions  of the
           filtering kernel (total, used)= 51 18

   izeta = 2
                 rmatch =    2.619595
              splitnorm =    0.280000
                 energy =   -0.135315
                kinetic =    6.112412
    potential(screened) =   -6.247726
       potential(ionic) =  -12.409759
PAO Filter: Cutoff used:  142.10 Ry
PAO Filter: diagnostic kin energy tol:    0.003000 Ry
PAO Filter: Nominal cutoff (before filtering):   63.34 Ry
Filter:    Number of eigenfunctions  of the
           filtering kernel (total, used)= 30  8

POLgen: Perturbative polarization orbital with L=  2

POLgen: Polarization orbital for state 2p
Split based on tail norm

   izeta = 1
                     rc =    5.274774
                 energy =    1.560155
                kinetic =    2.548459
    potential(screened) =   -0.988304
       potential(ionic) =   -5.056663
PAO Filter: diagnostic kin energy tol:    0.003000 Ry
PAO Filter: Nominal cutoff (before filtering):   61.33 Ry
Filter:    Number of eigenfunctions  of the
           filtering kernel (total, used)= 51 17
atom: Total number of Sankey-type orbitals: 13

atm_pop: Valence configuration (for local Pseudopot. screening):
 2s( 2.00)                                                            
 2p( 3.00)                                                            
 3d( 0.00)                                                            
Vna: chval, zval:    5.00000   5.00000

Vna:  Cut-off radius for the neutral-atom potential:   5.274774
VNA Filter: diagnostic kinetic energy tol:    0.003000 Ry
VNA Filter: Nominal cutoff (before filtering):   50.50 Ry
VNA Filter: Cutoff used:   290.00 Ry
Filter:    Number of eigenfunctions  of the
           filtering kernel (total, used)= 68 27

atom: _________________________________________________________________________

<basis_specs>
===============================================================================
Si                   Z=  14    Mass=  28.090        Charge= 0.17977+309
Lmxo=2 Lmxkb= 2    BasisType=split      Semic=F
L=0  Nsemic=0  Cnfigmx=3
          i=1  nzeta=2  polorb=0  (3s)
            splnorm:   0.28000    
               vcte:    40.000    
               rinn:  -0.90000    
               qcoe:    0.0000    
               qyuk:    0.0000    
               qwid:   0.10000E-01
                rcs:    0.0000      0.0000    
            lambdas:    1.0000      1.0000    
L=1  Nsemic=0  Cnfigmx=3
          i=1  nzeta=2  polorb=1  (3p)  (to be polarized perturbatively)
            splnorm:   0.28000    
               vcte:    40.000    
               rinn:  -0.90000    
               qcoe:    0.0000    
               qyuk:    0.0000    
               qwid:   0.10000E-01
                rcs:    0.0000      0.0000    
            lambdas:    1.0000      1.0000    
L=2  Nsemic=0  Cnfigmx=3
          i=1  nzeta=0  polorb=0  (3d)  (perturbative polarization orbital) (from 3p)
-------------------------------------------------------------------------------
L=0  Nkbl=1  erefs: 0.17977+309
L=1  Nkbl=1  erefs: 0.17977+309
L=2  Nkbl=1  erefs: 0.17977+309
===============================================================================
</basis_specs>

Filter: Requested cutoff:  290.000000 Ry
Using PAO.SplitTailNorm
atom: Called for Si                    (Z =  14)
Maximum radius (at nrval) set to   50.00000 8518

read_vps: Pseudopotential generation method:
read_vps: ATM4.2.7  Troullier-Martins                       
Valence charge in pseudo generation:    4.00000

read_vps: Pseudopotential includes a core correction:
read_vps: Pseudo-core for xc-correction

xc_check: Exchange-correlation functional:
xc_check: GGA Perdew, Burke & Ernzerhof 1996
V l=0 = -2*Zval/r beyond r=  2.0135
V l=1 = -2*Zval/r beyond r=  2.2353
V l=2 = -2*Zval/r beyond r=  3.4072
All V_l potentials equal beyond r=  3.3936
This should be close to max(r_c) in ps generation
All pots = -2*Zval/r beyond r=  3.4072
Using small-core scheme (local charge) for Vlocal

VLOCAL_FROM_CHLOCAL: 99.0% of the norm of Vloc inside      3.769 Ry
VLOCAL_FROM_CHLOCAL: 99.9% of the norm of Vloc inside      8.590 Ry
atom: Maximum radius for chlocal:    3.99615
atom: Maximum radius for r*vlocal+2*Zval:    3.71412

KBgen: Kleinman-Bylander projectors: 
GHOST: No ghost state for L =  0
   l= 0   rc=  3.578843   el= -0.794066   Ekb= 81.865761   kbcos=  0.013736
GHOST: No ghost state for L =  1
j- l= 1   rc=  3.725306   el= -0.301597   Ekb= -0.825317   kbcos= -0.326846
GHOST: No ghost state for L =  1
j+ l= 1   rc=  3.725306   el= -0.299285   Ekb= -0.841732   kbcos= -0.318601
GHOST: No ghost state for L =  2
j- l= 2   rc=  3.785552   el=  0.012766   Ekb= -0.889155   kbcos= -0.151422
GHOST: No ghost state for L =  2
j+ l= 2   rc=  3.785552   el=  0.012766   Ekb= -0.888467   kbcos= -0.151398

KBgen: Total number of Kleinman-Bylander projectors:  17
atom: -------------------------------------------------------------------------

atom: SANKEY-TYPE ORBITALS:
atom: Selected multiple-zeta basis: split     

SPLIT: Orbitals with angular momentum L= 0

SPLIT: Basis orbitals for state 3s

SPLIT: PAO cut-off radius determined from an
SPLIT: energy shift=  0.005000 Ry
Split based on tail norm

   izeta = 1
                 lambda =    1.000000
                     rc =    5.818909
                 energy =   -0.788144
                kinetic =    0.544518
    potential(screened) =   -1.332662
       potential(ionic) =   -3.713291
PAO Filter: Cutoff used:  142.10 Ry
PAO Filter: diagnostic kin energy tol:    0.003000 Ry
PAO Filter: Nominal cutoff (before filtering):   17.08 Ry
Filter:    Number of eigenfunctions  of the
           filtering kernel (total, used)= 55 20

   izeta = 2
                 rmatch =    3.332870
              splitnorm =    0.280000
                 energy =   -0.077022
                kinetic =    1.786575
    potential(screened) =   -1.863597
       potential(ionic) =   -4.461809
PAO Filter: Cutoff used:  142.10 Ry
PAO Filter: diagnostic kin energy tol:    0.003000 Ry
PAO Filter: Nominal cutoff (before filtering):   37.57 Ry
Filter:    Number of eigenfunctions  of the
           filtering kernel (total, used)= 36 11

SPLIT: Orbitals with angular momentum L= 1

SPLIT: Basis orbitals for state 3p

SPLIT: PAO cut-off radius determined from an
SPLIT: energy shift=  0.005000 Ry
Split based on tail norm

   izeta = 1
                 lambda =    1.000000
                     rc =    7.519509
                 energy =   -0.294153
                kinetic =    0.816276
    potential(screened) =   -1.110429
       potential(ionic) =   -3.297578
PAO Filter: Cutoff used:  142.10 Ry
PAO Filter: diagnostic kin energy tol:    0.003000 Ry
PAO Filter: Nominal cutoff (before filtering):    6.35 Ry
Filter:    Number of eigenfunctions  of the
           filtering kernel (total, used)= 68 26

   izeta = 2
                 rmatch =    4.351560
              splitnorm =    0.280000
                 energy =   -0.086738
                kinetic =    1.503215
    potential(screened) =   -1.589953
       potential(ionic) =   -4.038960
PAO Filter: Cutoff used:  142.10 Ry
PAO Filter: diagnostic kin energy tol:    0.003000 Ry
PAO Filter: Nominal cutoff (before filtering):   13.28 Ry
Filter:    Number of eigenfunctions  of the
           filtering kernel (total, used)= 44 14

POLgen: Perturbative polarization orbital with L=  2

POLgen: Polarization orbital for state 3p
Split based on tail norm

   izeta = 1
                     rc =    7.519509
                 energy =    0.307085
                kinetic =    1.301771
    potential(screened) =   -0.994687
       potential(ionic) =   -3.042559
PAO Filter: diagnostic kin energy tol:    0.003000 Ry
PAO Filter: Nominal cutoff (before filtering):   12.01 Ry
Filter:    Number of eigenfunctions  of the
           filtering kernel (total, used)= 68 26
atom: Total number of Sankey-type orbitals: 13

atm_pop: Valence configuration (for local Pseudopot. screening):
 3s( 2.00)                                                            
 3p( 2.00)                                                            
 3d( 0.00)                                                            
Vna: chval, zval:    4.00000   4.00000

Vna:  Cut-off radius for the neutral-atom potential:   7.519509
VNA Filter: diagnostic kinetic energy tol:    0.003000 Ry
VNA Filter: Nominal cutoff (before filtering):    6.56 Ry
VNA Filter: Cutoff used:   290.00 Ry
Filter:    Number of eigenfunctions  of the
           filtering kernel (total, used)= 93 39
comcore: Pseudo-core radius Rcore=  2.987653
PCC Filter: diagnostic kin energy tol:    0.003000 Ry
PCC Filter: Nominal cutoff (before filtering):  104.36 Ry
PCC Filter: Cutoff used:   290.00 Ry
Filter:    Number of eigenfunctions  of the
           filtering kernel (total, used)= 43 15

atom: _________________________________________________________________________

prinput: Basis input 

PAO.BasisType split     

%block ChemicalSpeciesLabel
    1    1 H                       # Species index, atomic number, species label
    2    7 N                       # Species index, atomic number, species label
    3   14 Si                      # Species index, atomic number, species label
%endblock ChemicalSpeciesLabel

%block PAO.Basis                 # Define Basis set
# WARNING: This information might be incomplete!
H                     1                    # Species label, number of l-shells
 n=1   0   2 P   1                   # n, l, Nzeta, Polarization, NzetaPol
   5.772      1.662   
   1.000      1.000   
N                     2                    # Species label, number of l-shells
 n=2   0   2                         # n, l, Nzeta 
   4.257      2.178   
   1.000      1.000   
 n=2   1   2 P   1                   # n, l, Nzeta, Polarization, NzetaPol
   5.275      2.620   
   1.000      1.000   
Si                    2                    # Species label, number of l-shells
 n=3   0   2                         # n, l, Nzeta 
   5.819      3.333   
   1.000      1.000   
 n=3   1   2 P   1                   # n, l, Nzeta, Polarization, NzetaPol
   7.520      4.352   
   1.000      1.000   
%endblock PAO.Basis

prinput: ----------------------------------------------------------------------

Dumping basis to NetCDF file H.ion.nc
Dumping basis to NetCDF file N.ion.nc
Dumping basis to NetCDF file Si.ion.nc
coor:   Atomic-coordinates input format  =     Cartesian coordinates
coor:                                          (in Angstroms)

siesta: Atomic coordinates (Bohr) and species
siesta:      4.19070  -9.66178   0.00000  1        1
siesta:      2.44722  -8.69079   0.00000  2        2
siesta:     -0.56510 -10.25521   0.00000  3        3
siesta:     -0.46629 -13.09605   0.00000  1        4
siesta:     -3.25833  -8.47293   0.00000  2        5
siesta:     -2.19220  -5.22590   0.00000  3        6
siesta:     -2.79401  -1.07030   0.00000  3        7
siesta:     -5.67560   0.58262   0.00000  2        8
siesta:     -5.74148   2.57342   0.00000  1        9
siesta:     -7.44598  -0.32608   0.00000  1       10
siesta:     -0.14981   0.86319   0.00000  2       11
siesta:      2.96865  -0.04592   0.00000  3       12
siesta:      4.80688   2.12545   0.00000  1       13
siesta:      4.39276  -3.01145   0.00000  2       14
siesta:      1.99363  -5.25424   0.00000  3       15

siesta: Automatic unit cell vectors (Ang):
siesta:   13.852571    0.000000    0.000000
siesta:    0.000000   15.841361    0.000000
siesta:    0.000000    0.000000    8.754136

siesta: System type = molecule  

initatomlists: Number of atoms, orbitals, and projectors:     15   155   175

siesta: ******************** Simulation parameters ****************************
siesta:
siesta: The following are some of the parameters of the simulation.
siesta: A complete list of the parameters used, including default values,
siesta: can be found in file out.fdf
siesta:
redata: Spin configuration                          = spin-orbit+offsite
redata: Number of spin components                   = 8
redata: Time-Reversal Symmetry                      = F
redata: Spin spiral                                 = F
redata: Long output                                 =   F
redata: Number of Atomic Species                    =        3
redata: Charge density info will appear in .RHO file
redata: Write Mulliken Pop.                         = NO
redata: Matel table size (NRTAB)                    =     1024
redata: Mesh Cutoff                                 =   300.0000 Ry
redata: Net charge of the system                    =     0.0000 |e|
redata: Min. number of SCF Iter                     =        1
redata: Max. number of SCF Iter                     =      200
redata: SCF convergence failure will abort job
redata: SCF mix quantity                            = Hamiltonian
redata: Mix DM or H after convergence               =   F
redata: Recompute H after scf cycle                 =   F
redata: Mix DM in first SCF step                    =   T
redata: Write Pulay info on disk                    =   F
redata: New DM Occupancy tolerance                  = 0.000000000001
redata: No kicks to SCF
redata: DM Mixing Weight for Kicks                  =     0.5000
redata: Require Harris convergence for SCF          =   F
redata: Harris energy tolerance for SCF             =     0.000100 eV
redata: Require DM convergence for SCF              =   T
redata: DM tolerance for SCF                        =     0.000008
redata: Require EDM convergence for SCF             =   F
redata: EDM tolerance for SCF                       =     0.001000 eV
redata: Require H convergence for SCF               =   T
redata: Hamiltonian tolerance for SCF               =     0.000001 eV
redata: Require (free) Energy convergence for SCF   =   F
redata: (free) Energy tolerance for SCF             =     0.000100 eV
redata: Using DFT-D3 dispersion                     =   F
redata: Using Saved Data (generic)                  =   F
redata: Use continuation files for DM               =   T
redata: Neglect nonoverlap interactions             =   F
redata: Method of Calculation                       = Diagonalization
redata: Electronic Temperature                      =     1.0000 K
redata: Fix the spin of the system                  =   F
redata: Split SR and SO contributions               =   F
redata: Max. number of TDED Iter                    =        1
redata: Number of TDED substeps                     =        3
redata: Dynamics option                             = Broyden coord. optimization
redata: Variable cell                               =   F
redata: Maximum number of optimization moves        =     1000
redata: Force tolerance                             =     0.0080 eV/Ang
mix.SCF: Pulay mixing                            = Pulay
mix.SCF:    Variant                              = stable
mix.SCF:    History steps                        = 6
mix.SCF:    Linear mixing weight                 =     0.250000
mix.SCF:    Mixing weight                        =     0.250000
mix.SCF:    SVD condition                        = 0.1000E-07
mix.SCF:    Restart steps                        = 24
mix.SCF:    Restart save steps                   = 3
mix.SCF: Spin-component mixing                   all
redata: Save all siesta data in one NC              =   F
redata: ***********************************************************************

%block SCF.Mixers
  Pulay
%endblock SCF.Mixers

%block SCF.Mixer.Pulay
  # Mixing method
  method pulay
  variant stable

  # Mixing options
  weight 0.2500
  weight.linear 0.2500
  history 6
  restart 24
  restart.save 3
%endblock SCF.Mixer.Pulay

DM_history_depth set to one: no extrapolation allowed by default for geometry relaxation
Size of DM history Fstack: 1
Total number of electrons:    50.000000
Total ionic charge:    50.000000

* ProcessorY, Blocksize:    4  20


* Orbital distribution balance (max,min):    20    15


siesta: k-grid: Number of k-points = 1
siesta: k-point is Gamma-only

diag: Algorithm                                     = ELPA-2stage
diag: ELPA GPU string key                           = nvidia-gpu
diag: Parallel over k                               =   F
diag: Use parallel 2D distribution                  =   T
diag: Parallel block-size                           = 20
diag: Parallel distribution                         =     2 x     4
diag: Used triangular part                          = Lower
diag: Absolute tolerance                            =  0.100E-15
diag: Orthogonalization factor                      =  0.100E-05
diag: Memory factor                                 =  1.0000

siesta: Constraints applied in the following order:
siesta: Constraint v=[  0.00000,  0.00000,  1.00000] (15): pos-dir
  [ 1 -- 15 ]
siesta: Constraint (1): pos
  [ 6 ]


ts: **************************************************************
ts: Save H and S matrices                           =    F
ts: Save DM and EDM matrices                        =    F
ts: Only save the overlap matrix S                  =    F
ts: **************************************************************

************************ Begin: TS CHECKS AND WARNINGS ************************
************************ End: TS CHECKS AND WARNINGS **************************


                     ====================================
                        Begin Broyden opt. move =      0
                     ====================================

outcoor: Atomic coordinates (Ang):                          
    2.21762232   -5.11279452    0.00000000   1       1  H
    1.29501137   -4.59896583    0.00000000   2       2  N
   -0.29904047   -5.42682372    0.00000000   3       3  Si
   -0.24674975   -6.93013012    0.00000000   1       4  H
   -1.72423401   -4.48368219    0.00000000   2       5  N
   -1.16006198   -2.76542566    0.00000000   3       6  Si
   -1.47852890   -0.56637991    0.00000000   3       7  Si
   -3.00339962    0.30830853    0.00000000   2       8  N
   -3.03826294    1.36179510    0.00000000   1       9  H
   -3.94024356   -0.17255215    0.00000000   1      10  H
   -0.07927414    0.45677789    0.00000000   2      11  N
    1.57094203   -0.02429720    0.00000000   3      12  Si
    2.54369079    1.12474014    0.00000000   1      13  H
    2.32454704   -1.59358938    0.00000000   2      14  N
    1.05498597   -2.78042589    0.00000000   3      15  Si

outcell: Unit cell vectors (Ang):
       13.852571    0.000000    0.000000
        0.000000   15.841361    0.000000
        0.000000    0.000000    8.754136

outcell: Cell vector modules (Ang)   :   13.852571   15.841361    8.754136
outcell: Cell angles (23,13,12) (deg):     90.0000     90.0000     90.0000
outcell: Cell volume (Ang**3)        :   1921.0390
<dSpData1D:S at geom step 0
  <sparsity:sparsity for geom step 0
    nrows_g=155 nrows=20 sparsity=.1226 nnzs=2946, refcount: 8>
  <dData1D:(new from dSpData1D) n=2946, refcount: 1>
refcount: 1>
new_DM -- step:     1
Initializing Density Matrix...

Attempting to read DM from file... Failed...
DM filled with atomic data:
<dSpData2D:DM initialized from atoms
  <sparsity:sparsity for geom step 0
    nrows_g=155 nrows=20 sparsity=.1226 nnzs=2946, refcount: 9>
  <dData2D:DM n=2946 m=8, refcount: 1>
refcount: 1>
     spin moment: {S} , |S| = {    0.00000    0.00000   30.00000 }    30.00000

InitMesh: MESH = 150 x 180 x 96 = 2592000
InitMesh: Mesh cutoff (required, used) =   300.000   324.059 Ry
New grid distribution [1]: sub = 2
New grid distribution [2]: sub = 2
New grid distribution [3]: sub = 2
Setting up quadratic distribution...

stepf: Fermi-Dirac step function

siesta: Program's energy decomposition (eV):
siesta: Ebs     =      -332.416434
siesta: Eions   =      3880.201652
siesta: Ena     =       754.229082
siesta: Ekin    =      1427.933139
siesta: Enl(+so)=     -1396.327397
siesta: Eso(nil)=         0.000000
siesta: Edftu   =         0.000000
siesta: DEna    =        67.781383
siesta: DUscf   =        33.592568
siesta: DUext   =         0.000000
siesta: Ex      =     -1225.941922
siesta: Ec      =       -78.307366
siesta: Exc     =     -1304.249288
siesta: EbV     =         0.000000
siesta: eta*DQ  =         0.000000
siesta: Emadel  =         0.000000
siesta: Emeta   =         0.000000
siesta: Emolmec =         0.000000
siesta: Ekinion =         0.000000
siesta: Eharris =     -4266.907701
siesta: Etot    =     -4297.242166
siesta: FreeEng =     -4297.242166

        iscf     Eharris(eV)        E_KS(eV)     FreeEng(eV)     dDmax    Ef(eV) dHmax(eV)
   scf:    1    -4266.907701    -4297.242166    -4297.242166  0.913137 -4.237490 33.560145
     spin moment: {S} , |S| = {    0.00000   -0.00000    2.00005 }     2.00005
timer: Routine,Calls,Time,% = IterSCF        1       0.914  13.43
   scf:    2    -4324.824947    -4315.413104    -4315.413104  0.295197 -3.546515 27.121287
     spin moment: {S} , |S| = {    0.00000    0.00000    0.00021 }     0.00021
   scf:    3    -4318.028434    -4317.016004    -4317.016004  0.048727 -3.281985 19.046616
     spin moment: {S} , |S| = {    0.00000    0.00000    0.00008 }     0.00008
   scf:    4    -4318.228945    -4317.663993    -4317.663993  0.046435 -3.275713 11.094827
     spin moment: {S} , |S| = {   -0.00000   -0.00000    0.00004 }     0.00004
   scf:    5    -4318.643500    -4318.153864    -4318.153864  0.073431 -2.834968  2.760534
     spin moment: {S} , |S| = {   -0.00000   -0.00000    0.00001 }     0.00001
   scf:    6    -4318.380883    -4318.265693    -4318.265693  0.027518 -2.819143  0.531091
     spin moment: {S} , |S| = {   -0.00000   -0.00000    0.00000 }     0.00000
   scf:    7    -4318.333109    -4318.298228    -4318.298228  0.012027 -2.819974  0.229012
     spin moment: {S} , |S| = {   -0.00000   -0.00000    0.00000 }     0.00000
   scf:    8    -4318.316362    -4318.306950    -4318.306950  0.005295 -2.824366  0.123789
     spin moment: {S} , |S| = {   -0.00000   -0.00000    0.00000 }     0.00000
   scf:    9    -4318.321252    -4318.313579    -4318.313579  0.006197 -2.828941  0.067866
     spin moment: {S} , |S| = {   -0.00000   -0.00000    0.00000 }     0.00000
   scf:   10    -4318.321752    -4318.317181    -4318.317181  0.006292 -2.828231  0.043433
     spin moment: {S} , |S| = {   -0.00000   -0.00000    0.00000 }     0.00000
   scf:   11    -4318.319673    -4318.318252    -4318.318252  0.004199 -2.826659  0.024817
     spin moment: {S} , |S| = {   -0.00000   -0.00000    0.00000 }     0.00000
   scf:   12    -4318.318882    -4318.318524    -4318.318524  0.002457 -2.824538  0.014567
     spin moment: {S} , |S| = {   -0.00000   -0.00000   -0.00000 }     0.00000
   scf:   13    -4318.318664    -4318.318587    -4318.318587  0.001126 -2.823958  0.008673
     spin moment: {S} , |S| = {   -0.00000   -0.00000   -0.00000 }     0.00000
   scf:   14    -4318.318662    -4318.318620    -4318.318620  0.000954 -2.823103  0.005460
     spin moment: {S} , |S| = {   -0.00000   -0.00000   -0.00000 }     0.00000
   scf:   15    -4318.318643    -4318.318630    -4318.318630  0.000584 -2.823174  0.002693
     spin moment: {S} , |S| = {    0.00000   -0.00000   -0.00000 }     0.00000
   scf:   16    -4318.318636    -4318.318632    -4318.318632  0.000292 -2.823093  0.001503
     spin moment: {S} , |S| = {    0.00000    0.00000   -0.00000 }     0.00000
   scf:   17    -4318.318634    -4318.318633    -4318.318633  0.000203 -2.823113  0.000792
     spin moment: {S} , |S| = {    0.00000    0.00000   -0.00000 }     0.00000
   scf:   18    -4318.318633    -4318.318633    -4318.318633  0.000071 -2.823120  0.000599
     spin moment: {S} , |S| = {    0.00000    0.00000   -0.00000 }     0.00000
   scf:   19    -4318.318634    -4318.318633    -4318.318633  0.000040 -2.823122  0.000428
     spin moment: {S} , |S| = {    0.00000    0.00000   -0.00000 }     0.00000
   scf:   20    -4318.318634    -4318.318633    -4318.318633  0.000028 -2.823120  0.000278
     spin moment: {S} , |S| = {    0.00000    0.00000   -0.00000 }     0.00000
   scf:   21    -4318.318634    -4318.318633    -4318.318633  0.000021 -2.823115  0.000178
     spin moment: {S} , |S| = {    0.00000    0.00000   -0.00000 }     0.00000
   scf:   22    -4318.318634    -4318.318633    -4318.318633  0.000014 -2.823118  0.000122
     spin moment: {S} , |S| = {    0.00000    0.00000   -0.00000 }     0.00000
   scf:   23    -4318.318634    -4318.318633    -4318.318633  0.000010 -2.823120  0.000075
     spin moment: {S} , |S| = {    0.00000    0.00000    0.00000 }     0.00000
   scf:   24    -4318.318633    -4318.318633    -4318.318633  0.000004 -2.823120  0.000059
     spin moment: {S} , |S| = {    0.00000    0.00000    0.00000 }     0.00000
mix: Pulay -- resetting history
   scf:   25    -4318.318633    -4318.318633    -4318.318633  0.000004 -2.823118  0.000040
     spin moment: {S} , |S| = {    0.00000    0.00000    0.00000 }     0.00000
   scf:   26    -4318.318633    -4318.318633    -4318.318633  0.000004 -2.823117  0.000022
     spin moment: {S} , |S| = {    0.00000    0.00000    0.00000 }     0.00000
   scf:   27    -4318.318633    -4318.318633    -4318.318633  0.000002 -2.823116  0.000012
     spin moment: {S} , |S| = {    0.00000    0.00000    0.00000 }     0.00000
   scf:   28    -4318.318633    -4318.318633    -4318.318633  0.000001 -2.823116  0.000007
     spin moment: {S} , |S| = {    0.00000    0.00000    0.00000 }     0.00000
   scf:   29    -4318.318633    -4318.318633    -4318.318633  0.000001 -2.823117  0.000004
     spin moment: {S} , |S| = {    0.00000    0.00000    0.00000 }     0.00000
   scf:   30    -4318.318633    -4318.318633    -4318.318633  0.000001 -2.823117  0.000001
     spin moment: {S} , |S| = {    0.00000    0.00000   -0.00000 }     0.00000
   scf:   31    -4318.318633    -4318.318633    -4318.318633  0.000000 -2.823117  0.000001
     spin moment: {S} , |S| = {    0.00000    0.00000   -0.00000 }     0.00000

SCF Convergence by DM+H criterion
max |DM_out - DM_in|         :     0.0000001481
max |H_out - H_in|      (eV) :     0.0000008327
SCF cycle converged after 31 iterations

Using DM_out to compute the final energy and forces

siesta: E_KS(eV) =            -4318.3186

siesta: E_KS - E_eggbox =     -4318.3186
     spin moment: {S} , |S| = {    0.00000    0.00000   -0.00000 }     0.00000

siesta: Atomic forces (eV/Ang):
     1   -2.310086   -1.396776    0.000000
     2    0.138987   -0.218928    0.000000
     3   -0.133410    0.163721   -0.000000
     4    2.020992    1.953392   -0.000000
     5    0.325053   -0.185678    0.000000
     6    0.180111    0.081414   -0.000000
     7    0.090808    0.118254    0.000000
     8   -0.144365    0.067222   -0.000000
     9   -0.301923   -0.958785   -0.000000
    10    0.708746    0.734631    0.000000
    11    0.204057   -0.249369   -0.000000
    12   -0.148149   -0.166244    0.000000
    13   -0.307069   -0.345297    0.000000
    14   -0.306382    0.208731   -0.000000
    15    0.016732    0.175650    0.000000
----------------------------------------
   Tot    0.034103   -0.018062   -0.000000
----------------------------------------
   Max    2.310086
   Res    0.634459    sqrt( Sum f_i^2 / 3N )
----------------------------------------
   Max    2.310086    constrained

Stress tensor Voigt[x,y,z,yz,xz,xy] (kbar):        7.91        7.15       -0.04        0.00       -0.00        3.72
(Free)E + p*V (eV/cell)    -4324.3221
Target enthalpy (eV/cell)    -4318.3186

Broyden_optim: max_history for broyden:   5
Broyden_optim: cycle on maxit: T
Broyden_optim: initial inverse jacobian:   1.0000

Broyden_optim: No of elements:     45

                     ====================================
                        Begin Broyden opt. move =      1
                     ====================================

outcoor: Atomic coordinates (Ang):                          
    2.17007678   -5.14154258    0.00000000   1       1  H
    1.29787197   -4.60347175    0.00000000   2       2  N
   -0.30178627   -5.42345405    0.00000000   3       3  Si
   -0.20515427   -6.88992596    0.00000000   1       4  H
   -1.71754386   -4.48750377    0.00000000   2       5  N
   -1.16006198   -2.76542566    0.00000000   3       6  Si
   -1.47665991   -0.56394603    0.00000000   3       7  Si
   -3.00637090    0.30969207    0.00000000   2       8  N
   -3.04447702    1.34206166    0.00000000   1       9  H
   -3.92565636   -0.15743218    0.00000000   1      10  H
   -0.07507430    0.45164544    0.00000000   2      11  N
    1.56789287   -0.02771879    0.00000000   3      12  Si
    2.53737079    1.11763334    0.00000000   1      13  H
    2.31824118   -1.58929333    0.00000000   2      14  N
    1.05533034   -2.77681071    0.00000000   3      15  Si

outcell: Unit cell vectors (Ang):
       13.852571    0.000000    0.000000
        0.000000   15.841361    0.000000
        0.000000    0.000000    8.754136

outcell: Cell vector modules (Ang)   :   13.852571   15.841361    8.754136
outcell: Cell angles (23,13,12) (deg):     90.0000     90.0000     90.0000
outcell: Cell volume (Ang**3)        :   1921.0390
<dSpData1D:S at geom step 1
  <sparsity:sparsity for geom step 1
    nrows_g=155 nrows=20 sparsity=.1226 nnzs=2946, refcount: 8>
  <dData1D:(new from dSpData1D) n=2946, refcount: 1>
refcount: 1>
new_DM -- step:     2
Re-using DM from previous geometries...
Number of DMs in history: 1
 DM extrapolation coefficients: 
1   1.00000
New DM after history re-use:
<dSpData2D:SpM extrapolated using coords
  <sparsity:sparsity for geom step 1
    nrows_g=155 nrows=20 sparsity=.1226 nnzs=2946, refcount: 10>
  <dData2D:(temp array for extrapolation) n=2946 m=8, refcount: 1>
refcount: 1>
     spin moment: {S} , |S| = {   -0.00000   -0.00000   -0.00000 }     0.00000
Note: For starting DM, Qtot, Tr[D*S] =         50.00000000         50.07296788

InitMesh: MESH = 150 x 180 x 96 = 2592000
InitMesh: Mesh cutoff (required, used) =   300.000   324.059 Ry
New grid distribution [1]: sub = 2
New grid distribution [2]: sub = 2
New grid distribution [3]: sub = 2
Setting up quadratic distribution...

        iscf     Eharris(eV)        E_KS(eV)     FreeEng(eV)     dDmax    Ef(eV) dHmax(eV)
   scf:    1    -4317.866382    -4318.262408    -4318.262408  0.018334 -2.603934  0.543247
     spin moment: {S} , |S| = {    0.00000    0.00000   -0.00000 }     0.00000
   scf:    2    -4317.529881    -4318.052787    -4318.052787  0.057491 -2.521107  1.910246
     spin moment: {S} , |S| = {    0.00000    0.00000   -0.00000 }     0.00000
   scf:    3    -4318.335838    -4318.289976    -4318.289976  0.044619 -2.536683  0.095115
     spin moment: {S} , |S| = {    0.00000    0.00000   -0.00000 }     0.00000
   scf:    4    -4318.290558    -4318.290365    -4318.290365  0.001275 -2.534603  0.037334
     spin moment: {S} , |S| = {    0.00000    0.00000   -0.00000 }     0.00000
   scf:    5    -4318.290448    -4318.290414    -4318.290414  0.000453 -2.534756  0.011444
     spin moment: {S} , |S| = {    0.00000    0.00000   -0.00000 }     0.00000
   scf:    6    -4318.290420    -4318.290418    -4318.290418  0.000168 -2.534808  0.003562
     spin moment: {S} , |S| = {    0.00000    0.00000   -0.00000 }     0.00000
   scf:    7    -4318.290418    -4318.290418    -4318.290418  0.000074 -2.534769  0.001035
     spin moment: {S} , |S| = {    0.00000    0.00000   -0.00000 }     0.00000
   scf:    8    -4318.290418    -4318.290418    -4318.290418  0.000029 -2.534747  0.000272
     spin moment: {S} , |S| = {    0.00000    0.00000   -0.00000 }     0.00000
   scf:    9    -4318.290418    -4318.290418    -4318.290418  0.000020 -2.534721  0.000133
     spin moment: {S} , |S| = {    0.00000    0.00000   -0.00000 }     0.00000
   scf:   10    -4318.290418    -4318.290418    -4318.290418  0.000009 -2.534698  0.000064
     spin moment: {S} , |S| = {    0.00000    0.00000   -0.00000 }     0.00000
   scf:   11    -4318.290418    -4318.290418    -4318.290418  0.000002 -2.534689  0.000047
     spin moment: {S} , |S| = {    0.00000    0.00000   -0.00000 }     0.00000
   scf:   12    -4318.290418    -4318.290418    -4318.290418  0.000001 -2.534687  0.000030
     spin moment: {S} , |S| = {    0.00000    0.00000   -0.00000 }     0.00000
   scf:   13    -4318.290418    -4318.290418    -4318.290418  0.000001 -2.534687  0.000015
     spin moment: {S} , |S| = {    0.00000    0.00000   -0.00000 }     0.00000
   scf:   14    -4318.290418    -4318.290418    -4318.290418  0.000001 -2.534686  0.000004
     spin moment: {S} , |S| = {    0.00000    0.00000   -0.00000 }     0.00000
   scf:   15    -4318.290418    -4318.290418    -4318.290418  0.000000 -2.534686  0.000002
     spin moment: {S} , |S| = {    0.00000    0.00000   -0.00000 }     0.00000
   scf:   16    -4318.290418    -4318.290418    -4318.290418  0.000000 -2.534686  0.000001
     spin moment: {S} , |S| = {    0.00000    0.00000   -0.00000 }     0.00000

SCF Convergence by DM+H criterion
max |DM_out - DM_in|         :     0.0000000470
max |H_out - H_in|      (eV) :     0.0000008133
SCF cycle converged after 16 iterations

Using DM_out to compute the final energy and forces

siesta: E_KS(eV) =            -4318.2904
     spin moment: {S} , |S| = {    0.00000    0.00000   -0.00000 }     0.00000

siesta: Atomic forces (eV/Ang):
     1    3.410163    1.583698    0.000000
     2   -0.986179    0.410052    0.000000
     3    0.172456    0.680409   -0.000000
     4   -2.712447   -2.116586   -0.000000
     5    0.075595   -0.029175    0.000000
     6    0.177441    0.066192   -0.000000
     7   -0.017664    0.081513    0.000000
     8    0.707527   -0.372261   -0.000000
     9    1.628186    3.184191   -0.000000
    10   -1.992902   -2.993485    0.000000
    11    0.053988   -0.188186   -0.000000
    12   -0.073970   -0.084329    0.000000
    13   -0.259700   -0.288186    0.000000
    14   -0.204363    0.123138   -0.000000
    15    0.043234   -0.069559    0.000000
----------------------------------------
   Tot    0.021364   -0.012574   -0.000000
----------------------------------------
   Max    3.410163
   Res    1.098325    sqrt( Sum f_i^2 / 3N )
----------------------------------------
   Max    3.410163    constrained

Stress tensor Voigt[x,y,z,yz,xz,xy] (kbar):       -4.87       -4.11       -0.04        0.00       -0.00       -5.50
(Free)E + p*V (eV/cell)    -4314.6889
Target enthalpy (eV/cell)    -4318.2904

                     ====================================
                        Begin Broyden opt. move =      2
                     ====================================

outcoor: Atomic coordinates (Ang):                          
    2.19508584   -5.12992824    0.00000000   1       1  H
    1.29063965   -4.60046456    0.00000000   2       2  N
   -0.30052154   -5.41846415    0.00000000   3       3  Si
   -0.22504651   -6.90544834    0.00000000   1       4  H
   -1.71698947   -4.48771773    0.00000000   2       5  N
   -1.16006198   -2.76542566    0.00000000   3       6  Si
   -1.47678945   -0.56334824    0.00000000   3       7  Si
   -3.00118212    0.30696202    0.00000000   2       8  N
   -3.03253642    1.36541351    0.00000000   1       9  H
   -3.94027167   -0.17938545    0.00000000   1      10  H
   -0.07467837    0.45026535    0.00000000   2      11  N
    1.56735040   -0.02833723    0.00000000   3      12  Si
    2.53546623    1.11551988    0.00000000   1      13  H
    2.31674244   -1.58839028    0.00000000   2      14  N
    1.05564740   -2.77732083    0.00000000   3      15  Si

outcell: Unit cell vectors (Ang):
       13.852571    0.000000    0.000000
        0.000000   15.841361    0.000000
        0.000000    0.000000    8.754136

outcell: Cell vector modules (Ang)   :   13.852571   15.841361    8.754136
outcell: Cell angles (23,13,12) (deg):     90.0000     90.0000     90.0000
outcell: Cell volume (Ang**3)        :   1921.0390
<dSpData1D:S at geom step 2
  <sparsity:sparsity for geom step 2
    nrows_g=155 nrows=20 sparsity=.1226 nnzs=2946, refcount: 8>
  <dData1D:(new from dSpData1D) n=2946, refcount: 1>
refcount: 1>
new_DM -- step:     3
Re-using DM from previous geometries...
Number of DMs in history: 1
 DM extrapolation coefficients: 
1   1.00000
New DM after history re-use:
<dSpData2D:SpM extrapolated using coords
  <sparsity:sparsity for geom step 2
    nrows_g=155 nrows=20 sparsity=.1226 nnzs=2946, refcount: 10>
  <dData2D:(temp array for extrapolation) n=2946 m=8, refcount: 1>
refcount: 1>
     spin moment: {S} , |S| = {    0.00000    0.00000    0.00000 }     0.00000

InitMesh: MESH = 150 x 180 x 96 = 2592000
InitMesh: Mesh cutoff (required, used) =   300.000   324.059 Ry
New grid distribution [1]: sub = 2
New grid distribution [2]: sub = 2
New grid distribution [3]: sub = 2
Setting up quadratic distribution...

        iscf     Eharris(eV)        E_KS(eV)     FreeEng(eV)     dDmax    Ef(eV) dHmax(eV)
   scf:    1    -4318.619331    -4318.431706    -4318.431706  0.014452 -2.379513  0.360077
     spin moment: {S} , |S| = {    0.00000    0.00000   -0.00000 }     0.00000
   scf:    2    -4318.308743    -4318.399580    -4318.399580  0.020141 -2.473185  0.842073
     spin moment: {S} , |S| = {    0.00000    0.00000   -0.00000 }     0.00000
   scf:    3    -4318.451685    -4318.440703    -4318.440703  0.014187 -2.420906  0.056761
     spin moment: {S} , |S| = {    0.00000    0.00000   -0.00000 }     0.00000
   scf:    4    -4318.440916    -4318.440828    -4318.440828  0.000528 -2.422730  0.028755
     spin moment: {S} , |S| = {    0.00000    0.00000   -0.00000 }     0.00000
   scf:    5    -4318.440865    -4318.440850    -4318.440850  0.000371 -2.424253  0.009715
     spin moment: {S} , |S| = {    0.00000    0.00000   -0.00000 }     0.00000
   scf:    6    -4318.440855    -4318.440853    -4318.440853  0.000179 -2.424253  0.002834
     spin moment: {S} , |S| = {    0.00000    0.00000   -0.00000 }     0.00000
   scf:    7    -4318.440853    -4318.440853    -4318.440853  0.000080 -2.424323  0.000469
     spin moment: {S} , |S| = {    0.00000    0.00000   -0.00000 }     0.00000
   scf:    8    -4318.440853    -4318.440853    -4318.440853  0.000019 -2.424322  0.000280
     spin moment: {S} , |S| = {    0.00000    0.00000   -0.00000 }     0.00000
   scf:    9    -4318.440853    -4318.440853    -4318.440853  0.000020 -2.424343  0.000104
     spin moment: {S} , |S| = {    0.00000    0.00000   -0.00000 }     0.00000
   scf:   10    -4318.440853    -4318.440853    -4318.440853  0.000007 -2.424355  0.000061
     spin moment: {S} , |S| = {    0.00000    0.00000   -0.00000 }     0.00000
   scf:   11    -4318.440853    -4318.440853    -4318.440853  0.000003 -2.424360  0.000040
     spin moment: {S} , |S| = {    0.00000    0.00000   -0.00000 }     0.00000
   scf:   12    -4318.440853    -4318.440853    -4318.440853  0.000002 -2.424364  0.000017
     spin moment: {S} , |S| = {    0.00000    0.00000   -0.00000 }     0.00000
   scf:   13    -4318.440853    -4318.440853    -4318.440853  0.000001 -2.424365  0.000006
     spin moment: {S} , |S| = {    0.00000    0.00000   -0.00000 }     0.00000
   scf:   14    -4318.440853    -4318.440853    -4318.440853  0.000000 -2.424366  0.000002
     spin moment: {S} , |S| = {    0.00000    0.00000   -0.00000 }     0.00000
   scf:   15    -4318.440853    -4318.440853    -4318.440853  0.000000 -2.424366  0.000001
     spin moment: {S} , |S| = {    0.00000    0.00000   -0.00000 }     0.00000

SCF Convergence by DM+H criterion
max |DM_out - DM_in|         :     0.0000000348
max |H_out - H_in|      (eV) :     0.0000006970
SCF cycle converged after 15 iterations

Using DM_out to compute the final energy and forces

siesta: E_KS(eV) =            -4318.4409
     spin moment: {S} , |S| = {    0.00000    0.00000   -0.00000 }     0.00000

siesta: Atomic forces (eV/Ang):
     1   -0.292363   -0.096551    0.000000
     2    0.040362   -0.052369    0.000000
     3    0.071973    0.191509   -0.000000
     4    0.171821    0.323242   -0.000000
     5    0.039871    0.029661    0.000000
     6    0.177724    0.099023   -0.000000
     7    0.090042   -0.007500    0.000000
     8   -0.214928    0.151304   -0.000000
     9   -0.960928   -2.090453   -0.000000
    10    1.384140    1.834469    0.000000
    11    0.045330   -0.173396   -0.000000
    12   -0.097065   -0.085960    0.000000
    13   -0.216328   -0.258537    0.000000
    14   -0.172455    0.080685   -0.000000
    15   -0.046740    0.040008    0.000000
----------------------------------------
   Tot    0.020457   -0.014863   -0.000000
----------------------------------------
   Max    2.090453
   Res    0.498292    sqrt( Sum f_i^2 / 3N )
----------------------------------------
   Max    2.090453    constrained

Stress tensor Voigt[x,y,z,yz,xz,xy] (kbar):        3.42        5.63       -0.04        0.00       -0.00        2.04
(Free)E + p*V (eV/cell)    -4322.0416
Target enthalpy (eV/cell)    -4318.4409

                     ====================================
                        Begin Broyden opt. move =      3
                     ====================================

outcoor: Atomic coordinates (Ang):                          
    2.19791793   -5.12833234    0.00000000   1       1  H
    1.28950448   -4.60024719    0.00000000   2       2  N
   -0.29975753   -5.41611139    0.00000000   3       3  Si
   -0.22773365   -6.90619165    0.00000000   1       4  H
   -1.71659503   -4.48754762    0.00000000   2       5  N
   -1.16006198   -2.76542566    0.00000000   3       6  Si
   -1.47617068   -0.56328420    0.00000000   3       7  Si
   -3.00169837    0.30750713    0.00000000   2       8  N
   -3.03706113    1.35505352    0.00000000   1       9  H
   -3.93324540   -0.17058174    0.00000000   1      10  H
   -0.07427606    0.44875293    0.00000000   2      11  N
    1.56654907   -0.02907406    0.00000000   3      12  Si
    2.53354336    1.11325386    0.00000000   1      13  H
    2.31521340   -1.58763516    0.00000000   2      14  N
    1.05537539   -2.77713500    0.00000000   3      15  Si

outcell: Unit cell vectors (Ang):
       13.852571    0.000000    0.000000
        0.000000   15.841361    0.000000
        0.000000    0.000000    8.754136

outcell: Cell vector modules (Ang)   :   13.852571   15.841361    8.754136
outcell: Cell angles (23,13,12) (deg):     90.0000     90.0000     90.0000
outcell: Cell volume (Ang**3)        :   1921.0390
<dSpData1D:S at geom step 3
  <sparsity:sparsity for geom step 3
    nrows_g=155 nrows=20 sparsity=.1226 nnzs=2946, refcount: 8>
  <dData1D:(new from dSpData1D) n=2946, refcount: 1>
refcount: 1>
new_DM -- step:     4
Re-using DM from previous geometries...
Number of DMs in history: 1
 DM extrapolation coefficients: 
1   1.00000
New DM after history re-use:
<dSpData2D:SpM extrapolated using coords
  <sparsity:sparsity for geom step 3
    nrows_g=155 nrows=20 sparsity=.1226 nnzs=2946, refcount: 10>
  <dData2D:(temp array for extrapolation) n=2946 m=8, refcount: 1>
refcount: 1>
     spin moment: {S} , |S| = {    0.00000    0.00000    0.00000 }     0.00000

InitMesh: MESH = 150 x 180 x 96 = 2592000
InitMesh: Mesh cutoff (required, used) =   300.000   324.059 Ry
New grid distribution [1]: sub = 2
New grid distribution [2]: sub = 2
New grid distribution [3]: sub = 2
Setting up quadratic distribution...

        iscf     Eharris(eV)        E_KS(eV)     FreeEng(eV)     dDmax    Ef(eV) dHmax(eV)
   scf:    1    -4318.390062    -4318.462513    -4318.462513  0.005386 -2.398984  0.160329
     spin moment: {S} , |S| = {    0.00000    0.00000   -0.00000 }     0.00000
   scf:    2    -4318.435655    -4318.454895    -4318.454895  0.005873 -2.348927  0.413734
     spin moment: {S} , |S| = {    0.00000    0.00000   -0.00000 }     0.00000
   scf:    3    -4318.465403    -4318.463636    -4318.463636  0.004662 -2.362540  0.034928
     spin moment: {S} , |S| = {    0.00000    0.00000   -0.00000 }     0.00000
   scf:    4    -4318.463685    -4318.463664    -4318.463664  0.000347 -2.357974  0.013877
     spin moment: {S} , |S| = {    0.00000    0.00000   -0.00000 }     0.00000
   scf:    5    -4318.463672    -4318.463669    -4318.463669  0.000217 -2.356404  0.002753
     spin moment: {S} , |S| = {    0.00000    0.00000   -0.00000 }     0.00000
   scf:    6    -4318.463669    -4318.463669    -4318.463669  0.000059 -2.356275  0.000699
     spin moment: {S} , |S| = {    0.00000    0.00000   -0.00000 }     0.00000
   scf:    7    -4318.463669    -4318.463669    -4318.463669  0.000020 -2.356254  0.000363
     spin moment: {S} , |S| = {    0.00000    0.00000   -0.00000 }     0.00000
   scf:    8    -4318.463669    -4318.463669    -4318.463669  0.000016 -2.356226  0.000124
     spin moment: {S} , |S| = {    0.00000    0.00000   -0.00000 }     0.00000
   scf:    9    -4318.463669    -4318.463669    -4318.463669  0.000009 -2.356215  0.000046
     spin moment: {S} , |S| = {    0.00000    0.00000   -0.00000 }     0.00000
   scf:   10    -4318.463669    -4318.463669    -4318.463669  0.000003 -2.356214  0.000017
     spin moment: {S} , |S| = {    0.00000    0.00000   -0.00000 }     0.00000
   scf:   11    -4318.463669    -4318.463669    -4318.463669  0.000001 -2.356213  0.000010
     spin moment: {S} , |S| = {    0.00000    0.00000   -0.00000 }     0.00000
   scf:   12    -4318.463669    -4318.463669    -4318.463669  0.000001 -2.356213  0.000007
     spin moment: {S} , |S| = {    0.00000    0.00000   -0.00000 }     0.00000
   scf:   13    -4318.463669    -4318.463669    -4318.463669  0.000001 -2.356213  0.000002
     spin moment: {S} , |S| = {    0.00000    0.00000   -0.00000 }     0.00000
   scf:   14    -4318.463669    -4318.463669    -4318.463669  0.000000 -2.356212  0.000001
     spin moment: {S} , |S| = {    0.00000    0.00000   -0.00000 }     0.00000

SCF Convergence by DM+H criterion
max |DM_out - DM_in|         :     0.0000000990
max |H_out - H_in|      (eV) :     0.0000006420
SCF cycle converged after 14 iterations

Using DM_out to compute the final energy and forces

siesta: E_KS(eV) =            -4318.4637
     spin moment: {S} , |S| = {    0.00000    0.00000   -0.00000 }     0.00000

siesta: Atomic forces (eV/Ang):
     1   -0.748618   -0.336050    0.000000
     2    0.167049   -0.074320    0.000000
     3    0.047052    0.087224   -0.000000
     4    0.550079    0.648533   -0.000000
     5    0.023800    0.044580    0.000000
     6    0.172543    0.110892   -0.000000
     7    0.046920   -0.006709    0.000000
     8   -0.003526    0.039627   -0.000000
     9    0.258836    0.185029   -0.000000
    10   -0.021275   -0.344415    0.000000
    11    0.031460   -0.154493   -0.000000
    12   -0.102859   -0.087903    0.000000
    13   -0.194312   -0.227793    0.000000
    14   -0.149000    0.049803   -0.000000
    15   -0.058180    0.047721    0.000000
----------------------------------------
   Tot    0.019968   -0.018273   -0.000000
----------------------------------------
   Max    0.748618
   Res    0.203945    sqrt( Sum f_i^2 / 3N )
----------------------------------------
   Max    0.748618    constrained

Stress tensor Voigt[x,y,z,yz,xz,xy] (kbar):        3.04        3.06       -0.04        0.00       -0.00        0.89
(Free)E + p*V (eV/cell)    -4320.8851
Target enthalpy (eV/cell)    -4318.4637

                     ====================================
                        Begin Broyden opt. move =      4
                     ====================================

outcoor: Atomic coordinates (Ang):                          
    2.19037635   -5.13140801    0.00000000   1       1  H
    1.29053850   -4.60096026    0.00000000   2       2  N
   -0.29810995   -5.41191847    0.00000000   3       3  Si
   -0.22289762   -6.89736817    0.00000000   1       4  H
   -1.71576925   -4.48663550    0.00000000   2       5  N
   -1.16006198   -2.76542566    0.00000000   3       6  Si
   -1.47486017   -0.56326230    0.00000000   3       7  Si
   -3.00132294    0.30821014    0.00000000   2       8  N
   -3.03384870    1.35429932    0.00000000   1       9  H
   -3.93062799   -0.17370946    0.00000000   1      10  H
   -0.07332941    0.44454772    0.00000000   2      11  N
    1.56396647   -0.03134565    0.00000000   3      12  Si
    2.52821147    1.10701340    0.00000000   1      13  H
    2.31107711   -1.58600202    0.00000000   2      14  N
    1.05415295   -2.77620089    0.00000000   3      15  Si

outcell: Unit cell vectors (Ang):
       13.852571    0.000000    0.000000
        0.000000   15.841361    0.000000
        0.000000    0.000000    8.754136

outcell: Cell vector modules (Ang)   :   13.852571   15.841361    8.754136
outcell: Cell angles (23,13,12) (deg):     90.0000     90.0000     90.0000
outcell: Cell volume (Ang**3)        :   1921.0390
<dSpData1D:S at geom step 4
  <sparsity:sparsity for geom step 4
    nrows_g=155 nrows=20 sparsity=.1229 nnzs=2952, refcount: 8>
  <dData1D:(new from dSpData1D) n=2952, refcount: 1>
refcount: 1>
new_DM -- step:     5
Re-using DM from previous geometries...
Number of DMs in history: 1
 DM extrapolation coefficients: 
1   1.00000
New DM after history re-use:
<dSpData2D:SpM extrapolated using coords
  <sparsity:sparsity for geom step 4
    nrows_g=155 nrows=20 sparsity=.1229 nnzs=2952, refcount: 10>
  <dData2D:(temp array for extrapolation) n=2952 m=8, refcount: 1>
refcount: 1>
     spin moment: {S} , |S| = {    0.00000    0.00000   -0.00000 }     0.00000

InitMesh: MESH = 150 x 180 x 96 = 2592000
InitMesh: Mesh cutoff (required, used) =   300.000   324.059 Ry
New grid distribution [1]: sub = 2
New grid distribution [2]: sub = 2
New grid distribution [3]: sub = 2
Setting up quadratic distribution...

        iscf     Eharris(eV)        E_KS(eV)     FreeEng(eV)     dDmax    Ef(eV) dHmax(eV)
   scf:    1    -4318.387689    -4318.470026    -4318.470026  0.003959 -4.086228  0.146794
     spin moment: {S} , |S| = {    0.00000    0.00000   -0.00000 }     0.00000
   scf:    2    -4318.431157    -4318.458997    -4318.458997  0.009770 -4.067485  0.515471
     spin moment: {S} , |S| = {    0.00000    0.00000   -0.00000 }     0.00000
   scf:    3    -4318.474253    -4318.471598    -4318.471598  0.007858 -4.075691  0.020915
     spin moment: {S} , |S| = {    0.00000    0.00000   -0.00000 }     0.00000
   scf:    4    -4318.471618    -4318.471610    -4318.471610  0.000146 -4.076029  0.010114
     spin moment: {S} , |S| = {    0.00000    0.00000   -0.00000 }     0.00000
   scf:    5    -4318.471615    -4318.471613    -4318.471613  0.000139 -4.076579  0.001975
     spin moment: {S} , |S| = {    0.00000    0.00000   -0.00000 }     0.00000
   scf:    6    -4318.471613    -4318.471613    -4318.471613  0.000042 -4.076639  0.000470
     spin moment: {S} , |S| = {    0.00000    0.00000   -0.00000 }     0.00000
   scf:    7    -4318.471613    -4318.471613    -4318.471613  0.000009 -4.076617  0.000219
     spin moment: {S} , |S| = {    0.00000    0.00000   -0.00000 }     0.00000
   scf:    8    -4318.471613    -4318.471613    -4318.471613  0.000005 -4.076601  0.000067
     spin moment: {S} , |S| = {    0.00000    0.00000   -0.00000 }     0.00000
   scf:    9    -4318.471613    -4318.471613    -4318.471613  0.000002 -4.076593  0.000034
     spin moment: {S} , |S| = {    0.00000    0.00000   -0.00000 }     0.00000
   scf:   10    -4318.471613    -4318.471613    -4318.471613  0.000001 -4.076590  0.000014
     spin moment: {S} , |S| = {    0.00000    0.00000   -0.00000 }     0.00000
   scf:   11    -4318.471613    -4318.471613    -4318.471613  0.000000 -4.076589  0.000010
     spin moment: {S} , |S| = {    0.00000    0.00000   -0.00000 }     0.00000
   scf:   12    -4318.471613    -4318.471613    -4318.471613  0.000000 -4.076590  0.000005
     spin moment: {S} , |S| = {    0.00000    0.00000   -0.00000 }     0.00000
   scf:   13    -4318.471613    -4318.471613    -4318.471613  0.000000 -4.076590  0.000001
     spin moment: {S} , |S| = {    0.00000    0.00000   -0.00000 }     0.00000
   scf:   14    -4318.471613    -4318.471613    -4318.471613  0.000000 -4.076590  0.000001
     spin moment: {S} , |S| = {    0.00000    0.00000   -0.00000 }     0.00000

SCF Convergence by DM+H criterion
max |DM_out - DM_in|         :     0.0000000207
max |H_out - H_in|      (eV) :     0.0000005832
SCF cycle converged after 14 iterations

Using DM_out to compute the final energy and forces

siesta: E_KS(eV) =            -4318.4716
     spin moment: {S} , |S| = {    0.00000    0.00000   -0.00000 }     0.00000

siesta: Atomic forces (eV/Ang):
     1    0.600546    0.383681    0.000000
     2   -0.036706    0.087609    0.000000
     3    0.032219    0.096672   -0.000000
     4   -0.583889   -0.251669   -0.000000
     5   -0.001497    0.044808    0.000000
     6    0.162638    0.127361   -0.000000
     7   -0.018661   -0.023170    0.000000
     8    0.058304   -0.050835   -0.000000
     9    0.093926    0.026240   -0.000000
    10    0.089939   -0.105295    0.000000
    11   -0.018135   -0.105612   -0.000000
    12   -0.098232   -0.090941    0.000000
    13   -0.122399   -0.150717    0.000000
    14   -0.094157   -0.014644   -0.000000
    15   -0.044407    0.002149    0.000000
----------------------------------------
   Tot    0.019488   -0.024365   -0.000000
----------------------------------------
   Max    0.600546
   Res    0.155630    sqrt( Sum f_i^2 / 3N )
----------------------------------------
   Max    0.600546    constrained

Stress tensor Voigt[x,y,z,yz,xz,xy] (kbar):        0.26        1.60       -0.04        0.00       -0.00       -0.61
(Free)E + p*V (eV/cell)    -4319.2027
Target enthalpy (eV/cell)    -4318.4716

                     ====================================
                        Begin Broyden opt. move =      5
                     ====================================

outcoor: Atomic coordinates (Ang):                          
    2.19542116   -5.12674405    0.00000000   1       1  H
    1.29202318   -4.59991428    0.00000000   2       2  N
   -0.29762494   -5.41091931    0.00000000   3       3  Si
   -0.22936177   -6.89729874    0.00000000   1       4  H
   -1.71590828   -4.48545492    0.00000000   2       5  N
   -1.16006198   -2.76542566    0.00000000   3       6  Si
   -1.47521908   -0.56393502    0.00000000   3       7  Si
   -3.00086451    0.30760239    0.00000000   2       8  N
   -3.03176808    1.35392112    0.00000000   1       9  H
   -3.92776390   -0.17561481    0.00000000   1      10  H
   -0.07378221    0.44219395    0.00000000   2      11  N
    1.56165305   -0.03343732    0.00000000   3      12  Si
    2.52552100    1.10367848    0.00000000   1      13  H
    2.30902818   -1.58648518    0.00000000   2      14  N
    1.05293266   -2.77591116    0.00000000   3      15  Si

outcell: Unit cell vectors (Ang):
       13.852571    0.000000    0.000000
        0.000000   15.841361    0.000000
        0.000000    0.000000    8.754136

outcell: Cell vector modules (Ang)   :   13.852571   15.841361    8.754136
outcell: Cell angles (23,13,12) (deg):     90.0000     90.0000     90.0000
outcell: Cell volume (Ang**3)        :   1921.0390
<dSpData1D:S at geom step 5
  <sparsity:sparsity for geom step 5
    nrows_g=155 nrows=20 sparsity=.1229 nnzs=2952, refcount: 8>
  <dData1D:(new from dSpData1D) n=2952, refcount: 1>
refcount: 1>
new_DM -- step:     6
Re-using DM from previous geometries...
Number of DMs in history: 1
 DM extrapolation coefficients: 
1   1.00000
New DM after history re-use:
<dSpData2D:SpM extrapolated using coords
  <sparsity:sparsity for geom step 5
    nrows_g=155 nrows=20 sparsity=.1229 nnzs=2952, refcount: 10>
  <dData2D:(temp array for extrapolation) n=2952 m=8, refcount: 1>
refcount: 1>
     spin moment: {S} , |S| = {    0.00000    0.00000    0.00000 }     0.00000

InitMesh: MESH = 150 x 180 x 96 = 2592000
InitMesh: Mesh cutoff (required, used) =   300.000   324.059 Ry
New grid distribution [1]: sub = 2
New grid distribution [2]: sub = 2
New grid distribution [3]: sub = 2
Setting up quadratic distribution...

        iscf     Eharris(eV)        E_KS(eV)     FreeEng(eV)     dDmax    Ef(eV) dHmax(eV)
   scf:    1    -4318.460703    -4318.476094    -4318.476094  0.001279 -4.004193  0.064368
     spin moment: {S} , |S| = {    0.00000    0.00000   -0.00000 }     0.00000
   scf:    2    -4318.470835    -4318.474649    -4318.474649  0.003148 -3.954378  0.175731
     spin moment: {S} , |S| = {    0.00000    0.00000   -0.00000 }     0.00000
   scf:    3    -4318.476790    -4318.476362    -4318.476362  0.002300 -3.990267  0.006916
     spin moment: {S} , |S| = {    0.00000    0.00000   -0.00000 }     0.00000
   scf:    4    -4318.476365    -4318.476364    -4318.476364  0.000041 -3.989388  0.003462
     spin moment: {S} , |S| = {    0.00000    0.00000   -0.00000 }     0.00000
   scf:    5    -4318.476365    -4318.476364    -4318.476364  0.000046 -3.988762  0.000810
     spin moment: {S} , |S| = {    0.00000    0.00000   -0.00000 }     0.00000
   scf:    6    -4318.476364    -4318.476364    -4318.476364  0.000013 -3.988591  0.000116
     spin moment: {S} , |S| = {    0.00000    0.00000   -0.00000 }     0.00000
   scf:    7    -4318.476364    -4318.476364    -4318.476364  0.000004 -3.988562  0.000059
     spin moment: {S} , |S| = {    0.00000    0.00000   -0.00000 }     0.00000
   scf:    8    -4318.476364    -4318.476364    -4318.476364  0.000002 -3.988554  0.000023
     spin moment: {S} , |S| = {    0.00000    0.00000   -0.00000 }     0.00000
   scf:    9    -4318.476364    -4318.476364    -4318.476364  0.000001 -3.988554  0.000009
     spin moment: {S} , |S| = {    0.00000    0.00000   -0.00000 }     0.00000
   scf:   10    -4318.476364    -4318.476364    -4318.476364  0.000000 -3.988554  0.000005
     spin moment: {S} , |S| = {    0.00000    0.00000   -0.00000 }     0.00000
   scf:   11    -4318.476364    -4318.476364    -4318.476364  0.000000 -3.988554  0.000002
     spin moment: {S} , |S| = {    0.00000    0.00000   -0.00000 }     0.00000
   scf:   12    -4318.476364    -4318.476364    -4318.476364  0.000000 -3.988555  0.000001
     spin moment: {S} , |S| = {    0.00000    0.00000   -0.00000 }     0.00000
   scf:   13    -4318.476364    -4318.476364    -4318.476364  0.000000 -3.988555  0.000000
     spin moment: {S} , |S| = {    0.00000    0.00000   -0.00000 }     0.00000

SCF Convergence by DM+H criterion
max |DM_out - DM_in|         :     0.0000000436
max |H_out - H_in|      (eV) :     0.0000003254
SCF cycle converged after 13 iterations

Using DM_out to compute the final energy and forces

siesta: E_KS(eV) =            -4318.4764
     spin moment: {S} , |S| = {    0.00000    0.00000   -0.00000 }     0.00000

siesta: Atomic forces (eV/Ang):
     1   -0.269635   -0.187279    0.000000
     2    0.000066    0.053141    0.000000
     3    0.024079    0.087915   -0.000000
     4    0.236965    0.348353   -0.000000
     5    0.013103    0.024446    0.000000
     6    0.150666    0.139596   -0.000000
     7   -0.023259   -0.035186    0.000000
     8    0.123918   -0.014480   -0.000000
     9    0.025518   -0.070233   -0.000000
    10    0.070334   -0.036832    0.000000
    11   -0.042509   -0.086354   -0.000000
    12   -0.070990   -0.078326    0.000000
    13   -0.105207   -0.132336    0.000000
    14   -0.074538   -0.025548   -0.000000
    15   -0.040860   -0.012842    0.000000
----------------------------------------
   Tot    0.017652   -0.025965   -0.000000
----------------------------------------
   Max    0.348353
   Res    0.097258    sqrt( Sum f_i^2 / 3N )
----------------------------------------
   Max    0.348353    constrained

Stress tensor Voigt[x,y,z,yz,xz,xy] (kbar):        1.78        2.43       -0.04        0.00        0.00        0.59
(Free)E + p*V (eV/cell)    -4320.1411
Target enthalpy (eV/cell)    -4318.4764

                     ====================================
                        Begin Broyden opt. move =      6
                     ====================================

outcoor: Atomic coordinates (Ang):                          
    2.19377200   -5.12786568    0.00000000   1       1  H
    1.29164255   -4.59831891    0.00000000   2       2  N
   -0.29644363   -5.40719438    0.00000000   3       3  Si
   -0.22865207   -6.89089853    0.00000000   1       4  H
   -1.71541915   -4.48445718    0.00000000   2       5  N
   -1.16006198   -2.76542566    0.00000000   3       6  Si
   -1.47544325   -0.56474335    0.00000000   3       7  Si
   -2.99785132    0.30709153    0.00000000   2       8  N
   -3.02993620    1.35234901    0.00000000   1       9  H
   -3.92499730   -0.17764566    0.00000000   1      10  H
   -0.07446121    0.43864389    0.00000000   2      11  N
    1.55891902   -0.03618889    0.00000000   3      12  Si
    2.52117595    1.09836607    0.00000000   1      13  H
    2.30579547   -1.58660347    0.00000000   2      14  N
    1.05154302   -2.77593228    0.00000000   3      15  Si

outcell: Unit cell vectors (Ang):
       13.852571    0.000000    0.000000
        0.000000   15.841361    0.000000
        0.000000    0.000000    8.754136

outcell: Cell vector modules (Ang)   :   13.852571   15.841361    8.754136
outcell: Cell angles (23,13,12) (deg):     90.0000     90.0000     90.0000
outcell: Cell volume (Ang**3)        :   1921.0390
<dSpData1D:S at geom step 6
  <sparsity:sparsity for geom step 6
    nrows_g=155 nrows=20 sparsity=.1229 nnzs=2952, refcount: 8>
  <dData1D:(new from dSpData1D) n=2952, refcount: 1>
refcount: 1>
new_DM -- step:     7
Re-using DM from previous geometries...
Number of DMs in history: 1
 DM extrapolation coefficients: 
1   1.00000
New DM after history re-use:
<dSpData2D:SpM extrapolated using coords
  <sparsity:sparsity for geom step 6
    nrows_g=155 nrows=20 sparsity=.1229 nnzs=2952, refcount: 10>
  <dData2D:(temp array for extrapolation) n=2952 m=8, refcount: 1>
refcount: 1>
     spin moment: {S} , |S| = {    0.00000    0.00000   -0.00000 }     0.00000

InitMesh: MESH = 150 x 180 x 96 = 2592000
InitMesh: Mesh cutoff (required, used) =   300.000   324.059 Ry
New grid distribution [1]: sub = 2
New grid distribution [2]: sub = 2
New grid distribution [3]: sub = 2
Setting up quadratic distribution...

        iscf     Eharris(eV)        E_KS(eV)     FreeEng(eV)     dDmax    Ef(eV) dHmax(eV)
   scf:    1    -4318.428546    -4318.480206    -4318.480206  0.002270 -3.882877  0.074804
     spin moment: {S} , |S| = {    0.00000    0.00000    0.00000 }     0.00000
   scf:    2    -4318.471359    -4318.477772    -4318.477772  0.004083 -3.848994  0.246262
     spin moment: {S} , |S| = {    0.00000    0.00000    0.00000 }     0.00000
   scf:    3    -4318.481379    -4318.480652    -4318.480652  0.003233 -3.871216  0.010631
     spin moment: {S} , |S| = {    0.00000    0.00000    0.00000 }     0.00000
   scf:    4    -4318.480656    -4318.480654    -4318.480654  0.000080 -3.871103  0.005606
     spin moment: {S} , |S| = {    0.00000    0.00000    0.00000 }     0.00000
   scf:    5    -4318.480655    -4318.480655    -4318.480655  0.000067 -3.870945  0.002281
     spin moment: {S} , |S| = {    0.00000    0.00000    0.00000 }     0.00000
   scf:    6    -4318.480655    -4318.480655    -4318.480655  0.000035 -3.870815  0.000333
     spin moment: {S} , |S| = {    0.00000    0.00000    0.00000 }     0.00000
   scf:    7    -4318.480655    -4318.480655    -4318.480655  0.000005 -3.870755  0.000139
     spin moment: {S} , |S| = {    0.00000    0.00000    0.00000 }     0.00000
   scf:    8    -4318.480655    -4318.480655    -4318.480655  0.000003 -3.870734  0.000047
     spin moment: {S} , |S| = {    0.00000    0.00000    0.00000 }     0.00000
   scf:    9    -4318.480655    -4318.480655    -4318.480655  0.000001 -3.870732  0.000023
     spin moment: {S} , |S| = {    0.00000    0.00000    0.00000 }     0.00000
   scf:   10    -4318.480655    -4318.480655    -4318.480655  0.000000 -3.870731  0.000014
     spin moment: {S} , |S| = {    0.00000    0.00000    0.00000 }     0.00000
   scf:   11    -4318.480655    -4318.480655    -4318.480655  0.000000 -3.870731  0.000003
     spin moment: {S} , |S| = {    0.00000    0.00000    0.00000 }     0.00000
   scf:   12    -4318.480655    -4318.480655    -4318.480655  0.000000 -3.870731  0.000001
     spin moment: {S} , |S| = {    0.00000    0.00000    0.00000 }     0.00000
[...]
outcell: Cell volume (Ang**3)        :   1921.0390
<dSpData1D:S at geom step 35
  <sparsity:sparsity for geom step 35
    nrows_g=155 nrows=20 sparsity=.1229 nnzs=2952, refcount: 8>
  <dData1D:(new from dSpData1D) n=2952, refcount: 1>
refcount: 1>
new_DM -- step:    36
Re-using DM from previous geometries...
Number of DMs in history: 1
 DM extrapolation coefficients: 
1   1.00000
New DM after history re-use:
<dSpData2D:SpM extrapolated using coords
  <sparsity:sparsity for geom step 35
    nrows_g=155 nrows=20 sparsity=.1229 nnzs=2952, refcount: 10>
  <dData2D:(temp array for extrapolation) n=2952 m=8, refcount: 1>
refcount: 1>
     spin moment: {S} , |S| = {    0.00000    0.00000    0.00000 }     0.00000

InitMesh: MESH = 150 x 180 x 96 = 2592000
InitMesh: Mesh cutoff (required, used) =   300.000   324.059 Ry
New grid distribution [1]: sub = 2
New grid distribution [2]: sub = 2
New grid distribution [3]: sub = 2
Setting up quadratic distribution...

        iscf     Eharris(eV)        E_KS(eV)     FreeEng(eV)     dDmax    Ef(eV) dHmax(eV)
   scf:    1    -4318.492579    -4318.492477    -4318.492477  0.000105 -3.668084  0.003859
     spin moment: {S} , |S| = {    0.00000    0.00000    0.00000 }     0.00000
   scf:    2    -4318.492443    -4318.492467    -4318.492467  0.000225 -3.665931  0.014737
     spin moment: {S} , |S| = {    0.00000    0.00000    0.00000 }     0.00000
   scf:    3    -4318.492481    -4318.492478    -4318.492478  0.000178 -3.667580  0.000328
     spin moment: {S} , |S| = {    0.00000    0.00000    0.00000 }     0.00000
   scf:    4    -4318.492478    -4318.492478    -4318.492478  0.000003 -3.667552  0.000144
     spin moment: {S} , |S| = {    0.00000    0.00000    0.00000 }     0.00000
   scf:    5    -4318.492478    -4318.492478    -4318.492478  0.000002 -3.667541  0.000045
     spin moment: {S} , |S| = {    0.00000    0.00000    0.00000 }     0.00000
   scf:    6    -4318.492478    -4318.492478    -4318.492478  0.000001 -3.667536  0.000010
     spin moment: {S} , |S| = {    0.00000    0.00000    0.00000 }     0.00000
   scf:    7    -4318.492478    -4318.492478    -4318.492478  0.000000 -3.667535  0.000004
     spin moment: {S} , |S| = {    0.00000    0.00000    0.00000 }     0.00000
   scf:    8    -4318.492478    -4318.492478    -4318.492478  0.000000 -3.667536  0.000002
     spin moment: {S} , |S| = {    0.00000    0.00000    0.00000 }     0.00000
   scf:    9    -4318.492478    -4318.492478    -4318.492478  0.000000 -3.667536  0.000001
     spin moment: {S} , |S| = {    0.00000    0.00000    0.00000 }     0.00000

SCF Convergence by DM+H criterion
max |DM_out - DM_in|         :     0.0000000520
max |H_out - H_in|      (eV) :     0.0000008671
SCF cycle converged after 9 iterations

Using DM_out to compute the final energy and forces

siesta: E_KS(eV) =            -4318.4925
     spin moment: {S} , |S| = {    0.00000    0.00000    0.00000 }     0.00000

siesta: Atomic forces (eV/Ang):
     1   -0.002237   -0.003798    0.000000
     2   -0.002866   -0.002481    0.000000
     3   -0.005052    0.000459   -0.000000
     4   -0.008803   -0.001320   -0.000000
     5   -0.004492    0.001801    0.000000
     6    0.033550   -0.012585   -0.000000
     7    0.001187   -0.000007    0.000000
     8    0.003136   -0.000282   -0.000000
     9   -0.001809   -0.003090   -0.000000
    10    0.002430   -0.005361    0.000000
    11   -0.000793    0.001310   -0.000000
    12   -0.001040    0.001977    0.000000
    13   -0.002985    0.002347    0.000000
    14   -0.001350    0.002408   -0.000000
    15    0.000809    0.000366    0.000000
----------------------------------------
   Tot    0.009688   -0.018255    0.000000
----------------------------------------
   Max    0.033550
   Res    0.005841    sqrt( Sum f_i^2 / 3N )
----------------------------------------
   Max    0.008803    constrained

Stress tensor Voigt[x,y,z,yz,xz,xy] (kbar):        0.01       -0.03       -0.04        0.00        0.00       -0.05
(Free)E + p*V (eV/cell)    -4318.4708
Target enthalpy (eV/cell)    -4318.4925

                     ====================================
                        Begin Broyden opt. move =     36
                     ====================================

outcoor: Atomic coordinates (Ang):                          
    2.17861452   -5.14420552    0.00000000   1       1  H
    1.27900070   -4.61168053    0.00000000   2       2  N
   -0.31870692   -5.40062604    0.00000000   3       3  Si
   -0.26851747   -6.87678967    0.00000000   1       4  H
   -1.73322016   -4.47541349    0.00000000   2       5  N
   -1.16006198   -2.76542566    0.00000000   3       6  Si
   -1.48206468   -0.58547295    0.00000000   3       7  Si
   -3.00452285    0.27085767    0.00000000   2       8  N
   -3.05286819    1.31445781    0.00000000   1       9  H
   -3.91972253   -0.23189859    0.00000000   1      10  H
   -0.08474938    0.41372235    0.00000000   2      11  N
    1.54241910   -0.07406749    0.00000000   3      12  Si
    2.50236164    1.05081254    0.00000000   1      13  H
    2.29971307   -1.61867140    0.00000000   2      14  N
    1.04352207   -2.79793708    0.00000000   3      15  Si

outcell: Unit cell vectors (Ang):
       13.852571    0.000000    0.000000
        0.000000   15.841361    0.000000
        0.000000    0.000000    8.754136

outcell: Cell vector modules (Ang)   :   13.852571   15.841361    8.754136
outcell: Cell angles (23,13,12) (deg):     90.0000     90.0000     90.0000
outcell: Cell volume (Ang**3)        :   1921.0390
<dSpData1D:S at geom step 36
  <sparsity:sparsity for geom step 36
    nrows_g=155 nrows=20 sparsity=.1229 nnzs=2952, refcount: 8>
  <dData1D:(new from dSpData1D) n=2952, refcount: 1>
refcount: 1>
new_DM -- step:    37
Re-using DM from previous geometries...
Number of DMs in history: 1
 DM extrapolation coefficients: 
1   1.00000
New DM after history re-use:
<dSpData2D:SpM extrapolated using coords
  <sparsity:sparsity for geom step 36
    nrows_g=155 nrows=20 sparsity=.1229 nnzs=2952, refcount: 10>
  <dData2D:(temp array for extrapolation) n=2952 m=8, refcount: 1>
refcount: 1>
     spin moment: {S} , |S| = {    0.00000    0.00000    0.00000 }     0.00000

InitMesh: MESH = 150 x 180 x 96 = 2592000
InitMesh: Mesh cutoff (required, used) =   300.000   324.059 Ry
New grid distribution [1]: sub = 2
New grid distribution [2]: sub = 2
New grid distribution [3]: sub = 2
Setting up quadratic distribution...

        iscf     Eharris(eV)        E_KS(eV)     FreeEng(eV)     dDmax    Ef(eV) dHmax(eV)
   scf:    1    -4318.492664    -4318.492513    -4318.492513  0.000130 -3.666139  0.005344
     spin moment: {S} , |S| = {    0.00000    0.00000    0.00000 }     0.00000
   scf:    2    -4318.492429    -4318.492488    -4318.492488  0.000297 -3.661916  0.018383
     spin moment: {S} , |S| = {    0.00000    0.00000    0.00000 }     0.00000
   scf:    3    -4318.492520    -4318.492515    -4318.492515  0.000235 -3.665132  0.000609
     spin moment: {S} , |S| = {    0.00000    0.00000    0.00000 }     0.00000
   scf:    4    -4318.492515    -4318.492515    -4318.492515  0.000004 -3.665074  0.000318
     spin moment: {S} , |S| = {    0.00000    0.00000    0.00000 }     0.00000
   scf:    5    -4318.492515    -4318.492515    -4318.492515  0.000003 -3.665044  0.000074
     spin moment: {S} , |S| = {    0.00000    0.00000    0.00000 }     0.00000
   scf:    6    -4318.492515    -4318.492515    -4318.492515  0.000001 -3.665036  0.000012
     spin moment: {S} , |S| = {    0.00000    0.00000    0.00000 }     0.00000
   scf:    7    -4318.492515    -4318.492515    -4318.492515  0.000000 -3.665036  0.000006
     spin moment: {S} , |S| = {    0.00000    0.00000    0.00000 }     0.00000
   scf:    8    -4318.492515    -4318.492515    -4318.492515  0.000000 -3.665036  0.000003
     spin moment: {S} , |S| = {    0.00000    0.00000    0.00000 }     0.00000
   scf:    9    -4318.492515    -4318.492515    -4318.492515  0.000000 -3.665036  0.000001
     spin moment: {S} , |S| = {    0.00000    0.00000    0.00000 }     0.00000
   scf:   10    -4318.492515    -4318.492515    -4318.492515  0.000000 -3.665037  0.000000
     spin moment: {S} , |S| = {    0.00000    0.00000    0.00000 }     0.00000

SCF Convergence by DM+H criterion
max |DM_out - DM_in|         :     0.0000000259
max |H_out - H_in|      (eV) :     0.0000002952
SCF cycle converged after 10 iterations

Using DM_out to compute the final energy and forces

siesta: E_KS(eV) =            -4318.4925
     spin moment: {S} , |S| = {    0.00000    0.00000    0.00000 }     0.00000

siesta: Atomic forces (eV/Ang):
     1   -0.006085   -0.005335    0.000000
     2   -0.001833   -0.001479    0.000000
     3   -0.004624    0.001130   -0.000000
     4   -0.005550    0.000850   -0.000000
     5   -0.004474    0.002474    0.000000
     6    0.033279   -0.012840   -0.000000
     7    0.001544   -0.000179    0.000000
     8    0.002378   -0.004314   -0.000000
     9    0.002528    0.008169   -0.000000
    10   -0.002482   -0.011386    0.000000
    11   -0.000644    0.001735   -0.000000
    12   -0.001145    0.001014    0.000000
    13   -0.002902    0.002402    0.000000
    14   -0.000640    0.001218   -0.000000
    15    0.000114   -0.000594    0.000000
----------------------------------------
   Tot    0.009464   -0.017134    0.000000
----------------------------------------
   Max    0.033279
   Res    0.006113    sqrt( Sum f_i^2 / 3N )
----------------------------------------
   Max    0.011386    constrained

Stress tensor Voigt[x,y,z,yz,xz,xy] (kbar):        0.01       -0.03       -0.04        0.00        0.00       -0.05
(Free)E + p*V (eV/cell)    -4318.4673
Target enthalpy (eV/cell)    -4318.4925

                     ====================================
                        Begin Broyden opt. move =     37
                     ====================================

outcoor: Atomic coordinates (Ang):                          
    2.17791394   -5.14500016    0.00000000   1       1  H
    1.27855989   -4.61207848    0.00000000   2       2  N
   -0.31932463   -5.40075897    0.00000000   3       3  Si
   -0.26963524   -6.87694072    0.00000000   1       4  H
   -1.73360909   -4.47523714    0.00000000   2       5  N
   -1.16006198   -2.76542566    0.00000000   3       6  Si
   -1.48201456   -0.58553738    0.00000000   3       7  Si
   -3.00465487    0.27035479    0.00000000   2       8  N
   -3.05354158    1.31396559    0.00000000   1       9  H
   -3.91957809   -0.23295887    0.00000000   1      10  H
   -0.08480167    0.41373221    0.00000000   2      11  N
    1.54233415   -0.07413147    0.00000000   3      12  Si
    2.50225889    1.05075017    0.00000000   1      13  H
    2.29956063   -1.61876891    0.00000000   2      14  N
    1.04347983   -2.79818444    0.00000000   3      15  Si

outcell: Unit cell vectors (Ang):
       13.852571    0.000000    0.000000
        0.000000   15.841361    0.000000
        0.000000    0.000000    8.754136

outcell: Cell vector modules (Ang)   :   13.852571   15.841361    8.754136
outcell: Cell angles (23,13,12) (deg):     90.0000     90.0000     90.0000
outcell: Cell volume (Ang**3)        :   1921.0390
<dSpData1D:S at geom step 37
  <sparsity:sparsity for geom step 37
    nrows_g=155 nrows=20 sparsity=.1229 nnzs=2952, refcount: 8>
  <dData1D:(new from dSpData1D) n=2952, refcount: 1>
refcount: 1>
new_DM -- step:    38
Re-using DM from previous geometries...
Number of DMs in history: 1
 DM extrapolation coefficients: 
1   1.00000
New DM after history re-use:
<dSpData2D:SpM extrapolated using coords
  <sparsity:sparsity for geom step 37
    nrows_g=155 nrows=20 sparsity=.1229 nnzs=2952, refcount: 10>
  <dData2D:(temp array for extrapolation) n=2952 m=8, refcount: 1>
refcount: 1>
     spin moment: {S} , |S| = {    0.00000    0.00000    0.00000 }     0.00000

InitMesh: MESH = 150 x 180 x 96 = 2592000
InitMesh: Mesh cutoff (required, used) =   300.000   324.059 Ry
New grid distribution [1]: sub = 2
New grid distribution [2]: sub = 2
New grid distribution [3]: sub = 2
Setting up quadratic distribution...

        iscf     Eharris(eV)        E_KS(eV)     FreeEng(eV)     dDmax    Ef(eV) dHmax(eV)
   scf:    1    -4318.492920    -4318.492541    -4318.492541  0.000113 -3.664132  0.002858
     spin moment: {S} , |S| = {    0.00000    0.00000    0.00000 }     0.00000
   scf:    2    -4318.492509    -4318.492531    -4318.492531  0.000189 -3.662048  0.012000
     spin moment: {S} , |S| = {    0.00000    0.00000    0.00000 }     0.00000
   scf:    3    -4318.492544    -4318.492541    -4318.492541  0.000149 -3.663670  0.000166
     spin moment: {S} , |S| = {    0.00000    0.00000    0.00000 }     0.00000
   scf:    4    -4318.492541    -4318.492541    -4318.492541  0.000002 -3.663658  0.000101
     spin moment: {S} , |S| = {    0.00000    0.00000    0.00000 }     0.00000
   scf:    5    -4318.492541    -4318.492541    -4318.492541  0.000001 -3.663658  0.000032
     spin moment: {S} , |S| = {    0.00000    0.00000    0.00000 }     0.00000
   scf:    6    -4318.492541    -4318.492541    -4318.492541  0.000001 -3.663657  0.000009
     spin moment: {S} , |S| = {    0.00000    0.00000    0.00000 }     0.00000
   scf:    7    -4318.492541    -4318.492541    -4318.492541  0.000000 -3.663657  0.000004
     spin moment: {S} , |S| = {    0.00000    0.00000    0.00000 }     0.00000
   scf:    8    -4318.492541    -4318.492541    -4318.492541  0.000000 -3.663657  0.000002
     spin moment: {S} , |S| = {    0.00000    0.00000    0.00000 }     0.00000
   scf:    9    -4318.492541    -4318.492541    -4318.492541  0.000000 -3.663657  0.000001
     spin moment: {S} , |S| = {    0.00000    0.00000    0.00000 }     0.00000

SCF Convergence by DM+H criterion
max |DM_out - DM_in|         :     0.0000000342
max |H_out - H_in|      (eV) :     0.0000008656
SCF cycle converged after 9 iterations

Using DM_out to compute the final energy and forces

siesta: E_KS(eV) =            -4318.4925
     spin moment: {S} , |S| = {    0.00000    0.00000    0.00000 }     0.00000

siesta: Atomic forces (eV/Ang):
     1   -0.001890   -0.003054    0.000000
     2   -0.002077   -0.000090    0.000000
     3   -0.004195    0.001859   -0.000000
     4   -0.007488   -0.000763   -0.000000
     5   -0.005072    0.002503    0.000000
     6    0.032937   -0.013278   -0.000000
     7    0.001625   -0.000235    0.000000
     8    0.000167   -0.002670   -0.000000
     9   -0.001779   -0.002916   -0.000000
    10    0.003520   -0.001108    0.000000
    11   -0.000432    0.002084   -0.000000
    12   -0.001039    0.000332    0.000000
    13   -0.003097    0.002312    0.000000
    14   -0.000495    0.000472   -0.000000
    15   -0.000031   -0.001083    0.000000
----------------------------------------
   Tot    0.010654   -0.015636    0.000000
----------------------------------------
   Max    0.032937
   Res    0.005668    sqrt( Sum f_i^2 / 3N )
----------------------------------------
   Max    0.007488    constrained

Stress tensor Voigt[x,y,z,yz,xz,xy] (kbar):        0.00       -0.02       -0.04        0.00        0.00       -0.04
(Free)E + p*V (eV/cell)    -4318.4705
Target enthalpy (eV/cell)    -4318.4925

outcoor: Relaxed atomic coordinates (Ang):                  
    2.17791394   -5.14500016    0.00000000   1       1  H
    1.27855989   -4.61207848    0.00000000   2       2  N
   -0.31932463   -5.40075897    0.00000000   3       3  Si
   -0.26963524   -6.87694072    0.00000000   1       4  H
   -1.73360909   -4.47523714    0.00000000   2       5  N
   -1.16006198   -2.76542566    0.00000000   3       6  Si
   -1.48201456   -0.58553738    0.00000000   3       7  Si
   -3.00465487    0.27035479    0.00000000   2       8  N
   -3.05354158    1.31396559    0.00000000   1       9  H
   -3.91957809   -0.23295887    0.00000000   1      10  H
   -0.08480167    0.41373221    0.00000000   2      11  N
    1.54233415   -0.07413147    0.00000000   3      12  Si
    2.50225889    1.05075017    0.00000000   1      13  H
    2.29956063   -1.61876891    0.00000000   2      14  N
    1.04347983   -2.79818444    0.00000000   3      15  Si

siesta: Program's energy decomposition (eV):
siesta: Ebs     =      -559.179610
siesta: Eions   =      3880.201652
siesta: Ena     =       756.513129
siesta: Ekin    =      1252.227814
siesta: Enl(+so)=     -1193.974971
siesta: Eso(nil)=         0.000000
siesta: Edftu   =         0.000000
siesta: DEna    =        11.143670
siesta: DUscf   =         6.128396
siesta: DUext   =         0.000000
siesta: Ex      =     -1191.972265
siesta: Ec      =       -78.356661
siesta: Exc     =     -1270.328927
siesta: EbV     =         0.000000
siesta: eta*DQ  =         0.000000
siesta: Emadel  =         0.000000
siesta: Emeta   =         0.000000
siesta: Emolmec =         0.000000
siesta: Ekinion =         0.000000
siesta: Eharris =     -4318.492541
siesta: Etot    =     -4318.492541
siesta: FreeEng =     -4318.492541

siesta: Final energy (eV):
siesta:  Band Struct. =    -559.179610
siesta:       Kinetic =    1252.227814
siesta:       Hartree =    3141.066287
siesta:         Edftu =       0.000000
siesta:      Eso(nil) =       0.000000
siesta:    Ext. field =       0.000000
siesta:         Exch. =   -1191.972265
siesta:         Corr. =     -78.356661
siesta:     Bulk bias =       0.000000
siesta:   Exch.-corr. =   -1270.328927
siesta:  Ion-electron =   -7366.449138
siesta:       Ion-ion =     -75.008578
siesta:       Ekinion =       0.000000
siesta: D3 dispersion =       0.000000
siesta:         Total =   -4318.492541
siesta:         Fermi =      -3.663657

siesta: Atomic forces (eV/Ang):
siesta:      1   -0.001890   -0.003054    0.000000
siesta:      2   -0.002077   -0.000090    0.000000
siesta:      3   -0.004195    0.001859   -0.000000
siesta:      4   -0.007488   -0.000763   -0.000000
siesta:      5   -0.005072    0.002503    0.000000
siesta:      6    0.032937   -0.013278   -0.000000
siesta:      7    0.001625   -0.000235    0.000000
siesta:      8    0.000167   -0.002670   -0.000000
siesta:      9   -0.001779   -0.002916   -0.000000
siesta:     10    0.003520   -0.001108    0.000000
siesta:     11   -0.000432    0.002084   -0.000000
siesta:     12   -0.001039    0.000332    0.000000
siesta:     13   -0.003097    0.002312    0.000000
siesta:     14   -0.000495    0.000472   -0.000000
siesta:     15   -0.000031   -0.001083    0.000000
siesta: ----------------------------------------
siesta:    Tot    0.010654   -0.015636    0.000000

siesta: Stress tensor (static) (eV/Ang**3):
siesta:     0.000003   -0.000027    0.000000
siesta:    -0.000027   -0.000012    0.000000
siesta:     0.000000    0.000000   -0.000025

siesta: Cell volume =       1921.039010 Ang**3

siesta: Pressure (static):
siesta:                Solid            Molecule  Units
siesta:           0.00000013          0.00000021  Ry/Bohr**3
siesta:           0.00001148          0.00001951  eV/Ang**3
siesta:           0.01839730          0.03125865  kBar
(Free)E+ p_basis*V_orbitals  =       -4310.918356
(Free)Eharris+ p_basis*V_orbitals  =       -4310.918356
     spin moment: {S} , |S| = {    0.00000    0.00000    0.00000 }     0.00000

siesta: Electric dipole (a.u.)  =   -0.431529   -0.577616   -0.000000
siesta: Electric dipole (Debye) =   -1.096838   -1.468153   -0.000000

cite: Please see "Adenine.bib" for an exhaustive BiBTeX file.
cite: Please clearly indicate Siesta version in published work: 5.1-MaX-41-g6ad11e234
cite: This calculation has made use of the following articles
cite: which are encouraged to be cited in a published work.
        Primary SIESTA paper
          DOI: www.doi.org/10.1088/0953-8984/14/11/302
        Spin-orbit coupling (off-site approximation)
          DOI: www.doi.org/10.1088/0953-8984/24/8/086005
        ELPA library
          DOI: www.doi.org/10.1088/0953-8984/26/21/213201


>> End of run:  11-OCT-2024  19:47:24
Job completed
