Siesta Version  : v4.1.5-1-g384057250
Architecture    : gcc
Compiler version: GNU Fortran (Debian 12.2.0-14) 12.2.0
Compiler flags  : mpifort -O2 -fPIC -ftree-vectorize -fallow-argument-mismatch
PP flags        : -DFC_HAVE_ABORT -DMPI -DSIESTA__FLOOK -DSIESTA__METIS -DSIESTA__MUMPS -DCDF -DNCDF -DNCDF_4 -DNCDF_PARALLEL -DSIESTA__MRRR -DSIESTA__ELPA
Libraries       : libncdf.a libfdict.a  -lflookall -ldl -lnetcdff -lnetcdf -lz -lscalapack-openmpi -lopenblas -lmetis -lzmumps -lcmumps -ldmumps -lmumps_common -lpord -lsmumps -lesmumps -lscotch -lscotcherr -fopenmp -lelpa
PARALLEL version
NetCDF support
NetCDF-4 support
NetCDF-4 MPI-IO support
METIS ordering support
Lua support

* Running on 32 nodes in parallel
>> Start of run:  16-OCT-2023  20:13:28

                           ***********************       
                           *  WELCOME TO SIESTA  *       
                           ***********************       

reinit: Reading from standard input
reinit: Dumped input in INPUT_TMP.22343
************************** Dump of input data file ****************************
# mpirun -np 4 siesta-4.1.5 < AT.fdf > AT.out &
SystemLabel      AT
NumberOfAtoms    30
NumberOfSpecies  4
%block ChemicalSpeciesLabel
    1    1  H
    2    7  N
    3   14  Si
    4    8  O
%endblock ChemicalSpeciesLabel
############################################
# This overrides Defaults.fdf configuration
############################################
MD.TypeOfRun                Verlet # CG, Verlet
MD.Steps                    0
MaxSCFIterations            300
AtomicCoordinatesFormat NotScaledCartesianAng
%block AtomicCoordinatesAndAtomicSpecies
    2.28494382 -5.19529124 0.0  1  1  H
    1.37433094 -4.6647107 0.0  2  2  N
    -0.21830245 -5.49458215 0.0  3  3  Si
    -0.17484108 -6.98516892 0.0  1  4  H
    -1.66171682 -4.58600741 0.0  2  5  N
    -1.09026419 -2.87456374 0.0  3  6  Si
    -1.53038332 -0.70765692 0.0  3  7  Si
    -3.14415959 -0.09186471 0.0  2  8  N
    -3.40268075 0.95848335 0.0  1  9  H
    -3.95073599 -0.76720972 0.0  1  10  H
    -0.17836637 0.41349951 0.0  2  11  N
    1.49520211 -0.0473996 0.0  3  12  Si
    2.45603905 1.10727302 0.0  1  13  H
    2.30451743 -1.58574382 0.0  2  14  N
    1.10725559 -2.84610319 0.0  3  15  Si
    0.6311851057059892 7.109688015746749 0.0  1  16  H
    -0.1775255742940108 6.417482135746749 0.0  2  17  N
    -1.8341154142940108 7.130602235746749 0.0  3  18  Si
    -1.7372502442940108 8.641327445746748 0.0  1  19  H
    -3.5602717642940105 5.787554105746748 0.0  3  20  Si
    -5.914726014294011 5.779567175746749 0.0  3  21  Si
    -6.4771441342940115 6.514056825746748 -1.20183078  1  22  H
    -6.2145397642940114 4.300476045746748 -0.08618332  1  23  H
    -6.477256594294011 6.344399635746749 1.28814761  1  24  H
    -2.6308811242940107 3.7169828757467482 0.0  3  25  Si
    -3.5803494842940107 2.428446745746748 0.0  4  26  O
    -0.8399362542940109 3.5432474057467482 0.0  2  27  N
    -0.5089448942940108 2.5108904257467484 0.0  1  28  H
    0.4685219657059892 4.737793825746748 0.0  3  29  Si
    2.0344588957059893 4.470546975746749 0.0  4  30  O
%endblock AtomicCoordinatesAndAtomicSpecies
%include ../../../../Defaults.fdf
************************** End of input data file *****************************

reinit: -----------------------------------------------------------------------
reinit: System Name: 
reinit: -----------------------------------------------------------------------
reinit: System Label: AT
reinit: -----------------------------------------------------------------------

initatom: Reading input for the pseudopotentials and atomic orbitals ----------
Species number:   1 Atomic number:    1 Label: H
Species number:   2 Atomic number:    7 Label: N
Species number:   3 Atomic number:   14 Label: Si
Species number:   4 Atomic number:    8 Label: O

Ground state valence configuration:   1s01
Reading pseudopotential information in formatted form from H.psf

Pseudopotential generated from a relativistic atomic calculation

Valence configuration for pseudopotential generation:
1s( 1.00) rc: 0.01
2p( 0.00) rc: 0.60
3d( 0.00) rc: 1.99
4f( 0.00) rc: 2.49
Ground state valence configuration:   2s02  2p03
Reading pseudopotential information in formatted form from N.psf

Pseudopotential generated from a relativistic atomic calculation

Valence configuration for pseudopotential generation:
2s( 2.00) rc: 0.94
2p( 3.00) rc: 0.59
3d( 0.00) rc: 3.46
4f( 0.00) rc: 2.47
Ground state valence configuration:   3s02  3p02
Reading pseudopotential information in formatted form from Si.psf

Pseudopotential generated from a relativistic atomic calculation

Valence configuration for pseudopotential generation:
3s( 2.00) rc: 1.67
3p( 2.00) rc: 2.04
3d( 0.00) rc: 2.89
4f( 0.00) rc: 2.49
Ground state valence configuration:   2s02  2p04
Reading pseudopotential information in formatted form from O.psf

Pseudopotential generated from a relativistic atomic calculation

Valence configuration for pseudopotential generation:
2s( 2.00) rc: 0.45
2p( 4.00) rc: 0.92
3d( 0.00) rc: 2.24
4f( 0.00) rc: 0.25
For H, standard SIESTA heuristics set lmxkb to 2
 (one more than the basis l, including polarization orbitals).
Use PS.lmax or PS.KBprojectors blocks to override.
For N, standard SIESTA heuristics set lmxkb to 3
 (one more than the basis l, including polarization orbitals).
Use PS.lmax or PS.KBprojectors blocks to override.
For Si, standard SIESTA heuristics set lmxkb to 3
 (one more than the basis l, including polarization orbitals).
Use PS.lmax or PS.KBprojectors blocks to override.
For O, standard SIESTA heuristics set lmxkb to 3
 (one more than the basis l, including polarization orbitals).
Use PS.lmax or PS.KBprojectors blocks to override.

<basis_specs>
===============================================================================
H                    Z=   1    Mass=  1.0100        Charge= 0.17977+309
Lmxo=0 Lmxkb= 2    BasisType=split      Semic=F
L=0  Nsemic=0  Cnfigmx=1
          i=1  nzeta=2  polorb=1  (1s)
            splnorm:   0.62000    
               vcte:    0.0000    
               rinn:    0.0000    
               qcoe:    0.0000    
               qyuk:    0.0000    
               qwid:   0.10000E-01
                rcs:    0.0000      0.0000    
            lambdas:    1.0000      1.0000    
-------------------------------------------------------------------------------
L=0  Nkbl=1  erefs: 0.17977+309
L=1  Nkbl=1  erefs: 0.17977+309
L=2  Nkbl=1  erefs: 0.17977+309
===============================================================================
</basis_specs>

atom: Called for H                     (Z =   1)

read_vps: Pseudopotential generation method:
read_vps: ATM4.2.7  Troullier-Martins                       
Valence charge for ps generation:    1.00000

xc_check: Exchange-correlation functional:
xc_check: GGA Perdew, Burke & Ernzerhof 1996
V l=0 = -2*Zval/r beyond r=  0.0098
V l=1 = -2*Zval/r beyond r=  0.5817
V l=2 = -2*Zval/r beyond r=  1.9372
All V_l potentials equal beyond r=  1.9372
This should be close to max(r_c) in ps generation
All pots = -2*Zval/r beyond r=  1.9372

VLOCAL1: 99.0% of the norm of Vloc inside     11.567 Ry
VLOCAL1: 99.9% of the norm of Vloc inside     26.362 Ry
atom: Maximum radius for 4*pi*r*r*local-pseudopot. charge    2.25106
atom: Maximum radius for r*vlocal+2*Zval:    1.91306
GHOST: No ghost state for L =  0
GHOST: No ghost state for L =  1
GHOST: No ghost state for L =  2

KBgen: Kleinman-Bylander projectors: 
   l= 0   rc=  2.036604   el= -0.477180   Ekb= -6.081590   kbcos= -0.277285
   l= 1   rc=  2.195416   el=  0.001076   Ekb= -0.926943   kbcos= -0.034643
   l= 2   rc=  2.251056   el=  0.002010   Ekb= -0.130941   kbcos= -0.009788

KBgen: Total number of Kleinman-Bylander projectors:    9
atom: -------------------------------------------------------------------------

atom: SANKEY-TYPE ORBITALS:
atom: Selected multiple-zeta basis: split     

SPLIT: Orbitals with angular momentum L= 0

SPLIT: Basis orbitals for state 1s

SPLIT: PAO cut-off radius determined from an
SPLIT: energy shift=  0.002000 Ry

   izeta = 1
                 lambda =    1.000000
                     rc =    6.518340
                 energy =   -0.475305
                kinetic =    0.912139
    potential(screened) =   -1.387444
       potential(ionic) =   -1.907295

   izeta = 2
                 rmatch =    2.141150
              splitnorm =    0.620000
                 energy =    0.566467
                kinetic =    3.772856
    potential(screened) =   -3.206389
       potential(ionic) =   -3.759093

POLgen: Perturbative polarization orbital with L=  1

POLgen: Polarization orbital for state 1s

   izeta = 1
                     rc =    6.518340
                 energy =    0.533861
                kinetic =    1.121086
    potential(screened) =   -0.587225
       potential(ionic) =   -1.053027
atom: Total number of Sankey-type orbitals:  5

atm_pop: Valence configuration (for local Pseudopot. screening):
 1s( 1.00)                                                            
Vna: chval, zval:    1.00000   1.00000

Vna:  Cut-off radius for the neutral-atom potential:   6.518340

atom: _________________________________________________________________________

<basis_specs>
===============================================================================
N                    Z=   7    Mass=  14.010        Charge= 0.17977+309
Lmxo=1 Lmxkb= 3    BasisType=split      Semic=F
L=0  Nsemic=0  Cnfigmx=2
          i=1  nzeta=2  polorb=0  (2s)
            splnorm:   0.28000    
               vcte:    0.0000    
               rinn:    0.0000    
               qcoe:    0.0000    
               qyuk:    0.0000    
               qwid:   0.10000E-01
                rcs:    0.0000      0.0000    
            lambdas:    1.0000      1.0000    
L=1  Nsemic=0  Cnfigmx=2
          i=1  nzeta=2  polorb=1  (2p)
            splnorm:   0.28000    
               vcte:    0.0000    
               rinn:    0.0000    
               qcoe:    0.0000    
               qyuk:    0.0000    
               qwid:   0.10000E-01
                rcs:    0.0000      0.0000    
            lambdas:    1.0000      1.0000    
-------------------------------------------------------------------------------
L=0  Nkbl=1  erefs: 0.17977+309
L=1  Nkbl=1  erefs: 0.17977+309
L=2  Nkbl=1  erefs: 0.17977+309
L=3  Nkbl=1  erefs: 0.17977+309
===============================================================================
</basis_specs>

atom: Called for N                     (Z =   7)

read_vps: Pseudopotential generation method:
read_vps: ATM4.2.7  Troullier-Martins                       
Valence charge for ps generation:    5.00000

xc_check: Exchange-correlation functional:
xc_check: GGA Perdew, Burke & Ernzerhof 1996
V l=0 = -2*Zval/r beyond r=  1.2889
V l=1 = -2*Zval/r beyond r=  1.2889
V l=2 = -2*Zval/r beyond r=  3.4178
V l=3 = -2*Zval/r beyond r=  2.4084
All V_l potentials equal beyond r=  3.3753
This should be close to max(r_c) in ps generation
All pots = -2*Zval/r beyond r=  3.4178

VLOCAL1: 99.0% of the norm of Vloc inside      3.810 Ry
VLOCAL1: 99.9% of the norm of Vloc inside      8.683 Ry
atom: Maximum radius for 4*pi*r*r*local-pseudopot. charge    4.02088
atom: Maximum radius for r*vlocal+2*Zval:    3.54838
GHOST: No ghost state for L =  0
GHOST: No ghost state for L =  1
GHOST: No ghost state for L =  2
GHOST: No ghost state for L =  3

KBgen: Kleinman-Bylander projectors: 
   l= 0   rc=  3.417763   el= -1.365098   Ekb= -4.433130   kbcos= -0.707855
   l= 1   rc=  3.375302   el= -0.521201   Ekb=-13.264039   kbcos= -0.535594
   l= 2   rc=  3.872880   el=  0.001991   Ekb= -0.641094   kbcos= -0.062456
   l= 3   rc=  3.970931   el=  0.003093   Ekb= -0.474517   kbcos= -0.018236

KBgen: Total number of Kleinman-Bylander projectors:   16
atom: -------------------------------------------------------------------------

atom: SANKEY-TYPE ORBITALS:
atom: Selected multiple-zeta basis: split     

SPLIT: Orbitals with angular momentum L= 0

SPLIT: Basis orbitals for state 2s

SPLIT: PAO cut-off radius determined from an
SPLIT: energy shift=  0.002000 Ry

   izeta = 1
                 lambda =    1.000000
                     rc =    4.730425
                 energy =   -1.363399
                kinetic =    1.245246
    potential(screened) =   -2.608645
       potential(ionic) =   -8.121105

   izeta = 2
                 rmatch =    2.531849
              splitnorm =    0.280000
                 energy =   -0.959908
                kinetic =    2.409435
    potential(screened) =   -3.369343
       potential(ionic) =   -9.427975

SPLIT: Orbitals with angular momentum L= 1

SPLIT: Basis orbitals for state 2p

SPLIT: PAO cut-off radius determined from an
SPLIT: energy shift=  0.002000 Ry

   izeta = 1
                 lambda =    1.000000
                     rc =    5.924108
                 energy =   -0.519262
                kinetic =    3.672940
    potential(screened) =   -4.192202
       potential(ionic) =   -9.518354

   izeta = 2
                 rmatch =    2.531849
              splitnorm =    0.280000
                 energy =   -0.104258
                kinetic =    6.807538
    potential(screened) =   -6.911796
       potential(ionic) =  -13.149920

POLgen: Perturbative polarization orbital with L=  2

POLgen: Polarization orbital for state 2p

   izeta = 1
                     rc =    5.924108
                 energy =    1.427508
                kinetic =    2.872379
    potential(screened) =   -1.444871
       potential(ionic) =   -5.563644
atom: Total number of Sankey-type orbitals: 13

atm_pop: Valence configuration (for local Pseudopot. screening):
 2s( 2.00)                                                            
 2p( 3.00)                                                            
Vna: chval, zval:    5.00000   5.00000

Vna:  Cut-off radius for the neutral-atom potential:   5.924108

atom: _________________________________________________________________________

<basis_specs>
===============================================================================
Si                   Z=  14    Mass=  28.090        Charge= 0.17977+309
Lmxo=1 Lmxkb= 3    BasisType=split      Semic=F
L=0  Nsemic=0  Cnfigmx=3
          i=1  nzeta=2  polorb=0  (3s)
            splnorm:   0.28000    
               vcte:    0.0000    
               rinn:    0.0000    
               qcoe:    0.0000    
               qyuk:    0.0000    
               qwid:   0.10000E-01
                rcs:    0.0000      0.0000    
            lambdas:    1.0000      1.0000    
L=1  Nsemic=0  Cnfigmx=3
          i=1  nzeta=2  polorb=1  (3p)
            splnorm:   0.28000    
               vcte:    0.0000    
               rinn:    0.0000    
               qcoe:    0.0000    
               qyuk:    0.0000    
               qwid:   0.10000E-01
                rcs:    0.0000      0.0000    
            lambdas:    1.0000      1.0000    
-------------------------------------------------------------------------------
L=0  Nkbl=1  erefs: 0.17977+309
L=1  Nkbl=1  erefs: 0.17977+309
L=2  Nkbl=1  erefs: 0.17977+309
L=3  Nkbl=1  erefs: 0.17977+309
===============================================================================
</basis_specs>

atom: Called for Si                    (Z =  14)

read_vps: Pseudopotential generation method:
read_vps: ATM4.2.7  Troullier-Martins                       
Valence charge for ps generation:    4.00000

xc_check: Exchange-correlation functional:
xc_check: GGA Perdew, Burke & Ernzerhof 1996
V l=0 = -2*Zval/r beyond r=  2.7826
V l=1 = -2*Zval/r beyond r=  2.7826
V l=2 = -2*Zval/r beyond r=  2.9253
V l=3 = -2*Zval/r beyond r=  2.7826
All V_l potentials equal beyond r=  2.8530
This should be close to max(r_c) in ps generation
All pots = -2*Zval/r beyond r=  2.9253

VLOCAL1: 99.0% of the norm of Vloc inside      5.333 Ry
VLOCAL1: 99.9% of the norm of Vloc inside     12.154 Ry
atom: Maximum radius for 4*pi*r*r*local-pseudopot. charge    3.39869
atom: Maximum radius for r*vlocal+2*Zval:    2.96205
GHOST: No ghost state for L =  0
GHOST: No ghost state for L =  1
GHOST: No ghost state for L =  2
GHOST: No ghost state for L =  3

KBgen: Kleinman-Bylander projectors: 
   l= 0   rc=  3.075247   el= -0.794092   Ekb=  5.879390   kbcos=  0.167461
   l= 1   rc=  3.153101   el= -0.300068   Ekb=  2.642817   kbcos=  0.058301
   l= 2   rc=  3.273594   el=  0.001958   Ekb= -1.185135   kbcos= -0.104411
   l= 3   rc=  3.232927   el=  0.003046   Ekb= -0.497174   kbcos= -0.015889

KBgen: Total number of Kleinman-Bylander projectors:   16
atom: -------------------------------------------------------------------------

atom: SANKEY-TYPE ORBITALS:
atom: Selected multiple-zeta basis: split     

SPLIT: Orbitals with angular momentum L= 0

SPLIT: Basis orbitals for state 3s

SPLIT: PAO cut-off radius determined from an
SPLIT: energy shift=  0.002000 Ry

   izeta = 1
                 lambda =    1.000000
                     rc =    6.429618
                 energy =   -0.792283
                kinetic =    0.525293
    potential(screened) =   -1.317576
       potential(ionic) =   -3.744923

   izeta = 2
                 rmatch =    3.998416
              splitnorm =    0.280000
                 energy =   -0.583081
                kinetic =    1.069570
    potential(screened) =   -1.652651
       potential(ionic) =   -4.235185

SPLIT: Orbitals with angular momentum L= 1

SPLIT: Basis orbitals for state 3p

SPLIT: PAO cut-off radius determined from an
SPLIT: energy shift=  0.002000 Ry

   izeta = 1
                 lambda =    1.000000
                     rc =    8.464845
                 energy =   -0.298236
                kinetic =    0.785360
    potential(screened) =   -1.083596
       potential(ionic) =   -3.273779

   izeta = 2
                 rmatch =    4.587816
              splitnorm =    0.280000
                 energy =   -0.131871
                kinetic =    1.403687
    potential(screened) =   -1.535557
       potential(ionic) =   -4.015310

POLgen: Perturbative polarization orbital with L=  2

POLgen: Polarization orbital for state 3p

   izeta = 1
                     rc =    8.464845
                 energy =    0.321949
                kinetic =    1.055677
    potential(screened) =   -0.733728
       potential(ionic) =   -2.672950
atom: Total number of Sankey-type orbitals: 13

atm_pop: Valence configuration (for local Pseudopot. screening):
 3s( 2.00)                                                            
 3p( 2.00)                                                            
Vna: chval, zval:    4.00000   4.00000

Vna:  Cut-off radius for the neutral-atom potential:   8.464845

atom: _________________________________________________________________________

<basis_specs>
===============================================================================
O                    Z=   8    Mass=  16.000        Charge= 0.17977+309
Lmxo=1 Lmxkb= 3    BasisType=split      Semic=F
L=0  Nsemic=0  Cnfigmx=2
          i=1  nzeta=2  polorb=0  (2s)
            splnorm:   0.28000    
               vcte:    0.0000    
               rinn:    0.0000    
               qcoe:    0.0000    
               qyuk:    0.0000    
               qwid:   0.10000E-01
                rcs:    0.0000      0.0000    
            lambdas:    1.0000      1.0000    
L=1  Nsemic=0  Cnfigmx=2
          i=1  nzeta=2  polorb=1  (2p)
            splnorm:   0.28000    
               vcte:    0.0000    
               rinn:    0.0000    
               qcoe:    0.0000    
               qyuk:    0.0000    
               qwid:   0.10000E-01
                rcs:    0.0000      0.0000    
            lambdas:    1.0000      1.0000    
-------------------------------------------------------------------------------
L=0  Nkbl=1  erefs: 0.17977+309
L=1  Nkbl=1  erefs: 0.17977+309
L=2  Nkbl=1  erefs: 0.17977+309
L=3  Nkbl=1  erefs: 0.17977+309
===============================================================================
</basis_specs>

atom: Called for O                     (Z =   8)

read_vps: Pseudopotential generation method:
read_vps: ATM4.2.7  Troullier-Martins                       
Valence charge for ps generation:    6.00000

xc_check: Exchange-correlation functional:
xc_check: GGA Perdew, Burke & Ernzerhof 1996
V l=0 = -2*Zval/r beyond r=  1.1000
V l=1 = -2*Zval/r beyond r=  1.1000
V l=2 = -2*Zval/r beyond r=  2.2154
V l=3 = -2*Zval/r beyond r=  1.1000
All V_l potentials equal beyond r=  2.2154
This should be close to max(r_c) in ps generation
All pots = -2*Zval/r beyond r=  2.2154

VLOCAL1: 99.0% of the norm of Vloc inside      8.845 Ry
VLOCAL1: 99.9% of the norm of Vloc inside     20.157 Ry
atom: Maximum radius for 4*pi*r*r*local-pseudopot. charge    2.67231
atom: Maximum radius for r*vlocal+2*Zval:    2.32897
GHOST: No ghost state for L =  0
GHOST: No ghost state for L =  1
GHOST: No ghost state for L =  2
GHOST: No ghost state for L =  3

KBgen: Kleinman-Bylander projectors: 
   l= 0   rc=  2.243238   el= -1.759686   Ekb=**********   kbcos= -0.171774
   l= 1   rc=  2.328968   el= -0.663873   Ekb=-14.506792   kbcos= -0.519897
   l= 2   rc=  2.573941   el=  0.002031   Ekb= -1.137373   kbcos= -0.019581
   l= 3   rc=  2.606321   el=  0.003153   Ekb= -1.013546   kbcos= -0.003122

KBgen: Total number of Kleinman-Bylander projectors:   16
atom: -------------------------------------------------------------------------

atom: SANKEY-TYPE ORBITALS:
atom: Selected multiple-zeta basis: split     

SPLIT: Orbitals with angular momentum L= 0

SPLIT: Basis orbitals for state 2s

SPLIT: PAO cut-off radius determined from an
SPLIT: energy shift=  0.002000 Ry

   izeta = 1
                 lambda =    1.000000
                     rc =    4.243912
                 energy =   -1.758270
                kinetic =    3.286084
    potential(screened) =   -5.044353
       potential(ionic) =  -12.921184

   izeta = 2
                 rmatch =    2.187845
              splitnorm =    0.280000
                 energy =   -0.885018
                kinetic =    8.134434
    potential(screened) =   -9.019452
       potential(ionic) =  -17.710645

SPLIT: Orbitals with angular momentum L= 1

SPLIT: Basis orbitals for state 2p

SPLIT: PAO cut-off radius determined from an
SPLIT: energy shift=  0.002000 Ry

   izeta = 1
                 lambda =    1.000000
                     rc =    5.314825
                 energy =   -0.661986
                kinetic =    4.917472
    potential(screened) =   -5.579458
       potential(ionic) =  -13.236259

   izeta = 2
                 rmatch =    2.160663
              splitnorm =    0.280000
                 energy =   -0.068760
                kinetic =    9.183374
    potential(screened) =   -9.252135
       potential(ionic) =  -18.274251

POLgen: Perturbative polarization orbital with L=  2

POLgen: Polarization orbital for state 2p

   izeta = 1
                     rc =    5.314825
                 energy =    1.970580
                kinetic =    3.886128
    potential(screened) =   -1.915547
       potential(ionic) =   -7.749584
atom: Total number of Sankey-type orbitals: 13

atm_pop: Valence configuration (for local Pseudopot. screening):
 2s( 2.00)                                                            
 2p( 4.00)                                                            
Vna: chval, zval:    6.00000   6.00000

Vna:  Cut-off radius for the neutral-atom potential:   5.314825

atom: _________________________________________________________________________

prinput: Basis input ----------------------------------------------------------

PAO.BasisType split     

%block ChemicalSpeciesLabel
    1    1 H                       # Species index, atomic number, species label
    2    7 N                       # Species index, atomic number, species label
    3   14 Si                      # Species index, atomic number, species label
    4    8 O                       # Species index, atomic number, species label
%endblock ChemicalSpeciesLabel

%block PAO.Basis                 # Define Basis set
H                     1                    # Species label, number of l-shells
 n=1   0   2 P   1                   # n, l, Nzeta, Polarization, NzetaPol
   6.518      2.141   
   1.000      1.000   
N                     2                    # Species label, number of l-shells
 n=2   0   2                         # n, l, Nzeta 
   4.730      2.532   
   1.000      1.000   
 n=2   1   2 P   1                   # n, l, Nzeta, Polarization, NzetaPol
   5.924      2.532   
   1.000      1.000   
Si                    2                    # Species label, number of l-shells
 n=3   0   2                         # n, l, Nzeta 
   6.430      3.998   
   1.000      1.000   
 n=3   1   2 P   1                   # n, l, Nzeta, Polarization, NzetaPol
   8.465      4.588   
   1.000      1.000   
O                     2                    # Species label, number of l-shells
 n=2   0   2                         # n, l, Nzeta 
   4.244      2.188   
   1.000      1.000   
 n=2   1   2 P   1                   # n, l, Nzeta, Polarization, NzetaPol
   5.315      2.161   
   1.000      1.000   
%endblock PAO.Basis

prinput: ----------------------------------------------------------------------

Dumping basis to NetCDF file H.ion.nc
Dumping basis to NetCDF file N.ion.nc
Dumping basis to NetCDF file Si.ion.nc
Dumping basis to NetCDF file O.ion.nc
coor:   Atomic-coordinates input format  =     Cartesian coordinates
coor:                                          (in Angstroms)

siesta: Atomic coordinates (Bohr) and species
siesta:      4.31792  -9.81768   0.00000  1        1
siesta:      2.59711  -8.81503   0.00000  2        2
siesta:     -0.41253 -10.38326   0.00000  3        3
siesta:     -0.33040 -13.20006   0.00000  1        4
siesta:     -3.14019  -8.66630   0.00000  2        5
siesta:     -2.06030  -5.43214   0.00000  3        6
siesta:     -2.89201  -1.33728   0.00000  3        7
siesta:     -5.94160  -0.17360   0.00000  2        8
siesta:     -6.43014   1.81127   0.00000  1        9
siesta:     -7.46581  -1.44982   0.00000  1       10
siesta:     -0.33706   0.78140   0.00000  2       11
siesta:      2.82552  -0.08957   0.00000  3       12
siesta:      4.64124   2.09244   0.00000  1       13
siesta:      4.35491  -2.99662   0.00000  2       14
siesta:      2.09241  -5.37836   0.00000  3       15
siesta:      1.19277  13.43537   0.00000  1       16
siesta:     -0.33547  12.12729   0.00000  2       17
siesta:     -3.46598  13.47489   0.00000  3       18
siesta:     -3.28293  16.32975   0.00000  1       19
siesta:     -6.72794  10.93690   0.00000  3       20
siesta:    -11.17722  10.92180   0.00000  3       21
siesta:    -12.24003  12.30979  -2.27113  1       22
siesta:    -11.74378   8.12673  -0.16286  1       23
siesta:    -12.24025  11.98918   2.43425  1       24
siesta:     -4.97165   7.02408   0.00000  3       25
siesta:     -6.76588   4.58910   0.00000  4       26
siesta:     -1.58725   6.69577   0.00000  2       27
siesta:     -0.96177   4.74490   0.00000  1       28
siesta:      0.88538   8.95314   0.00000  3       29
siesta:      3.84457   8.44811   0.00000  4       30

siesta: Automatic unit cell vectors (Ang):
siesta:   18.005604    0.000000    0.000000
siesta:    0.000000   24.777729    0.000000
siesta:    0.000000    0.000000   10.327559

siesta: System type = molecule  

initatomlists: Number of atoms, orbitals, and projectors:     30   302   403

siesta: ******************** Simulation parameters ****************************
siesta:
siesta: The following are some of the parameters of the simulation.
siesta: A complete list of the parameters used, including default values,
siesta: can be found in file out.fdf
siesta:
redata: Spin configuration                          = spin-orbit
redata: Number of spin components                   = 8
redata: Time-Reversal Symmetry                      = F
redata: Spin spiral                                 = F
############################################################
This spin-orbit implementation uses a local approximation.
From 4.2 and onwards the full non-local approximation is implemented
You are strongly advised to use >=4.2 versions!
############################################################
redata: Long output                                 =   F
redata: Number of Atomic Species                    =        4
redata: Charge density info will appear in .RHO file
redata: Write Mulliken Pop.                         = NO
redata: Matel table size (NRTAB)                    =     1024
redata: Mesh Cutoff                                 =   340.0000 Ry
redata: Net charge of the system                    =     0.0000 |e|
redata: Min. number of SCF Iter                     =        1
redata: Max. number of SCF Iter                     =      300
redata: SCF convergence failure will abort job
redata: SCF mix quantity                            = Hamiltonian
redata: Mix DM or H after convergence               =   F
redata: Recompute H after scf cycle                 =   F
redata: Mix DM in first SCF step                    =   T
redata: Write Pulay info on disk                    =   F
redata: New DM Occupancy tolerance                  = 0.000000000001
redata: No kicks to SCF
redata: DM Mixing Weight for Kicks                  =     0.5000
redata: Require Harris convergence for SCF          =   F
redata: Harris energy tolerance for SCF             =     0.000100 eV
redata: Require DM convergence for SCF              =   T
redata: DM tolerance for SCF                        =     0.000008
redata: Require EDM convergence for SCF             =   F
redata: EDM tolerance for SCF                       =     0.001000 eV
redata: Require H convergence for SCF               =   T
redata: Hamiltonian tolerance for SCF               =     0.000001 eV
redata: Require (free) Energy convergence for SCF   =   F
redata: (free) Energy tolerance for SCF             =     0.000100 eV
redata: Using Saved Data (generic)                  =   F
redata: Use continuation files for DM               =   T
redata: Neglect nonoverlap interactions             =   F
redata: Method of Calculation                       = Diagonalization
redata: Electronic Temperature                      =   299.9978 K
redata: Fix the spin of the system                  =   F
redata: Dynamics option                             = Verlet MD run
redata: Initial MD time step                        =        1
redata:   Final MD time step                        =        1
redata: Length of MD time step                      =     0.5000 fs
redata: Initial Temperature of MD run               =     0.0000 K
redata: Perform a MD quench                         =   F
mix.SCF: Pulay mixing                            = Pulay
mix.SCF:    Variant                              = stable
mix.SCF:    History steps                        = 6
mix.SCF:    Linear mixing weight                 =     0.250000
mix.SCF:    Mixing weight                        =     0.250000
mix.SCF:    SVD condition                        = 0.1000E-07
mix.SCF:    Restart steps                        = 24
mix.SCF:    Restart save steps                   = 3
mix.SCF: Spin-component mixing                   all
redata: Save all siesta data in one NC              =   F
redata: ***********************************************************************

%block SCF.Mixers
  Pulay
%endblock SCF.Mixers

%block SCF.Mixer.Pulay
  # Mixing method
  method pulay
  variant stable

  # Mixing options
  weight 0.2500
  weight.linear 0.2500
  history 6
  restart 24
  restart.save 3
%endblock SCF.Mixer.Pulay

Size of DM history Fstack: 3
Total number of electrons:    98.000000
Total ionic charge:    98.000000

* ProcessorY, Blocksize:    4   9


* Orbital distribution balance (max,min):    18     9


Time-reversal symmetry not used.

siesta: k-grid: Number of k-points =     1
siesta: k-grid: Cutoff (effective) =     5.164 Ang
siesta: k-grid: Supercell and displacements
siesta: k-grid:    1   0   0      0.000
siesta: k-grid:    0   1   0      0.000
siesta: k-grid:    0   0   1      0.000

diag: Algorithm                                     = ELPA-1stage
diag: Parallel over k                               =   F
diag: Use parallel 2D distribution                  =   T
diag: Parallel block-size                           = 9
diag: Parallel distribution                         =     4 x     8
diag: Used triangular part                          = Lower
diag: Absolute tolerance                            =  0.100E-15
diag: Orthogonalization factor                      =  0.100E-05
diag: Memory factor                                 =  1.0000


ts: **************************************************************
ts: Save H and S matrices                           =    F
ts: Save DM and EDM matrices                        =    F
ts: Only save the overlap matrix S                  =    F
ts: **************************************************************

************************ Begin: TS CHECKS AND WARNINGS ************************
************************ End: TS CHECKS AND WARNINGS **************************


                     ====================================
                        Begin MD step =      1
                     ====================================

outcoor: Atomic coordinates (Ang):                          
    2.28494382   -5.19529124    0.00000000   1       1  H
    1.37433094   -4.66471070    0.00000000   2       2  N
   -0.21830245   -5.49458215    0.00000000   3       3  Si
   -0.17484108   -6.98516892    0.00000000   1       4  H
   -1.66171682   -4.58600741    0.00000000   2       5  N
   -1.09026419   -2.87456374    0.00000000   3       6  Si
   -1.53038332   -0.70765692    0.00000000   3       7  Si
   -3.14415959   -0.09186471    0.00000000   2       8  N
   -3.40268075    0.95848335    0.00000000   1       9  H
   -3.95073599   -0.76720972    0.00000000   1      10  H
   -0.17836637    0.41349951    0.00000000   2      11  N
    1.49520211   -0.04739960    0.00000000   3      12  Si
    2.45603905    1.10727302    0.00000000   1      13  H
    2.30451743   -1.58574382    0.00000000   2      14  N
    1.10725559   -2.84610319    0.00000000   3      15  Si
    0.63118511    7.10968802    0.00000000   1      16  H
   -0.17752557    6.41748214    0.00000000   2      17  N
   -1.83411541    7.13060224    0.00000000   3      18  Si
   -1.73725024    8.64132745    0.00000000   1      19  H
   -3.56027176    5.78755411    0.00000000   3      20  Si
   -5.91472601    5.77956718    0.00000000   3      21  Si
   -6.47714413    6.51405683   -1.20183078   1      22  H
   -6.21453976    4.30047605   -0.08618332   1      23  H
   -6.47725659    6.34439964    1.28814761   1      24  H
   -2.63088112    3.71698288    0.00000000   3      25  Si
   -3.58034948    2.42844675    0.00000000   4      26  O
   -0.83993625    3.54324741    0.00000000   2      27  N
   -0.50894489    2.51089043    0.00000000   1      28  H
    0.46852197    4.73779383    0.00000000   3      29  Si
    2.03445890    4.47054698    0.00000000   4      30  O

outcell: Unit cell vectors (Ang):
       18.005604    0.000000    0.000000
        0.000000   24.777729    0.000000
        0.000000    0.000000   10.327559

outcell: Cell vector modules (Ang)   :   18.005604   24.777729   10.327559
outcell: Cell angles (23,13,12) (deg):     90.0000     90.0000     90.0000
outcell: Cell volume (Ang**3)        :   4607.5163
<dSpData1D:S at geom step 1
  <sparsity:sparsity for geom step 1
    nrows_g=302 nrows=18 sparsity=.0377 nnzs=3435, refcount: 8>
  <dData1D:(new from dSpData1D) n=3435, refcount: 1>
refcount: 1>
new_DM -- step:     1
Initializing Density Matrix...

Attempting to read DM from file... Failed...
DM filled with atomic data:
<dSpData2D:DM initialized from atoms
  <sparsity:sparsity for geom step 1
    nrows_g=302 nrows=18 sparsity=.0377 nnzs=3435, refcount: 9>
  <dData2D:DM n=3435 m=8, refcount: 1>
refcount: 1>
     spin moment: S , {S} =   56.00000   0.00000   0.00000  56.00000
No. of atoms with KB's overlaping orbs in proc 0. Max # of overlaps:      25     195

Initializing spin-orbit part of the Hamiltonian
  Adding spin-orbit effects for H 
  Adding spin-orbit effects for N 
  Adding spin-orbit effects for Si
  Adding spin-orbit effects for O 


New grid distribution:   1
           1       1:  100    1:   36    1:    8
           2       1:  100    1:   36    9:   16
           3       1:  100    1:   36   17:   24
           4       1:  100    1:   36   25:   32
           5       1:  100    1:   36   33:   39
           6       1:  100    1:   36   40:   46
           7       1:  100    1:   36   47:   53
           8       1:  100    1:   36   54:   60
           9       1:  100   37:   72    1:    8
          10       1:  100   37:   72    9:   16
          11       1:  100   37:   72   17:   24
          12       1:  100   37:   72   25:   32
          13       1:  100   37:   72   33:   39
          14       1:  100   37:   72   40:   46
          15       1:  100   37:   72   47:   53
          16       1:  100   37:   72   54:   60
          17       1:  100   73:  108    1:    8
          18       1:  100   73:  108    9:   16
          19       1:  100   73:  108   17:   24
          20       1:  100   73:  108   25:   32
          21       1:  100   73:  108   33:   39
          22       1:  100   73:  108   40:   46
          23       1:  100   73:  108   47:   53
          24       1:  100   73:  108   54:   60
          25       1:  100  109:  144    1:    8
          26       1:  100  109:  144    9:   16
          27       1:  100  109:  144   17:   24
          28       1:  100  109:  144   25:   32
          29       1:  100  109:  144   33:   39
          30       1:  100  109:  144   40:   46
          31       1:  100  109:  144   47:   53
          32       1:  100  109:  144   54:   60

InitMesh: MESH =   200 x   288 x   120 =     6912000
InitMesh: (bp) =   100 x   144 x    60 =      864000
InitMesh: Mesh cutoff (required, used) =   340.000   340.994 Ry
ExtMesh (bp) on 0 =   200 x   144 x   116 =     3340800
New grid distribution:   2
           1      13:   81    1:   21    1:   18
           2       1:   12    1:   21    1:   18
           3      82:   91   19:   38   22:   60
           4      13:   81    1:   21   19:   60
           5       1:   61   22:   38   22:   60
           6       1:   10   39:  123    1:   20
           7       1:   12    1:   21   19:   60
           8      92:  100    1:   18   18:   60
           9      11:   76   39:  123    1:   20
          10       1:   60   22:   38    1:   21
          11      82:   91    1:   18   18:   60
          12      82:   91   19:   38    1:   21
          13       1:   10   39:  123   21:   60
          14      92:  100   39:  122    1:   20
          15      61:   81   22:   38    1:   21
          16      92:  100   19:   38    1:   21
          17      77:   91   39:  122    1:   20
          18      93:  100  123:  144   21:   60
          19      93:  100  123:  144    1:   20
          20      11:   76   39:  123   21:   60
          21      77:   91   39:  122   21:   60
          22      62:   81   22:   38   22:   60
          23      92:  100   19:   38   22:   60
          24      82:   91    1:   18    1:   17
          25      10:   76  124:  144    1:   20
          26      77:   92  123:  144    1:   20
          27       1:    9  124:  144    1:   20
          28      10:   76  124:  144   21:   60
          29      92:  100   39:  122   21:   60
          30      77:   92  123:  144   21:   60
          31       1:    9  124:  144   21:   60
          32      92:  100    1:   18    1:   17
New grid distribution:   3
           1      23:   64   27:   48    1:   25
           2       1:   17    1:   26   26:   60
           3      65:   83    1:   25    1:   25
           4      18:   64    1:   26   26:   60
           5      17:   70  118:  144    1:   25
           6      90:  100   49:  113    1:   24
           7      65:   83    1:   25   26:   60
           8       1:   17    1:   26    1:   25
           9      13:   70   49:  117    1:   24
          10      84:  100    1:   25   26:   60
          11       1:   22   27:   48    1:   25
          12      90:  100   49:  113   25:   60
          13      23:   64   27:   48   26:   60
          14       1:   22   27:   48   26:   60
          15      88:  100  114:  144   26:   60
          16      65:   82   26:   48    1:   26
          17      71:   89   49:  113    1:   24
          18      65:   82   26:   48   27:   60
          19      83:  100   26:   48    1:   26
          20      13:   70   49:  117   25:   60
          21      71:   89   49:  113   25:   60
          22       1:   12   49:  117   25:   60
          23      83:  100   26:   48   27:   60
          24      84:  100    1:   25    1:   25
          25       1:   12   49:  117    1:   24
          26      71:   87  114:  144    1:   25
          27       1:   16  118:  144    1:   25
          28      16:   70  118:  144   26:   60
          29      18:   64    1:   26    1:   25
          30      71:   87  114:  144   26:   60
          31       1:   15  118:  144   26:   60
          32      88:  100  114:  144    1:   25
Setting up quadratic distribution...
ExtMesh (bp) on 0 =   169 x   129 x   126 =     2746926
PhiOnMesh: Number of (b)points on node 0 =                26082
PhiOnMesh: nlist on node 0 =               408647

stepf: Fermi-Dirac step function

siesta: Program's energy decomposition (eV):
siesta: Ebs     =      -635.005962
siesta: Eions   =      3553.971015
siesta: Ena     =       374.866537
siesta: Ekin    =      3168.225602
siesta: Enl     =     -2982.513321
siesta: Eso     =        -0.003925
siesta: Edftu   =         0.000000
siesta: DEna    =       130.523177
siesta: DUscf   =        73.272739
siesta: DUext   =         0.000000
siesta: Exc     =     -1168.525151
siesta: eta*DQ  =         0.000000
siesta: Emadel  =         0.000000
siesta: Emeta   =         0.000000
siesta: Emolmec =         0.000000
siesta: Ekinion =         0.000000
siesta: Eharris =     -3888.975626
siesta: Etot    =     -3958.125357
siesta: FreeEng =     -3958.128890

        iscf     Eharris(eV)        E_KS(eV)     FreeEng(eV)     dDmax    Ef(eV) dHmax(eV)
   scf:    1    -3888.975626    -3958.125357    -3958.128890  0.967396 -4.942396 19.688003
     spin moment: S , {S} =    2.02559  -0.00000  -0.00000   2.02559
timer: Routine,Calls,Time,% = IterSCF        1       3.974   9.26
   scf:    2    -4000.943817    -3991.249335    -3991.249338  0.458675 -4.284077  9.922523
     spin moment: S , {S} =    2.00010   0.00000  -0.00000   2.00010
   scf:    3    -3994.202774    -3996.288856    -3996.303260  0.422885 -4.174107  5.714076
     spin moment: S , {S} =    0.15490  -0.00000   0.00000   0.15490
   scf:    4    -3999.561943    -3998.098667    -3998.098667  0.030236 -3.896368  4.087723
     spin moment: S , {S} =    0.00009  -0.00000   0.00000   0.00009
   scf:    5    -3999.739813    -3998.949819    -3998.949821  0.033778 -3.809237  2.075213
     spin moment: S , {S} =    0.00005  -0.00000   0.00000   0.00005
   scf:    6    -3999.606250    -3999.275605    -3999.275620  0.028603 -3.846376  0.868054
     spin moment: S , {S} =    0.00007  -0.00000   0.00000   0.00007
   scf:    7    -3999.484840    -3999.375221    -3999.375311  0.016987 -3.896520  0.327305
     spin moment: S , {S} =    0.00003  -0.00000   0.00000  -0.00003
   scf:    8    -3999.437878    -3999.405279    -3999.405450  0.008787 -3.920968  0.161453
     spin moment: S , {S} =    0.00037  -0.00000   0.00000  -0.00037
   scf:    9    -3999.439635    -3999.421320    -3999.421489  0.007647 -3.927577  0.082331
     spin moment: S , {S} =    0.00033  -0.00000   0.00000  -0.00033
   scf:   10    -3999.437026    -3999.428526    -3999.428678  0.006490 -3.927897  0.058781
     spin moment: S , {S} =    0.00020  -0.00000  -0.00000  -0.00020
   scf:   11    -3999.438552    -3999.432693    -3999.432833  0.007762 -3.927551  0.031468
     spin moment: S , {S} =    0.00006  -0.00000  -0.00000  -0.00006
   scf:   12    -3999.434046    -3999.433283    -3999.433421  0.003216 -3.926624  0.020633
     spin moment: S , {S} =    0.00002  -0.00000  -0.00000  -0.00002
   scf:   13    -3999.433729    -3999.433482    -3999.433619  0.002047 -3.925632  0.014105
     spin moment: S , {S} =    0.00000  -0.00000  -0.00000  -0.00000
   scf:   14    -3999.433638    -3999.433552    -3999.433689  0.001201 -3.925322  0.010379
     spin moment: S , {S} =    0.00000  -0.00000  -0.00000   0.00000
   scf:   15    -3999.433644    -3999.433592    -3999.433729  0.001128 -3.925187  0.006098
     spin moment: S , {S} =    0.00000  -0.00000  -0.00000   0.00000
   scf:   16    -3999.433629    -3999.433607    -3999.433744  0.000849 -3.925281  0.002620
     spin moment: S , {S} =    0.00000  -0.00000  -0.00000  -0.00000
   scf:   17    -3999.433613    -3999.433609    -3999.433747  0.000302 -3.925358  0.001566
     spin moment: S , {S} =    0.00000  -0.00000  -0.00000  -0.00000
   scf:   18    -3999.433611    -3999.433610    -3999.433747  0.000124 -3.925387  0.000880
     spin moment: S , {S} =    0.00000  -0.00000  -0.00000  -0.00000
   scf:   19    -3999.433611    -3999.433610    -3999.433748  0.000072 -3.925404  0.000601
     spin moment: S , {S} =    0.00000  -0.00000  -0.00000  -0.00000
   scf:   20    -3999.433611    -3999.433611    -3999.433748  0.000079 -3.925416  0.000339
     spin moment: S , {S} =    0.00000  -0.00000  -0.00000  -0.00000
   scf:   21    -3999.433611    -3999.433611    -3999.433748  0.000037 -3.925417  0.000145
     spin moment: S , {S} =    0.00000  -0.00000  -0.00000  -0.00000
   scf:   22    -3999.433611    -3999.433611    -3999.433748  0.000013 -3.925410  0.000108
     spin moment: S , {S} =    0.00000  -0.00000  -0.00000  -0.00000
   scf:   23    -3999.433611    -3999.433611    -3999.433748  0.000010 -3.925407  0.000064
     spin moment: S , {S} =    0.00000  -0.00000  -0.00000  -0.00000
   scf:   24    -3999.433611    -3999.433611    -3999.433748  0.000007 -3.925406  0.000048
     spin moment: S , {S} =    0.00000  -0.00000  -0.00000  -0.00000
mix: Pulay -- resetting history
   scf:   25    -3999.433611    -3999.433611    -3999.433748  0.000007 -3.925406  0.000024
     spin moment: S , {S} =    0.00000  -0.00000   0.00000  -0.00000
   scf:   26    -3999.433611    -3999.433611    -3999.433748  0.000003 -3.925407  0.000015
     spin moment: S , {S} =    0.00000  -0.00000   0.00000  -0.00000
   scf:   27    -3999.433611    -3999.433611    -3999.433748  0.000003 -3.925407  0.000006
     spin moment: S , {S} =    0.00000  -0.00000  -0.00000  -0.00000
   scf:   28    -3999.433611    -3999.433611    -3999.433748  0.000001 -3.925407  0.000003
     spin moment: S , {S} =    0.00000  -0.00000   0.00000  -0.00000
   scf:   29    -3999.433611    -3999.433611    -3999.433748  0.000000 -3.925407  0.000002
     spin moment: S , {S} =    0.00000  -0.00000  -0.00000  -0.00000
   scf:   30    -3999.433611    -3999.433611    -3999.433748  0.000000 -3.925407  0.000001
     spin moment: S , {S} =    0.00000   0.00000   0.00000   0.00000
   scf:   31    -3999.433611    -3999.433611    -3999.433748  0.000000 -3.925407  0.000001
     spin moment: S , {S} =    0.00000  -0.00000   0.00000   0.00000

SCF Convergence by DM+H criterion
max |DM_out - DM_in|         :     0.0000000968
max |H_out - H_in|      (eV) :     0.0000006775
SCF cycle converged after 31 iterations

Using DM_out to compute the final energy and forces
No. of atoms with KB's overlaping orbs in proc 0. Max # of overlaps:      25     195

siesta: E_KS(eV) =            -3999.4336

siesta: E_KS - E_eggbox =     -3999.4336
     spin moment: S , {S} =    0.00000  -0.00000   0.00000   0.00000

siesta: Atomic forces (eV/Ang):
     1    0.138017    0.005662   -0.000001
     2    0.008942   -0.003508   -0.000004
     3    0.005309    0.001055   -0.000001
     4    0.010638    0.020861    0.000001
     5   -0.015152   -0.014867   -0.000007
     6    0.031036   -0.004591    0.000000
     7   -0.174491   -0.036489   -0.000023
     8    0.191741   -0.689594    0.000092
     9   -0.042937    0.101985   -0.000096
    10   -0.122045   -0.201878   -0.000020
    11    0.037657    0.036094    0.000009
    12    0.051833   -0.012834    0.000001
    13   -0.213280    0.044618    0.000002
    14   -0.011812    0.021470   -0.000004
    15   -0.015301   -0.021497    0.000018
    16   -0.097696    0.016716   -0.000936
    17    0.004163    0.024692   -0.000822
    18    0.033982   -0.002020    0.005441
    19    0.058649   -0.147608   -0.001532
    20   -0.015579   -0.019838   -0.001049
    21    0.014356    0.008234   -0.005384
    22    0.052859    0.074145    0.096915
    23    0.186568    0.126525   -0.009876
    24    0.044288    0.133113   -0.074946
    25    0.125819    0.125999    0.000907
    26   -3.796704   -2.002101    0.000351
    27   -0.114713    0.162410   -0.000533
    28   -0.020468   -0.231073   -0.000096
    29   -0.036696   -0.017738   -0.000154
    30    1.815800    0.898931    0.000211
----------------------------------------
   Tot   -1.865217   -1.603125    0.008464
----------------------------------------
   Max    3.796704
   Res    0.510713    sqrt( Sum f_i^2 / 3N )
----------------------------------------
   Max    3.796704    constrained

Stress tensor Voigt[x,y,z,yz,xz,xy] (kbar):        0.58       -0.91       -0.07       -0.02        0.00        0.47
(Free)E + p*V (eV/cell)    -3999.0501
Target enthalpy (eV/cell)    -3999.4337

siesta: Stress tensor (static) (eV/Ang**3):
         0.000361    0.000292    0.000001
         0.000292   -0.000569   -0.000012
         0.000001   -0.000012   -0.000042

siesta: Pressure (static):          0.13340368  kBar

siesta: Stress tensor (total) (eV/Ang**3):
         0.000361    0.000292    0.000001
         0.000292   -0.000569   -0.000012
         0.000001   -0.000012   -0.000042

siesta: Pressure (total):          0.13340368  kBar

siesta: Temp_ion =       0.000 K

siesta: Eigenvalues (eV):
ik =     1
  -23.2212  -23.2212  -22.9191  -22.9191  -21.8364  -21.8364  -21.2384  -21.2384  -21.0195  -21.0195
  -20.1596  -20.1596  -19.4700  -19.4700  -19.2448  -19.2448  -18.7390  -18.7390  -15.2238  -15.2238
  -14.2641  -14.2641  -13.6322  -13.6322  -13.5628  -13.5628  -13.3196  -13.3196  -12.8779  -12.8779
  -12.4049  -12.4049  -12.0279  -12.0279  -11.9297  -11.9297  -11.5472  -11.5472  -11.4544  -11.4544
  -10.8644  -10.8644  -10.7350  -10.7350  -10.1899  -10.1899   -9.6799   -9.6799   -9.4595   -9.4595
   -9.3448   -9.3448   -9.1036   -9.1036   -9.0500   -9.0500   -8.8348   -8.8348   -8.7401   -8.7401
   -8.5346   -8.5346   -8.3337   -8.3337   -8.2573   -8.2573   -8.2175   -8.2175   -8.1319   -8.1319
   -7.8100   -7.8100   -7.5585   -7.5585   -7.3944   -7.3944   -7.3456   -7.3456   -7.0062   -7.0062
   -6.9628   -6.9628   -6.7603   -6.7603   -6.6704   -6.6704   -6.3800   -6.3800   -6.2914   -6.2914
   -5.9320   -5.9320   -5.7219   -5.7219   -5.6005   -5.6005   -4.1560   -4.1560   -3.6948   -3.6948
   -2.8678   -2.8678   -2.4221   -2.4221   -2.3424   -2.3424   -2.1631   -2.1631   -2.1580   -2.1580
   -1.9568   -1.9568   -1.7739   -1.7739   -1.7727   -1.7727   -1.5351   -1.5351   -1.4054   -1.4054
   -1.2460   -1.2460   -0.4333   -0.4333   -0.3502   -0.3502   -0.2731   -0.2731   -0.2143   -0.2143
   -0.1433   -0.1433   -0.1190   -0.1190    0.0875    0.0875    0.5322    0.5322    0.6005    0.6005
    0.6352    0.6352    0.8702    0.8702    1.2751    1.2751    1.3067    1.3067    1.4029    1.4029
    1.4796    1.4796    1.6720    1.6720    1.9586    1.9586    2.1947    2.1947    2.2847    2.2847
    2.4239    2.4239    2.5882    2.5882    2.8468    2.8468    2.9683    2.9683    3.1087    3.1087
    3.1223    3.1223    3.1630    3.1630    3.2067    3.2067    3.4042    3.4042    3.5107    3.5107
    3.9615    3.9615    4.0705    4.0705    4.1859    4.1859    4.3655    4.3655    4.5627    4.5627
    4.5700    4.5700    4.7904    4.7904    4.8866    4.8866    4.9826    4.9826    5.0967    5.0967
    5.2945    5.2945    5.5271    5.5271    5.6098    5.6098    5.7839    5.7839    5.8200    5.8200
    6.1114    6.1114    6.1920    6.1920    6.2752    6.2752    6.4784    6.4784    6.6241    6.6241
    6.8009    6.8009    6.9080    6.9080    7.0013    7.0013    7.2973    7.2973    7.3153    7.3153
    7.5524    7.5524    7.7067    7.7067    7.7291    7.7291    7.8751    7.8751    8.0094    8.0094
    8.3975    8.3975    8.4729    8.4729    8.5087    8.5087    8.6888    8.6888    8.8643    8.8643
    9.1280    9.1280    9.2026    9.2026    9.2796    9.2796    9.4244    9.4244    9.6135    9.6135
    9.7692    9.7692    9.9695    9.9695    9.9962    9.9962   10.0087   10.0087   10.1927   10.1927
   10.6772   10.6772   10.9878   10.9878   11.1399   11.1399   11.2687   11.2687   11.3748   11.3748
   11.4364   11.4364   11.5165   11.5165   11.8283   11.8283   11.8730   11.8730   11.9578   11.9578
   12.3388   12.3388   12.4321   12.4321   12.5170   12.5170   12.8804   12.8804   13.0042   13.0042
   13.1597   13.1597   13.2751   13.2751   13.5526   13.5526   13.7253   13.7253   14.0926   14.0926
   14.1693   14.1693   14.4826   14.4826   14.6719   14.6719   14.9809   14.9809   15.1809   15.1809
   15.2621   15.2621   15.7846   15.7846   15.8515   15.8515   16.0609   16.0609   16.4214   16.4214
   16.9432   16.9432   17.1335   17.1335   17.1631   17.1631   17.3679   17.3679   17.7831   17.7831
   18.0958   18.0958   18.7075   18.7075   18.7624   18.7624   18.8022   18.8022   18.8793   18.8793
   18.9930   18.9930   19.4216   19.4216   19.8587   19.8587   20.1866   20.1866   20.6446   20.6446
   20.9102   20.9102   21.5434   21.5434   21.8459   21.8459   22.3446   22.3446   22.4796   22.4796
   22.7673   22.7673   23.1169   23.1169   23.2853   23.2853   23.5852   23.5852   24.6341   24.6341
   24.8410   24.8410   25.0288   25.0288   25.4252   25.4252   25.7925   25.7925   26.3185   26.3185
   26.6623   26.6623   26.7979   26.7979   27.0697   27.0697   28.0091   28.0091   28.7166   28.7166
   28.9572   28.9572   29.7336   29.7336   30.6694   30.6694   30.8569   30.8569   30.8867   30.8867
   31.2657   31.2657   31.3550   31.3550   31.4092   31.4092   31.5447   31.5447   32.2170   32.2170
   32.9804   32.9804   33.3251   33.3251   33.4735   33.4735   34.1787   34.1787   34.3355   34.3355
   34.8037   34.8037   35.2870   35.2870   36.1221   36.1221   36.5515   36.5515   37.0007   37.0007
   37.1985   37.1985   37.5641   37.5641   37.7229   37.7229   38.5039   38.5039   38.7276   38.7276
   39.2294   39.2294   39.5579   39.5579   40.3115   40.3115   40.6042   40.6042   40.9217   40.9217
   41.4602   41.4602   41.7250   41.7250   42.0366   42.0366   43.1460   43.1460   43.2033   43.2033
   43.7005   43.7005   43.9388   43.9388   43.9773   43.9773   44.7704   44.7704   44.8476   44.8476
   45.3365   45.3365   45.4324   45.4324   46.0835   46.0835   46.5570   46.5570   47.0690   47.0690
   47.2606   47.2606   47.7991   47.7991   48.1343   48.1343   48.6588   48.6588   49.2023   49.2023
   49.4295   49.4295   49.6271   49.6271   50.1208   50.1208   50.1727   50.1727   50.5319   50.5319
   50.8803   50.8803   51.5130   51.5130   52.0448   52.0448   53.0646   53.0646   53.0899   53.0899
   54.2209   54.2209   54.3287   54.3287   55.2338   55.2338   55.4479   55.4479   56.2467   56.2467
   56.8409   56.8409   57.0391   57.0391   57.6949   57.6949   58.9869   58.9869   59.2315   59.2315
   59.3221   59.3221   60.9280   60.9280   61.5036   61.5036   62.0526   62.0526   62.5620   62.5620
   63.0999   63.0999   63.7591   63.7591   64.2558   64.2558   65.3149   65.3149   66.3819   66.3819
   67.3202   67.3202   68.1355   68.1355   68.8937   68.8937   69.9540   69.9540   72.0924   72.0924
   73.6013   73.6013   73.8042   73.8042   84.6976   84.6976   88.8329   88.8329   92.6838   92.6838
   93.6342   93.6342   96.1249   96.1249   96.9774   96.9774  100.4799  100.4799  100.7073  100.7073
  102.8929  102.8929  105.9516  105.9516  119.1478  119.1478  122.5514  122.5514  124.5879  124.5879
  139.0552  139.0552  148.6465  148.6465
siesta: Fermi energy =      -3.925407 eV

siesta: Program's energy decomposition (eV):
siesta: Ebs     =     -1118.318588
siesta: Eions   =      3553.971015
siesta: Ena     =       374.866537
siesta: Ekin    =      2748.484946
siesta: Enl     =     -2527.288625
siesta: Eso     =        -0.004713
siesta: Edftu   =         0.000000
siesta: DEna    =        37.512659
siesta: DUscf   =        13.621198
siesta: DUext   =         0.000000
siesta: Exc     =     -1092.654597
siesta: eta*DQ  =         0.000000
siesta: Emadel  =         0.000000
siesta: Emeta   =         0.000000
siesta: Emolmec =         0.000000
siesta: Ekinion =         0.000000
siesta: Eharris =     -3999.433611
siesta: Etot    =     -3999.433611
siesta: FreeEng =     -3999.433748

siesta: Final energy (eV):
siesta:  Band Struct. =   -1118.318588
siesta:       Kinetic =    2748.484946
siesta:       Hartree =    8290.109030
siesta:       Edftu   =       0.000000
siesta:       Eso     =      -0.004713
siesta:    Ext. field =       0.000000
siesta:   Exch.-corr. =   -1092.654597
siesta:  Ion-electron =  -19028.837204
siesta:       Ion-ion =    5083.468928
siesta:       Ekinion =       0.000000
siesta:         Total =   -3999.433611
siesta:         Fermi =      -3.925407

siesta: Atomic forces (eV/Ang):
siesta:      1    0.138017    0.005662   -0.000001
siesta:      2    0.008942   -0.003508   -0.000004
siesta:      3    0.005309    0.001055   -0.000001
siesta:      4    0.010638    0.020861    0.000001
siesta:      5   -0.015152   -0.014867   -0.000007
siesta:      6    0.031036   -0.004591    0.000000
siesta:      7   -0.174491   -0.036489   -0.000023
siesta:      8    0.191741   -0.689594    0.000092
siesta:      9   -0.042937    0.101985   -0.000096
siesta:     10   -0.122045   -0.201878   -0.000020
siesta:     11    0.037657    0.036094    0.000009
siesta:     12    0.051833   -0.012834    0.000001
siesta:     13   -0.213280    0.044618    0.000002
siesta:     14   -0.011812    0.021470   -0.000004
siesta:     15   -0.015301   -0.021497    0.000018
siesta:     16   -0.097696    0.016716   -0.000936
siesta:     17    0.004163    0.024692   -0.000822
siesta:     18    0.033982   -0.002020    0.005441
siesta:     19    0.058649   -0.147608   -0.001532
siesta:     20   -0.015579   -0.019838   -0.001049
siesta:     21    0.014356    0.008234   -0.005384
siesta:     22    0.052859    0.074145    0.096915
siesta:     23    0.186568    0.126525   -0.009876
siesta:     24    0.044288    0.133113   -0.074946
siesta:     25    0.125819    0.125999    0.000907
siesta:     26   -3.796704   -2.002101    0.000351
siesta:     27   -0.114713    0.162410   -0.000533
siesta:     28   -0.020468   -0.231073   -0.000096
siesta:     29   -0.036696   -0.017738   -0.000154
siesta:     30    1.815800    0.898931    0.000211
siesta: ----------------------------------------
siesta:    Tot   -1.865217   -1.603125    0.008464

siesta: Stress tensor (static) (eV/Ang**3):
siesta:     0.000361    0.000292    0.000001
siesta:     0.000292   -0.000569   -0.000012
siesta:     0.000001   -0.000012   -0.000042

siesta: Cell volume =       4607.516289 Ang**3

siesta: Pressure (static):
siesta:                Solid            Molecule  Units
siesta:           0.00000091         -0.00001129  Ry/Bohr**3
siesta:           0.00008326         -0.00103684  eV/Ang**3
siesta:           0.13340368         -1.66121211  kBar
(Free)E+ p_basis*V_orbitals  =       -3978.305663
(Free)Eharris+ p_basis*V_orbitals  =       -3978.305663
     spin moment: S , {S} =    0.00000  -0.00000   0.00000   0.00000

siesta: Electric dipole (a.u.)  =   -1.322512    2.256264   -0.001704
siesta: Electric dipole (Debye) =   -3.361492    5.734855   -0.004332

cite: Please see "AT.bib" for an exhaustive BiBTeX file.
cite: Please clearly indicate Siesta version in published work: v4.1.5-1-g384057250
cite: This calculation has made use of the following articles
cite: which are encouraged to be cited in a published work.
        Primary SIESTA paper
          DOI: www.doi.org/10.1088/0953-8984/14/11/302
        Spin-orbit coupling (on-site approximation)
          DOI: www.doi.org/10.1088/0953-8984/19/19/489001


WARNING: alloc-realloc-dealloc name mismatch
         Name: atomlist isa
         Size:              -120. Bytes
         Node:     0
         Subsequent mismatches will not be reported
>> End of run:  16-OCT-2023  20:15:27
Job completed
