Siesta Version  : v4.1.5-1-g384057250
Architecture    : gcc
Compiler version: GNU Fortran (Ubuntu 11.4.0-1ubuntu1~22.04) 11.4.0
Compiler flags  : mpifort -O2 -fPIC -ftree-vectorize -fallow-argument-mismatch
PP flags        : -DFC_HAVE_ABORT -DMPI -DSIESTA__FLOOK -DSIESTA__METIS -DSIESTA__MUMPS -DCDF -DNCDF -DNCDF_4 -DNCDF_PARALLEL -DSIESTA__MRRR -DSIESTA__ELPA
Libraries       : libncdf.a libfdict.a  -lflookall -ldl -lnetcdff -lnetcdf -lhdf5_hl -lhdf5 -lhdf5_fortran -lz -lscalapack-openmpi -lopenblas -lmetis -lzmumps -lcmumps -ldmumps -lmumps_common -lpord -lsmumps -lesmumps -lscotch -lscotcherr -fopenmp -lelpa
PARALLEL version
NetCDF support
NetCDF-4 support
NetCDF-4 MPI-IO support
METIS ordering support
Lua support

* Running on 8 nodes in parallel
>> Start of run:   1-FEB-2024  22:28:40

                           ***********************       
                           *  WELCOME TO SIESTA  *       
                           ***********************       

reinit: Reading from standard input
reinit: Dumped input in INPUT_TMP.90844
************************** Dump of input data file ****************************
# mpirun -np 4 siesta-4.1.5 < GC.fdf > GC.out &
SystemLabel      GC
NumberOfAtoms    29
NumberOfSpecies  4
%block ChemicalSpeciesLabel
    1    1  H
    2    7  N
    3   14  Si
    4    8  O
%endblock ChemicalSpeciesLabel
############################################
# This overrides Defaults.fdf configuration
############################################
MD.TypeOfRun                Verlet # CG, Verlet
MD.Steps                    0
MaxSCFIterations            200
SCF.MustConverge            F
AtomicCoordinatesFormat NotScaledCartesianAng
%block AtomicCoordinatesAndAtomicSpecies
    -0.2515305873418672 5.51134457906336 0.0  1  1  H
    -0.9580173173418671 4.72130839906336 0.0  2  2  N
    -2.688304227341867 5.1626723090633595 0.0  3  3  Si
    -2.844083907341867 6.65266456906336 0.0  1  4  H
    -4.2116258473418675 3.6037647890633595 0.0  3  5  Si
    -5.694813477341867 3.8465951490633596 0.0  1  6  H
    -3.013234987341867 1.6904886290633598 0.0  3  7  Si
    -3.7792604473418674 0.1577718890633597 0.0  2  8  N
    -3.189013897341867 -0.7994411409366402 0.0  1  9  H
    -4.830882767341867 0.0773116590633598 0.0  1  10  H
    -1.297034927341867 1.7456629390633598 0.0  2  11  N
    -0.22201230734186717 3.07600177906336 0.0  3  12  Si
    1.3866610126581327 3.05719151906336 0.0  4  13  O
    5.6164483 -7.44953905 0.0  1  14  H
    4.58206954 -7.2320376 0.0  2  15  N
    3.29666389 -8.492636 0.0  3  16  Si
    3.80117524 -9.90371886 -0.0  1  17  H
    1.65934232 -8.01362137 0.0  2  18  N
    1.68097912 -6.20463398 -0.0  3  19  Si
    0.54543521 -4.28636135 0.0  3  20  Si
    -1.03431493 -3.94450034 0.0  4  21  O
    1.73226934 -2.87719605 0.0  2  22  N
    1.20957366 -1.92961761 -0.0  1  23  H
    3.50853448 -2.77677601 0.0  3  24  Si
    4.13684451 -1.17938608 0.0  2  25  N
    3.54296161 -0.26248101 0.0  1  26  H
    5.18364407 -1.05231197 -0.0  1  27  H
    4.63288658 -4.07521596 -0.0  2  28  N
    3.79410501 -5.58634043 0.0  3  29  Si
%endblock AtomicCoordinatesAndAtomicSpecies
#############
# Unit Cell
#############
LatticeConstant 1.0 Ang
%block LatticeVectors
    30.00000    0.000000    0.000000
    0.000000    45.00000    0.000000
    0.000000    0.000000    10.00000
%endblock LatticeVectors
%include ../../../../Defaults.fdf
************************** End of input data file *****************************

reinit: -----------------------------------------------------------------------
reinit: System Name: 
reinit: -----------------------------------------------------------------------
reinit: System Label: GC
reinit: -----------------------------------------------------------------------

initatom: Reading input for the pseudopotentials and atomic orbitals ----------
Species number:   1 Atomic number:    1 Label: H
Species number:   2 Atomic number:    7 Label: N
Species number:   3 Atomic number:   14 Label: Si
Species number:   4 Atomic number:    8 Label: O

Ground state valence configuration:   1s01
Reading pseudopotential information in formatted form from H.psf

Pseudopotential generated from a relativistic atomic calculation

Valence configuration for pseudopotential generation:
1s( 1.00) rc: 0.01
2p( 0.00) rc: 0.60
3d( 0.00) rc: 1.99
4f( 0.00) rc: 2.49
Ground state valence configuration:   2s02  2p03
Reading pseudopotential information in formatted form from N.psf

Pseudopotential generated from a relativistic atomic calculation

Valence configuration for pseudopotential generation:
2s( 2.00) rc: 0.94
2p( 3.00) rc: 0.59
3d( 0.00) rc: 3.46
4f( 0.00) rc: 2.47
Ground state valence configuration:   3s02  3p02
Reading pseudopotential information in formatted form from Si.psf

Pseudopotential generated from a relativistic atomic calculation

Valence configuration for pseudopotential generation:
3s( 2.00) rc: 1.67
3p( 2.00) rc: 2.04
3d( 0.00) rc: 2.89
4f( 0.00) rc: 2.49
Ground state valence configuration:   2s02  2p04
Reading pseudopotential information in formatted form from O.psf

Pseudopotential generated from a relativistic atomic calculation

Valence configuration for pseudopotential generation:
2s( 2.00) rc: 0.45
2p( 4.00) rc: 0.92
3d( 0.00) rc: 2.24
4f( 0.00) rc: 0.25
For H, standard SIESTA heuristics set lmxkb to 2
 (one more than the basis l, including polarization orbitals).
Use PS.lmax or PS.KBprojectors blocks to override.
For N, standard SIESTA heuristics set lmxkb to 3
 (one more than the basis l, including polarization orbitals).
Use PS.lmax or PS.KBprojectors blocks to override.
For Si, standard SIESTA heuristics set lmxkb to 3
 (one more than the basis l, including polarization orbitals).
Use PS.lmax or PS.KBprojectors blocks to override.
For O, standard SIESTA heuristics set lmxkb to 3
 (one more than the basis l, including polarization orbitals).
Use PS.lmax or PS.KBprojectors blocks to override.

<basis_specs>
===============================================================================
H                    Z=   1    Mass=  1.0100        Charge= 0.17977+309
Lmxo=0 Lmxkb= 2    BasisType=split      Semic=F
L=0  Nsemic=0  Cnfigmx=1
          i=1  nzeta=2  polorb=1  (1s)
            splnorm:   0.62000    
               vcte:    0.0000    
               rinn:    0.0000    
               qcoe:    0.0000    
               qyuk:    0.0000    
               qwid:   0.10000E-01
                rcs:    0.0000      0.0000    
            lambdas:    1.0000      1.0000    
-------------------------------------------------------------------------------
L=0  Nkbl=1  erefs: 0.17977+309
L=1  Nkbl=1  erefs: 0.17977+309
L=2  Nkbl=1  erefs: 0.17977+309
===============================================================================
</basis_specs>

atom: Called for H                     (Z =   1)

read_vps: Pseudopotential generation method:
read_vps: ATM4.2.7  Troullier-Martins                       
Valence charge for ps generation:    1.00000

xc_check: Exchange-correlation functional:
xc_check: GGA Perdew, Burke & Ernzerhof 1996
V l=0 = -2*Zval/r beyond r=  0.0098
V l=1 = -2*Zval/r beyond r=  0.5817
V l=2 = -2*Zval/r beyond r=  1.9372
All V_l potentials equal beyond r=  1.9372
This should be close to max(r_c) in ps generation
All pots = -2*Zval/r beyond r=  1.9372

VLOCAL1: 99.0% of the norm of Vloc inside     11.567 Ry
VLOCAL1: 99.9% of the norm of Vloc inside     26.362 Ry
atom: Maximum radius for 4*pi*r*r*local-pseudopot. charge    2.25106
atom: Maximum radius for r*vlocal+2*Zval:    1.91306
GHOST: No ghost state for L =  0
GHOST: No ghost state for L =  1
GHOST: No ghost state for L =  2

KBgen: Kleinman-Bylander projectors: 
   l= 0   rc=  2.036604   el= -0.477180   Ekb= -6.081590   kbcos= -0.277285
   l= 1   rc=  2.195416   el=  0.001076   Ekb= -0.926943   kbcos= -0.034643
   l= 2   rc=  2.251056   el=  0.002010   Ekb= -0.130941   kbcos= -0.009788

KBgen: Total number of Kleinman-Bylander projectors:    9
atom: -------------------------------------------------------------------------

atom: SANKEY-TYPE ORBITALS:
atom: Selected multiple-zeta basis: split     

SPLIT: Orbitals with angular momentum L= 0

SPLIT: Basis orbitals for state 1s

SPLIT: PAO cut-off radius determined from an
SPLIT: energy shift=  0.002000 Ry

   izeta = 1
                 lambda =    1.000000
                     rc =    6.518340
                 energy =   -0.475305
                kinetic =    0.912139
    potential(screened) =   -1.387444
       potential(ionic) =   -1.907295

   izeta = 2
                 rmatch =    2.141150
              splitnorm =    0.620000
                 energy =    0.566467
                kinetic =    3.772856
    potential(screened) =   -3.206389
       potential(ionic) =   -3.759093

POLgen: Perturbative polarization orbital with L=  1

POLgen: Polarization orbital for state 1s

   izeta = 1
                     rc =    6.518340
                 energy =    0.533861
                kinetic =    1.121086
    potential(screened) =   -0.587225
       potential(ionic) =   -1.053027
atom: Total number of Sankey-type orbitals:  5

atm_pop: Valence configuration (for local Pseudopot. screening):
 1s( 1.00)                                                            
Vna: chval, zval:    1.00000   1.00000

Vna:  Cut-off radius for the neutral-atom potential:   6.518340

atom: _________________________________________________________________________

<basis_specs>
===============================================================================
N                    Z=   7    Mass=  14.010        Charge= 0.17977+309
Lmxo=1 Lmxkb= 3    BasisType=split      Semic=F
L=0  Nsemic=0  Cnfigmx=2
          i=1  nzeta=2  polorb=0  (2s)
            splnorm:   0.28000    
               vcte:    0.0000    
               rinn:    0.0000    
               qcoe:    0.0000    
               qyuk:    0.0000    
               qwid:   0.10000E-01
                rcs:    0.0000      0.0000    
            lambdas:    1.0000      1.0000    
L=1  Nsemic=0  Cnfigmx=2
          i=1  nzeta=2  polorb=1  (2p)
            splnorm:   0.28000    
               vcte:    0.0000    
               rinn:    0.0000    
               qcoe:    0.0000    
               qyuk:    0.0000    
               qwid:   0.10000E-01
                rcs:    0.0000      0.0000    
            lambdas:    1.0000      1.0000    
-------------------------------------------------------------------------------
L=0  Nkbl=1  erefs: 0.17977+309
L=1  Nkbl=1  erefs: 0.17977+309
L=2  Nkbl=1  erefs: 0.17977+309
L=3  Nkbl=1  erefs: 0.17977+309
===============================================================================
</basis_specs>

atom: Called for N                     (Z =   7)

read_vps: Pseudopotential generation method:
read_vps: ATM4.2.7  Troullier-Martins                       
Valence charge for ps generation:    5.00000

xc_check: Exchange-correlation functional:
xc_check: GGA Perdew, Burke & Ernzerhof 1996
V l=0 = -2*Zval/r beyond r=  1.2889
V l=1 = -2*Zval/r beyond r=  1.2889
V l=2 = -2*Zval/r beyond r=  3.4178
V l=3 = -2*Zval/r beyond r=  2.4084
All V_l potentials equal beyond r=  3.3753
This should be close to max(r_c) in ps generation
All pots = -2*Zval/r beyond r=  3.4178

VLOCAL1: 99.0% of the norm of Vloc inside      3.810 Ry
VLOCAL1: 99.9% of the norm of Vloc inside      8.683 Ry
atom: Maximum radius for 4*pi*r*r*local-pseudopot. charge    4.02088
atom: Maximum radius for r*vlocal+2*Zval:    3.54838
GHOST: No ghost state for L =  0
GHOST: No ghost state for L =  1
GHOST: No ghost state for L =  2
GHOST: No ghost state for L =  3

KBgen: Kleinman-Bylander projectors: 
   l= 0   rc=  3.417763   el= -1.365098   Ekb= -4.433130   kbcos= -0.707855
   l= 1   rc=  3.375302   el= -0.521201   Ekb=-13.264039   kbcos= -0.535594
   l= 2   rc=  3.872880   el=  0.001991   Ekb= -0.641094   kbcos= -0.062456
   l= 3   rc=  3.970931   el=  0.003093   Ekb= -0.474517   kbcos= -0.018236

KBgen: Total number of Kleinman-Bylander projectors:   16
atom: -------------------------------------------------------------------------

atom: SANKEY-TYPE ORBITALS:
atom: Selected multiple-zeta basis: split     

SPLIT: Orbitals with angular momentum L= 0

SPLIT: Basis orbitals for state 2s

SPLIT: PAO cut-off radius determined from an
SPLIT: energy shift=  0.002000 Ry

   izeta = 1
                 lambda =    1.000000
                     rc =    4.730425
                 energy =   -1.363399
                kinetic =    1.245246
    potential(screened) =   -2.608645
       potential(ionic) =   -8.121105

   izeta = 2
                 rmatch =    2.531849
              splitnorm =    0.280000
                 energy =   -0.959908
                kinetic =    2.409435
    potential(screened) =   -3.369343
       potential(ionic) =   -9.427975

SPLIT: Orbitals with angular momentum L= 1

SPLIT: Basis orbitals for state 2p

SPLIT: PAO cut-off radius determined from an
SPLIT: energy shift=  0.002000 Ry

   izeta = 1
                 lambda =    1.000000
                     rc =    5.924108
                 energy =   -0.519262
                kinetic =    3.672940
    potential(screened) =   -4.192202
       potential(ionic) =   -9.518354

   izeta = 2
                 rmatch =    2.531849
              splitnorm =    0.280000
                 energy =   -0.104258
                kinetic =    6.807538
    potential(screened) =   -6.911796
       potential(ionic) =  -13.149920

POLgen: Perturbative polarization orbital with L=  2

POLgen: Polarization orbital for state 2p

   izeta = 1
                     rc =    5.924108
                 energy =    1.427508
                kinetic =    2.872379
    potential(screened) =   -1.444871
       potential(ionic) =   -5.563644
atom: Total number of Sankey-type orbitals: 13

atm_pop: Valence configuration (for local Pseudopot. screening):
 2s( 2.00)                                                            
 2p( 3.00)                                                            
Vna: chval, zval:    5.00000   5.00000

Vna:  Cut-off radius for the neutral-atom potential:   5.924108

atom: _________________________________________________________________________

<basis_specs>
===============================================================================
Si                   Z=  14    Mass=  28.090        Charge= 0.17977+309
Lmxo=1 Lmxkb= 3    BasisType=split      Semic=F
L=0  Nsemic=0  Cnfigmx=3
          i=1  nzeta=2  polorb=0  (3s)
            splnorm:   0.28000    
               vcte:    0.0000    
               rinn:    0.0000    
               qcoe:    0.0000    
               qyuk:    0.0000    
               qwid:   0.10000E-01
                rcs:    0.0000      0.0000    
            lambdas:    1.0000      1.0000    
L=1  Nsemic=0  Cnfigmx=3
          i=1  nzeta=2  polorb=1  (3p)
            splnorm:   0.28000    
               vcte:    0.0000    
               rinn:    0.0000    
               qcoe:    0.0000    
               qyuk:    0.0000    
               qwid:   0.10000E-01
                rcs:    0.0000      0.0000    
            lambdas:    1.0000      1.0000    
-------------------------------------------------------------------------------
L=0  Nkbl=1  erefs: 0.17977+309
L=1  Nkbl=1  erefs: 0.17977+309
L=2  Nkbl=1  erefs: 0.17977+309
L=3  Nkbl=1  erefs: 0.17977+309
===============================================================================
</basis_specs>

atom: Called for Si                    (Z =  14)

read_vps: Pseudopotential generation method:
read_vps: ATM4.2.7  Troullier-Martins                       
Valence charge for ps generation:    4.00000

xc_check: Exchange-correlation functional:
xc_check: GGA Perdew, Burke & Ernzerhof 1996
V l=0 = -2*Zval/r beyond r=  2.7826
V l=1 = -2*Zval/r beyond r=  2.7826
V l=2 = -2*Zval/r beyond r=  2.9253
V l=3 = -2*Zval/r beyond r=  2.7826
All V_l potentials equal beyond r=  2.8530
This should be close to max(r_c) in ps generation
All pots = -2*Zval/r beyond r=  2.9253

VLOCAL1: 99.0% of the norm of Vloc inside      5.333 Ry
VLOCAL1: 99.9% of the norm of Vloc inside     12.154 Ry
atom: Maximum radius for 4*pi*r*r*local-pseudopot. charge    3.39869
atom: Maximum radius for r*vlocal+2*Zval:    2.96205
GHOST: No ghost state for L =  0
GHOST: No ghost state for L =  1
GHOST: No ghost state for L =  2
GHOST: No ghost state for L =  3

KBgen: Kleinman-Bylander projectors: 
   l= 0   rc=  3.075247   el= -0.794092   Ekb=  5.879390   kbcos=  0.167461
   l= 1   rc=  3.153101   el= -0.300068   Ekb=  2.642817   kbcos=  0.058301
   l= 2   rc=  3.273594   el=  0.001958   Ekb= -1.185135   kbcos= -0.104411
   l= 3   rc=  3.232927   el=  0.003046   Ekb= -0.497174   kbcos= -0.015889

KBgen: Total number of Kleinman-Bylander projectors:   16
atom: -------------------------------------------------------------------------

atom: SANKEY-TYPE ORBITALS:
atom: Selected multiple-zeta basis: split     

SPLIT: Orbitals with angular momentum L= 0

SPLIT: Basis orbitals for state 3s

SPLIT: PAO cut-off radius determined from an
SPLIT: energy shift=  0.002000 Ry

   izeta = 1
                 lambda =    1.000000
                     rc =    6.429618
                 energy =   -0.792283
                kinetic =    0.525293
    potential(screened) =   -1.317576
       potential(ionic) =   -3.744923

   izeta = 2
                 rmatch =    3.998416
              splitnorm =    0.280000
                 energy =   -0.583081
                kinetic =    1.069570
    potential(screened) =   -1.652651
       potential(ionic) =   -4.235185

SPLIT: Orbitals with angular momentum L= 1

SPLIT: Basis orbitals for state 3p

SPLIT: PAO cut-off radius determined from an
SPLIT: energy shift=  0.002000 Ry

   izeta = 1
                 lambda =    1.000000
                     rc =    8.464845
                 energy =   -0.298236
                kinetic =    0.785360
    potential(screened) =   -1.083596
       potential(ionic) =   -3.273779

   izeta = 2
                 rmatch =    4.587816
              splitnorm =    0.280000
                 energy =   -0.131871
                kinetic =    1.403687
    potential(screened) =   -1.535557
       potential(ionic) =   -4.015310

POLgen: Perturbative polarization orbital with L=  2

POLgen: Polarization orbital for state 3p

   izeta = 1
                     rc =    8.464845
                 energy =    0.321949
                kinetic =    1.055677
    potential(screened) =   -0.733728
       potential(ionic) =   -2.672950
atom: Total number of Sankey-type orbitals: 13

atm_pop: Valence configuration (for local Pseudopot. screening):
 3s( 2.00)                                                            
 3p( 2.00)                                                            
Vna: chval, zval:    4.00000   4.00000

Vna:  Cut-off radius for the neutral-atom potential:   8.464845

atom: _________________________________________________________________________

<basis_specs>
===============================================================================
O                    Z=   8    Mass=  16.000        Charge= 0.17977+309
Lmxo=1 Lmxkb= 3    BasisType=split      Semic=F
L=0  Nsemic=0  Cnfigmx=2
          i=1  nzeta=2  polorb=0  (2s)
            splnorm:   0.28000    
               vcte:    0.0000    
               rinn:    0.0000    
               qcoe:    0.0000    
               qyuk:    0.0000    
               qwid:   0.10000E-01
                rcs:    0.0000      0.0000    
            lambdas:    1.0000      1.0000    
L=1  Nsemic=0  Cnfigmx=2
          i=1  nzeta=2  polorb=1  (2p)
            splnorm:   0.28000    
               vcte:    0.0000    
               rinn:    0.0000    
               qcoe:    0.0000    
               qyuk:    0.0000    
               qwid:   0.10000E-01
                rcs:    0.0000      0.0000    
            lambdas:    1.0000      1.0000    
-------------------------------------------------------------------------------
L=0  Nkbl=1  erefs: 0.17977+309
L=1  Nkbl=1  erefs: 0.17977+309
L=2  Nkbl=1  erefs: 0.17977+309
L=3  Nkbl=1  erefs: 0.17977+309
===============================================================================
</basis_specs>

atom: Called for O                     (Z =   8)

read_vps: Pseudopotential generation method:
read_vps: ATM4.2.7  Troullier-Martins                       
Valence charge for ps generation:    6.00000

xc_check: Exchange-correlation functional:
xc_check: GGA Perdew, Burke & Ernzerhof 1996
V l=0 = -2*Zval/r beyond r=  1.1000
V l=1 = -2*Zval/r beyond r=  1.1000
V l=2 = -2*Zval/r beyond r=  2.2154
V l=3 = -2*Zval/r beyond r=  1.1000
All V_l potentials equal beyond r=  2.2154
This should be close to max(r_c) in ps generation
All pots = -2*Zval/r beyond r=  2.2154

VLOCAL1: 99.0% of the norm of Vloc inside      8.845 Ry
VLOCAL1: 99.9% of the norm of Vloc inside     20.157 Ry
atom: Maximum radius for 4*pi*r*r*local-pseudopot. charge    2.67231
atom: Maximum radius for r*vlocal+2*Zval:    2.32897
GHOST: No ghost state for L =  0
GHOST: No ghost state for L =  1
GHOST: No ghost state for L =  2
GHOST: No ghost state for L =  3

KBgen: Kleinman-Bylander projectors: 
   l= 0   rc=  2.243238   el= -1.759686   Ekb=**********   kbcos= -0.171774
   l= 1   rc=  2.328968   el= -0.663873   Ekb=-14.506792   kbcos= -0.519897
   l= 2   rc=  2.573941   el=  0.002031   Ekb= -1.137373   kbcos= -0.019581
   l= 3   rc=  2.606321   el=  0.003153   Ekb= -1.013546   kbcos= -0.003122

KBgen: Total number of Kleinman-Bylander projectors:   16
atom: -------------------------------------------------------------------------

atom: SANKEY-TYPE ORBITALS:
atom: Selected multiple-zeta basis: split     

SPLIT: Orbitals with angular momentum L= 0

SPLIT: Basis orbitals for state 2s

SPLIT: PAO cut-off radius determined from an
SPLIT: energy shift=  0.002000 Ry

   izeta = 1
                 lambda =    1.000000
                     rc =    4.243912
                 energy =   -1.758270
                kinetic =    3.286084
    potential(screened) =   -5.044353
       potential(ionic) =  -12.921184

   izeta = 2
                 rmatch =    2.187845
              splitnorm =    0.280000
                 energy =   -0.885018
                kinetic =    8.134434
    potential(screened) =   -9.019452
       potential(ionic) =  -17.710645

SPLIT: Orbitals with angular momentum L= 1

SPLIT: Basis orbitals for state 2p

SPLIT: PAO cut-off radius determined from an
SPLIT: energy shift=  0.002000 Ry

   izeta = 1
                 lambda =    1.000000
                     rc =    5.314825
                 energy =   -0.661986
                kinetic =    4.917472
    potential(screened) =   -5.579458
       potential(ionic) =  -13.236259

   izeta = 2
                 rmatch =    2.160663
              splitnorm =    0.280000
                 energy =   -0.068760
                kinetic =    9.183374
    potential(screened) =   -9.252135
       potential(ionic) =  -18.274251

POLgen: Perturbative polarization orbital with L=  2

POLgen: Polarization orbital for state 2p

   izeta = 1
                     rc =    5.314825
                 energy =    1.970580
                kinetic =    3.886128
    potential(screened) =   -1.915547
       potential(ionic) =   -7.749584
atom: Total number of Sankey-type orbitals: 13

atm_pop: Valence configuration (for local Pseudopot. screening):
 2s( 2.00)                                                            
 2p( 4.00)                                                            
Vna: chval, zval:    6.00000   6.00000

Vna:  Cut-off radius for the neutral-atom potential:   5.314825

atom: _________________________________________________________________________

prinput: Basis input ----------------------------------------------------------

PAO.BasisType split     

%block ChemicalSpeciesLabel
    1    1 H                       # Species index, atomic number, species label
    2    7 N                       # Species index, atomic number, species label
    3   14 Si                      # Species index, atomic number, species label
    4    8 O                       # Species index, atomic number, species label
%endblock ChemicalSpeciesLabel

%block PAO.Basis                 # Define Basis set
H                     1                    # Species label, number of l-shells
 n=1   0   2 P   1                   # n, l, Nzeta, Polarization, NzetaPol
   6.518      2.141   
   1.000      1.000   
N                     2                    # Species label, number of l-shells
 n=2   0   2                         # n, l, Nzeta 
   4.730      2.532   
   1.000      1.000   
 n=2   1   2 P   1                   # n, l, Nzeta, Polarization, NzetaPol
   5.924      2.532   
   1.000      1.000   
Si                    2                    # Species label, number of l-shells
 n=3   0   2                         # n, l, Nzeta 
   6.430      3.998   
   1.000      1.000   
 n=3   1   2 P   1                   # n, l, Nzeta, Polarization, NzetaPol
   8.465      4.588   
   1.000      1.000   
O                     2                    # Species label, number of l-shells
 n=2   0   2                         # n, l, Nzeta 
   4.244      2.188   
   1.000      1.000   
 n=2   1   2 P   1                   # n, l, Nzeta, Polarization, NzetaPol
   5.315      2.161   
   1.000      1.000   
%endblock PAO.Basis

prinput: ----------------------------------------------------------------------

Dumping basis to NetCDF file H.ion.nc
Dumping basis to NetCDF file N.ion.nc
Dumping basis to NetCDF file Si.ion.nc
Dumping basis to NetCDF file O.ion.nc
coor:   Atomic-coordinates input format  =     Cartesian coordinates
coor:                                          (in Angstroms)

siesta: Atomic coordinates (Bohr) and species
siesta:     -0.47532  10.41494   0.00000  1        1
siesta:     -1.81039   8.92198   0.00000  2        2
siesta:     -5.08016   9.75604   0.00000  3        3
siesta:     -5.37454  12.57172   0.00000  1        4
siesta:     -7.95882   6.81013   0.00000  3        5
siesta:    -10.76164   7.26901   0.00000  1        6
siesta:     -5.69419   3.19456   0.00000  3        7
siesta:     -7.14177   0.29815   0.00000  2        8
siesta:     -6.02637  -1.51073   0.00000  1        9
siesta:     -9.12905   0.14610   0.00000  1       10
siesta:     -2.45104   3.29883   0.00000  2       11
siesta:     -0.41954   5.81280   0.00000  3       12
siesta:      2.62041   5.77726   0.00000  4       13
siesta:     10.61355 -14.07759   0.00000  1       14
siesta:      8.65886 -13.66658   0.00000  2       15
siesta:      6.22979 -16.04876   0.00000  3       16
siesta:      7.18318 -18.71532  -0.00000  1       17
siesta:      3.13570 -15.14356   0.00000  2       18
siesta:      3.17659 -11.72506  -0.00000  3       19
siesta:      1.03072  -8.10005   0.00000  3       20
siesta:     -1.95457  -7.45403   0.00000  4       21
siesta:      3.27352  -5.43711   0.00000  2       22
siesta:      2.28576  -3.64645  -0.00000  1       23
siesta:      6.63017  -5.24735   0.00000  3       24
siesta:      7.81751  -2.22872   0.00000  2       25
siesta:      6.69523  -0.49602   0.00000  1       26
siesta:      9.79567  -1.98858  -0.00000  1       27
siesta:      8.75489  -7.70105  -0.00000  2       28
siesta:      7.16982 -10.55666   0.00000  3       29

siesta: System type = molecule  

initatomlists: Number of atoms, orbitals, and projectors:     29   297   394

siesta: ******************** Simulation parameters ****************************
siesta:
siesta: The following are some of the parameters of the simulation.
siesta: A complete list of the parameters used, including default values,
siesta: can be found in file out.fdf
siesta:
redata: Spin configuration                          = spin-orbit
redata: Number of spin components                   = 8
redata: Time-Reversal Symmetry                      = F
redata: Spin spiral                                 = F
############################################################
This spin-orbit implementation uses a local approximation.
From 4.2 and onwards the full non-local approximation is implemented
You are strongly advised to use >=4.2 versions!
############################################################
redata: Long output                                 =   F
redata: Number of Atomic Species                    =        4
redata: Charge density info will appear in .RHO file
redata: Write Mulliken Pop.                         = NO
redata: Matel table size (NRTAB)                    =     1024
redata: Mesh Cutoff                                 =   340.0000 Ry
redata: Net charge of the system                    =     0.0000 |e|
redata: Min. number of SCF Iter                     =        1
redata: Max. number of SCF Iter                     =      200
redata: SCF mix quantity                            = Hamiltonian
redata: Mix DM or H after convergence               =   F
redata: Recompute H after scf cycle                 =   F
redata: Mix DM in first SCF step                    =   T
redata: Write Pulay info on disk                    =   F
redata: New DM Occupancy tolerance                  = 0.000000000001
redata: No kicks to SCF
redata: DM Mixing Weight for Kicks                  =     0.5000
redata: Require Harris convergence for SCF          =   F
redata: Harris energy tolerance for SCF             =     0.000100 eV
redata: Require DM convergence for SCF              =   T
redata: DM tolerance for SCF                        =     0.000008
redata: Require EDM convergence for SCF             =   F
redata: EDM tolerance for SCF                       =     0.001000 eV
redata: Require H convergence for SCF               =   T
redata: Hamiltonian tolerance for SCF               =     0.000001 eV
redata: Require (free) Energy convergence for SCF   =   F
redata: (free) Energy tolerance for SCF             =     0.000100 eV
redata: Using Saved Data (generic)                  =   F
redata: Use continuation files for DM               =   T
redata: Neglect nonoverlap interactions             =   F
redata: Method of Calculation                       = Diagonalization
redata: Electronic Temperature                      =   299.9978 K
redata: Fix the spin of the system                  =   F
redata: Dynamics option                             = Verlet MD run
redata: Initial MD time step                        =        1
redata:   Final MD time step                        =        1
redata: Length of MD time step                      =     0.5000 fs
redata: Initial Temperature of MD run               =     0.0000 K
redata: Perform a MD quench                         =   F
mix.SCF: Pulay mixing                            = Pulay
mix.SCF:    Variant                              = stable
mix.SCF:    History steps                        = 6
mix.SCF:    Linear mixing weight                 =     0.250000
mix.SCF:    Mixing weight                        =     0.250000
mix.SCF:    SVD condition                        = 0.1000E-07
mix.SCF:    Restart steps                        = 24
mix.SCF:    Restart save steps                   = 3
mix.SCF: Spin-component mixing                   all
redata: Save all siesta data in one NC              =   F
redata: ***********************************************************************

%block SCF.Mixers
  Pulay
%endblock SCF.Mixers

%block SCF.Mixer.Pulay
  # Mixing method
  method pulay
  variant stable

  # Mixing options
  weight 0.2500
  weight.linear 0.2500
  history 6
  restart 24
  restart.save 3
%endblock SCF.Mixer.Pulay

Size of DM history Fstack: 3
Total number of electrons:    98.000000
Total ionic charge:    98.000000

* ProcessorY, Blocksize:    2  24


* Orbital distribution balance (max,min):    48    24


Time-reversal symmetry not used.

siesta: k-grid: Number of k-points =     1
siesta: k-grid: Cutoff (effective) =     5.000 Ang
siesta: k-grid: Supercell and displacements
siesta: k-grid:    1   0   0      0.000
siesta: k-grid:    0   1   0      0.000
siesta: k-grid:    0   0   1      0.000

diag: Algorithm                                     = ELPA-1stage
diag: Parallel over k                               =   F
diag: Use parallel 2D distribution                  =   T
diag: Parallel block-size                           = 24
diag: Parallel distribution                         =     2 x     4
diag: Used triangular part                          = Lower
diag: Absolute tolerance                            =  0.100E-15
diag: Orthogonalization factor                      =  0.100E-05
diag: Memory factor                                 =  1.0000


ts: **************************************************************
ts: Save H and S matrices                           =    F
ts: Save DM and EDM matrices                        =    F
ts: Only save the overlap matrix S                  =    F
ts: **************************************************************

************************ Begin: TS CHECKS AND WARNINGS ************************
************************ End: TS CHECKS AND WARNINGS **************************


                     ====================================
                        Begin MD step =      1
                     ====================================

outcoor: Atomic coordinates (Ang):                          
   -0.25153059    5.51134458    0.00000000   1       1  H
   -0.95801732    4.72130840    0.00000000   2       2  N
   -2.68830423    5.16267231    0.00000000   3       3  Si
   -2.84408391    6.65266457    0.00000000   1       4  H
   -4.21162585    3.60376479    0.00000000   3       5  Si
   -5.69481348    3.84659515    0.00000000   1       6  H
   -3.01323499    1.69048863    0.00000000   3       7  Si
   -3.77926045    0.15777189    0.00000000   2       8  N
   -3.18901390   -0.79944114    0.00000000   1       9  H
   -4.83088277    0.07731166    0.00000000   1      10  H
   -1.29703493    1.74566294    0.00000000   2      11  N
   -0.22201231    3.07600178    0.00000000   3      12  Si
    1.38666101    3.05719152    0.00000000   4      13  O
    5.61644830   -7.44953905    0.00000000   1      14  H
    4.58206954   -7.23203760    0.00000000   2      15  N
    3.29666389   -8.49263600    0.00000000   3      16  Si
    3.80117524   -9.90371886    0.00000000   1      17  H
    1.65934232   -8.01362137    0.00000000   2      18  N
    1.68097912   -6.20463398    0.00000000   3      19  Si
    0.54543521   -4.28636135    0.00000000   3      20  Si
   -1.03431493   -3.94450034    0.00000000   4      21  O
    1.73226934   -2.87719605    0.00000000   2      22  N
    1.20957366   -1.92961761    0.00000000   1      23  H
    3.50853448   -2.77677601    0.00000000   3      24  Si
    4.13684451   -1.17938608    0.00000000   2      25  N
    3.54296161   -0.26248101    0.00000000   1      26  H
    5.18364407   -1.05231197    0.00000000   1      27  H
    4.63288658   -4.07521596    0.00000000   2      28  N
    3.79410501   -5.58634043    0.00000000   3      29  Si

outcell: Unit cell vectors (Ang):
       30.000000    0.000000    0.000000
        0.000000   45.000000    0.000000
        0.000000    0.000000   10.000000

outcell: Cell vector modules (Ang)   :   30.000000   45.000000   10.000000
outcell: Cell angles (23,13,12) (deg):     90.0000     90.0000     90.0000
outcell: Cell volume (Ang**3)        :  13500.0000
<dSpData1D:S at geom step 1
  <sparsity:sparsity for geom step 1
    nrows_g=297 nrows=48 sparsity=.1016 nnzs=8965, refcount: 8>
  <dData1D:(new from dSpData1D) n=8965, refcount: 1>
refcount: 1>
new_DM -- step:     1
Initializing Density Matrix...

Attempting to read DM from file... Failed...
DM filled with atomic data:
<dSpData2D:DM initialized from atoms
  <sparsity:sparsity for geom step 1
    nrows_g=297 nrows=48 sparsity=.1016 nnzs=8965, refcount: 9>
  <dData2D:DM n=8965 m=8, refcount: 1>
refcount: 1>
     spin moment: S , {S} =   56.00000   0.00000   0.00000  56.00000
No. of atoms with KB's overlaping orbs in proc 0. Max # of overlaps:      27     154

Initializing spin-orbit part of the Hamiltonian
  Adding spin-orbit effects for H 
  Adding spin-orbit effects for N 
  Adding spin-orbit effects for Si
  Adding spin-orbit effects for O 


New grid distribution:   1
           1       1:  180    1:  125    1:   15
           2       1:  180    1:  125   16:   30
           3       1:  180    1:  125   31:   45
           4       1:  180    1:  125   46:   60
           5       1:  180  126:  250    1:   15
           6       1:  180  126:  250   16:   30
           7       1:  180  126:  250   31:   45
           8       1:  180  126:  250   46:   60

InitMesh: MESH =   360 x   500 x   120 =    21600000
InitMesh: (bp) =   180 x   250 x    60 =     2700000
InitMesh: Mesh cutoff (required, used) =   340.000   341.206 Ry
ExtMesh (bp) on 0 =   288 x   225 x   123 =     7970400
New grid distribution:   2
           1       1:  156   29:  208    1:   60
           2       1:  156    1:   28    1:   60
           3       1:   21  227:  250    1:   60
           4     157:  180    1:   19    1:   60
           5     157:  180   20:  208    1:   60
           6      22:  180  229:  250    1:   60
           7      22:  180  209:  228    1:   60
           8       1:   21  209:  226    1:   60
New grid distribution:   3
           1       1:  143   25:  195    1:   60
           2       1:  143    1:   24    1:   60
           3       1:   33  223:  250    1:   60
           4     144:  180    1:   24    1:   60
           5     144:  180   25:  195    1:   60
           6      34:  180  196:  229    1:   60
           7      34:  180  230:  250    1:   60
           8       1:   33  196:  222    1:   60
Setting up quadratic distribution...
ExtMesh (bp) on 0 =   264 x   280 x   168 =    12418560
PhiOnMesh: Number of (b)points on node 0 =              1684800
PhiOnMesh: nlist on node 0 =              1626883

stepf: Fermi-Dirac step function

siesta: Program's energy decomposition (eV):
siesta: Ebs     =      -592.250743
siesta: Eions   =      3585.165840
siesta: Ena     =       381.827840
siesta: Ekin    =      3368.849276
siesta: Enl     =     -3297.235545
siesta: Eso     =        -0.003409
siesta: Edftu   =         0.000000
siesta: DEna    =       153.468594
siesta: DUscf   =        81.454423
siesta: DUext   =         0.000000
siesta: Exc     =     -1204.027064
siesta: eta*DQ  =         0.000000
siesta: Emadel  =         0.000000
siesta: Emeta   =         0.000000
siesta: Emolmec =         0.000000
siesta: Ekinion =         0.000000
siesta: Eharris =     -4021.848623
siesta: Etot    =     -4100.831724
siesta: FreeEng =     -4100.832760

        iscf     Eharris(eV)        E_KS(eV)     FreeEng(eV)     dDmax    Ef(eV) dHmax(eV)
   scf:    1    -4021.848623    -4100.831724    -4100.832760  0.965545 -4.903603 22.180055
     spin moment: S , {S} =    2.00584   0.00000   0.00000   2.00584
timer: Routine,Calls,Time,% = IterSCF        1      11.285  30.28
   scf:    2    -4146.254953    -4135.887343    -4135.888349  0.456449 -4.147541 12.124598
     spin moment: S , {S} =    1.99508   0.00000  -0.00000   1.99508
   scf:    3    -4102.197747    -4132.169709    -4132.190482  0.430198 -4.312417 13.163612
     spin moment: S , {S} =    2.19503   0.00000   0.00000   2.19503
   scf:    4    -4150.367096    -4145.125051    -4145.125052  0.324748 -3.826559  6.835694
     spin moment: S , {S} =    0.00010   0.00000   0.00000   0.00010
   scf:    5    -4146.486754    -4145.911075    -4145.911075  0.039230 -3.579012  4.242475
     spin moment: S , {S} =    0.00006   0.00000  -0.00000   0.00006
   scf:    6    -4146.642097    -4146.284665    -4146.284665  0.023538 -3.552845  2.193196
     spin moment: S , {S} =    0.00003  -0.00000  -0.00000   0.00003
   scf:    7    -4146.640174    -4146.458963    -4146.458963  0.021605 -3.576092  0.934754
     spin moment: S , {S} =    0.00001   0.00000  -0.00000   0.00001
   scf:    8    -4146.577562    -4146.516420    -4146.516420  0.012169 -3.649647  0.551676
     spin moment: S , {S} =    0.00000  -0.00000   0.00000   0.00000
   scf:    9    -4146.556311    -4146.535686    -4146.535686  0.006985 -3.607020  0.424864
     spin moment: S , {S} =    0.00000   0.00000  -0.00000   0.00000
   scf:   10    -4146.589864    -4146.555430    -4146.555430  0.023159 -3.681478  0.254194
     spin moment: S , {S} =    0.00000  -0.00000   0.00000  -0.00000
   scf:   11    -4146.559637    -4146.557572    -4146.557572  0.005595 -3.669930  0.073191
     spin moment: S , {S} =    0.00000  -0.00000  -0.00000  -0.00000
   scf:   12    -4146.559174    -4146.558382    -4146.558382  0.001400 -3.664028  0.032226
     spin moment: S , {S} =    0.00000  -0.00000  -0.00000  -0.00000
   scf:   13    -4146.558915    -4146.558646    -4146.558646  0.001135 -3.661143  0.020291
     spin moment: S , {S} =    0.00000  -0.00000  -0.00000  -0.00000
   scf:   14    -4146.558929    -4146.558781    -4146.558781  0.000813 -3.659741  0.011616
     spin moment: S , {S} =    0.00000  -0.00000  -0.00000  -0.00000
   scf:   15    -4146.558903    -4146.558838    -4146.558838  0.000875 -3.659449  0.007917
     spin moment: S , {S} =    0.00000  -0.00000  -0.00000  -0.00000
   scf:   16    -4146.558900    -4146.558866    -4146.558866  0.000727 -3.659666  0.005650
     spin moment: S , {S} =    0.00000  -0.00000  -0.00000   0.00000
   scf:   17    -4146.558888    -4146.558876    -4146.558876  0.000460 -3.659636  0.004288
     spin moment: S , {S} =    0.00000  -0.00000  -0.00000   0.00000
   scf:   18    -4146.558885    -4146.558880    -4146.558880  0.000297 -3.659617  0.002860
     spin moment: S , {S} =    0.00000  -0.00000  -0.00000   0.00000
   scf:   19    -4146.558885    -4146.558882    -4146.558882  0.000253 -3.659577  0.001787
     spin moment: S , {S} =    0.00000  -0.00000  -0.00000   0.00000
   scf:   20    -4146.558884    -4146.558883    -4146.558883  0.000126 -3.659609  0.001279
     spin moment: S , {S} =    0.00000  -0.00000  -0.00000   0.00000
   scf:   21    -4146.558885    -4146.558884    -4146.558884  0.000160 -3.659646  0.000743
     spin moment: S , {S} =    0.00000  -0.00000  -0.00000   0.00000
   scf:   22    -4146.558884    -4146.558884    -4146.558884  0.000123 -3.659695  0.000227
     spin moment: S , {S} =    0.00000  -0.00000  -0.00000   0.00000
   scf:   23    -4146.558884    -4146.558884    -4146.558884  0.000040 -3.659707  0.000164
     spin moment: S , {S} =    0.00000  -0.00000  -0.00000   0.00000
   scf:   24    -4146.558884    -4146.558884    -4146.558884  0.000012 -3.659702  0.000099
     spin moment: S , {S} =    0.00000  -0.00000  -0.00000   0.00000
mix: Pulay -- resetting history
   scf:   25    -4146.558884    -4146.558884    -4146.558884  0.000008 -3.659692  0.000051
     spin moment: S , {S} =    0.00000  -0.00000  -0.00000   0.00000
   scf:   26    -4146.558884    -4146.558884    -4146.558884  0.000003 -3.659684  0.000030
     spin moment: S , {S} =    0.00000  -0.00000  -0.00000   0.00000
   scf:   27    -4146.558884    -4146.558884    -4146.558884  0.000004 -3.659683  0.000020
     spin moment: S , {S} =    0.00000  -0.00000  -0.00000   0.00000
   scf:   28    -4146.558884    -4146.558884    -4146.558884  0.000002 -3.659680  0.000011
     spin moment: S , {S} =    0.00000  -0.00000  -0.00000   0.00000
   scf:   29    -4146.558884    -4146.558884    -4146.558884  0.000001 -3.659679  0.000007
     spin moment: S , {S} =    0.00000  -0.00000  -0.00000   0.00000
   scf:   30    -4146.558884    -4146.558884    -4146.558884  0.000001 -3.659678  0.000002
     spin moment: S , {S} =    0.00000  -0.00000  -0.00000   0.00000
   scf:   31    -4146.558884    -4146.558884    -4146.558884  0.000000 -3.659678  0.000002
     spin moment: S , {S} =    0.00000  -0.00000  -0.00000   0.00000
   scf:   32    -4146.558884    -4146.558884    -4146.558884  0.000000 -3.659678  0.000001
     spin moment: S , {S} =    0.00000  -0.00000  -0.00000   0.00000
   scf:   33    -4146.558884    -4146.558884    -4146.558884  0.000000 -3.659678  0.000001
     spin moment: S , {S} =    0.00000  -0.00000  -0.00000   0.00000

SCF Convergence by DM+H criterion
max |DM_out - DM_in|         :     0.0000001151
max |H_out - H_in|      (eV) :     0.0000006875
SCF cycle converged after 33 iterations

Using DM_out to compute the final energy and forces
No. of atoms with KB's overlaping orbs in proc 0. Max # of overlaps:      27     154

siesta: E_KS(eV) =            -4146.5589

siesta: E_KS - E_eggbox =     -4146.5589
     spin moment: S , {S} =    0.00000  -0.00000  -0.00000   0.00000

siesta: Atomic forces (eV/Ang):
     1    0.048257   -0.127003   -0.000000
     2   -0.482772    0.283760   -0.000000
     3    0.389120   -0.035111    0.000000
     4    0.014579    0.192434   -0.000000
     5   -0.194814   -0.197866   -0.000000
     6    0.046043    0.094900    0.000000
     7    1.122618    0.923053   -0.000000
     8    0.813205   -2.247784   -0.000000
     9   -1.187727    1.704813   -0.000000
    10    0.111140   -0.154965   -0.000000
    11   -0.932630   -0.288167    0.000000
    12    1.117846   -0.234993    0.000000
    13    0.479971    0.793776   -0.000000
    14   -0.015113   -0.031387   -0.000000
    15    0.106043    0.030251    0.000000
    16    0.011628   -0.018380    0.000000
    17   -0.002336    0.046566   -0.000000
    18   -0.040012    0.040777   -0.000000
    19    0.244102    0.026374    0.000000
    20   -1.284886   -0.152726   -0.000000
    21    1.177707   -3.811980    0.000000
    22    0.299865    0.725933    0.000000
    23    0.217044   -0.563236   -0.000000
    24   -0.312840   -0.870258   -0.000000
    25   -0.489964    1.506015    0.000000
    26    0.803642   -1.149995   -0.000000
    27   -0.143536    0.093674    0.000000
    28    0.041605    0.659045    0.000000
    29   -0.289158   -0.378399   -0.000000
----------------------------------------
   Tot    1.668625   -3.140880    0.000000
----------------------------------------
   Max    3.811980
   Res    0.683004    sqrt( Sum f_i^2 / 3N )
----------------------------------------
   Max    3.811980    constrained

Stress tensor Voigt[x,y,z,yz,xz,xy] (kbar):        0.55        0.18       -0.04        0.00       -0.00       -0.50
(Free)E + p*V (eV/cell)    -4148.4793
Target enthalpy (eV/cell)    -4146.5589

siesta: Stress tensor (static) (eV/Ang**3):
         0.000341   -0.000314   -0.000000
        -0.000314    0.000113    0.000000
        -0.000000    0.000000   -0.000028

siesta: Pressure (static):         -0.22791176  kBar

siesta: Stress tensor (total) (eV/Ang**3):
         0.000341   -0.000314   -0.000000
        -0.000314    0.000113    0.000000
        -0.000000    0.000000   -0.000028

siesta: Pressure (total):         -0.22791176  kBar

siesta: Temp_ion =       0.000 K

siesta: Eigenvalues (eV):
ik =     1
  -21.8114  -21.8114  -21.6752  -21.6752  -21.4450  -21.4450  -21.4279  -21.4279  -21.0854  -21.0854
  -21.0089  -21.0089  -20.6661  -20.6661  -19.6525  -19.6525  -19.3242  -19.3242  -19.2108  -19.2108
  -14.6890  -14.6890  -13.7356  -13.7356  -13.2504  -13.2504  -12.9974  -12.9974  -12.9203  -12.9203
  -12.7784  -12.7784  -12.6608  -12.6608  -12.3112  -12.3112  -12.2961  -12.2961  -11.9626  -11.9626
  -11.2481  -11.2481  -10.7420  -10.7420  -10.6068  -10.6068  -10.5702  -10.5702  -10.0230  -10.0230
   -9.4971   -9.4971   -9.1058   -9.1058   -8.7013   -8.7013   -8.6077   -8.6077   -8.5565   -8.5565
   -8.4660   -8.4660   -8.3471   -8.3471   -8.0252   -8.0252   -7.7390   -7.7390   -7.5971   -7.5971
   -7.4764   -7.4764   -7.1555   -7.1555   -7.1471   -7.1471   -6.7105   -6.7105   -6.6937   -6.6937
   -6.4359   -6.4359   -6.3615   -6.3615   -6.0576   -6.0576   -5.9762   -5.9762   -5.9655   -5.9655
   -5.7355   -5.7355   -5.4961   -5.4961   -5.4085   -5.4085   -4.1565   -4.1565   -3.1630   -3.1630
   -2.2329   -2.2329   -2.1685   -2.1685   -2.1366   -2.1366   -1.7820   -1.7820   -1.7449   -1.7449
   -1.7244   -1.7244   -1.7002   -1.7002   -1.5235   -1.5235   -1.3882   -1.3882   -0.9236   -0.9236
   -0.7827   -0.7827   -0.6453   -0.6453   -0.2570   -0.2570   -0.1158   -0.1158    0.1481    0.1481
    0.5490    0.5490    0.5618    0.5618    0.6957    0.6957    0.7840    0.7840    0.9405    0.9405
    1.0792    1.0792    1.3597    1.3597    1.4414    1.4414    1.4957    1.4957    1.5431    1.5431
    1.8720    1.8720    1.9333    1.9333    2.0174    2.0174    2.4670    2.4670    2.8728    2.8728
    2.8810    2.8810    2.8914    2.8914    3.0799    3.0799    3.2801    3.2801    3.4494    3.4494
    3.5391    3.5391    3.9026    3.9026    3.9792    3.9792    4.1631    4.1631    4.4299    4.4299
    4.4962    4.4962    4.5223    4.5223    4.6474    4.6474    4.7513    4.7513    4.9736    4.9736
    4.9780    4.9780    5.1513    5.1513    5.3896    5.3896    5.5743    5.5743    5.7904    5.7904
    5.8746    5.8746    5.9113    5.9113    6.0486    6.0486    6.1217    6.1217    6.1929    6.1929
    6.2562    6.2562    6.5085    6.5085    6.6830    6.6830    6.8393    6.8393    6.9057    6.9057
    7.1128    7.1128    7.3196    7.3196    7.5734    7.5734    7.6813    7.6813    7.8269    7.8269
    7.9501    7.9501    8.0526    8.0526    8.1635    8.1635    8.3839    8.3839    8.4173    8.4173
    8.6819    8.6819    8.8657    8.8657    8.9921    8.9921    9.0177    9.0177    9.2487    9.2487
    9.3399    9.3399    9.3839    9.3839    9.8008    9.8008    9.9164    9.9164    9.9905    9.9905
   10.1909   10.1909   10.2457   10.2457   10.5905   10.5905   10.8947   10.8947   11.0381   11.0381
   11.1188   11.1188   11.1655   11.1655   11.2140   11.2140   11.7781   11.7781   11.8592   11.8592
   11.9077   11.9077   12.0541   12.0541   12.2918   12.2918   12.5414   12.5414   12.7748   12.7748
   12.7944   12.7944   12.9360   12.9360   13.4640   13.4640   13.5495   13.5495   13.8080   13.8080
   13.8635   13.8635   14.1742   14.1742   14.4261   14.4261   14.8328   14.8328   14.8903   14.8903
   14.9477   14.9477   15.4151   15.4151   16.1426   16.1426   16.5946   16.5946   16.7706   16.7706
   17.0631   17.0631   17.4257   17.4257   17.6808   17.6808   18.3413   18.3413   18.5681   18.5681
   18.7415   18.7415   19.2504   19.2504   19.4593   19.4593   20.0386   20.0386   20.3422   20.3422
   21.0688   21.0688   21.3149   21.3149   22.0760   22.0760   22.2647   22.2647   22.5282   22.5282
   22.9773   22.9773   23.4150   23.4150   23.8543   23.8543   23.9203   23.9203   24.0589   24.0589
   24.9917   24.9917   25.4751   25.4751   26.0434   26.0434   26.8424   26.8424   27.7706   27.7706
   28.7836   28.7836   29.1129   29.1129   29.2741   29.2741   29.5732   29.5732   29.8535   29.8535
   30.1320   30.1320   30.2389   30.2389   30.3845   30.3845   30.8573   30.8573   31.1352   31.1352
   31.1457   31.1457   31.2472   31.2472   31.6768   31.6768   31.7755   31.7755   32.1721   32.1721
   32.9374   32.9374   33.9816   33.9816   34.6630   34.6630   34.7213   34.7213   35.0277   35.0277
   35.0714   35.0714   35.0889   35.0889   35.6495   35.6495   35.7486   35.7486   35.8041   35.8041
   36.8993   36.8993   37.0024   37.0024   37.2050   37.2050   37.4506   37.4506   37.9249   37.9249
   38.2315   38.2315   38.6858   38.6858   39.3661   39.3661   39.5182   39.5182   40.0547   40.0547
   40.5209   40.5209   40.6395   40.6395   40.6746   40.6746   41.0126   41.0126   41.1349   41.1349
   41.3930   41.3930   41.5619   41.5619   42.6437   42.6437   42.9402   42.9402   43.1011   43.1011
   43.4746   43.4746   43.8119   43.8119   44.1244   44.1244   44.1564   44.1564   44.4223   44.4223
   44.7941   44.7941   44.8238   44.8238   45.2974   45.2974   45.6518   45.6518   46.0626   46.0626
   46.6321   46.6321   47.2212   47.2212   47.4703   47.4703   48.8349   48.8349   49.4466   49.4466
   49.5922   49.5922   50.4454   50.4454   50.5406   50.5406   51.0330   51.0330   51.2235   51.2235
   51.6439   51.6439   51.8807   51.8807   52.7512   52.7512   53.2194   53.2194   54.3242   54.3242
   54.3630   54.3630   54.7562   54.7562   55.1866   55.1866   55.7799   55.7799   55.9697   55.9697
   56.0391   56.0391   56.3835   56.3835   56.4668   56.4668   58.5231   58.5231   58.5533   58.5533
   58.9995   58.9995   60.3249   60.3249   60.3726   60.3726   61.0725   61.0725   61.3473   61.3473
   61.8787   61.8787   62.1694   62.1694   62.3866   62.3866   64.8684   64.8684   66.6100   66.6100
   66.9505   66.9505   67.4097   67.4097   68.1029   68.1029   68.7699   68.7699   71.0006   71.0006
   73.9531   73.9531   80.6950   80.6950   91.3060   91.3060   92.1255   92.1255   93.3900   93.3900
   98.4380   98.4380   99.0515   99.0515   99.5183   99.5183  103.2602  103.2602  103.8394  103.8394
  110.2761  110.2761  111.9355  111.9355  124.1923  124.1923  126.3393  126.3393  129.4818  129.4818
  135.3718  135.3718  138.4982  138.4982
siesta: Fermi energy =      -3.659678 eV

siesta: Program's energy decomposition (eV):
siesta: Ebs     =     -1123.037370
siesta: Eions   =      3585.165840
siesta: Ena     =       381.827840
siesta: Ekin    =      2902.837067
siesta: Enl     =     -2787.575849
siesta: Eso     =        -0.004274
siesta: Edftu   =         0.000000
siesta: DEna    =        46.940854
siesta: DUscf   =        14.285501
siesta: DUext   =         0.000000
siesta: Exc     =     -1119.704183
siesta: eta*DQ  =         0.000000
siesta: Emadel  =         0.000000
siesta: Emeta   =         0.000000
siesta: Emolmec =         0.000000
siesta: Ekinion =         0.000000
siesta: Eharris =     -4146.558884
siesta: Etot    =     -4146.558884
siesta: FreeEng =     -4146.558884

siesta: Final energy (eV):
siesta:  Band Struct. =   -1123.037370
siesta:       Kinetic =    2902.837067
siesta:       Hartree =   14037.159439
siesta:       Edftu   =       0.000000
siesta:       Eso     =      -0.004274
siesta:    Ext. field =       0.000000
siesta:   Exch.-corr. =   -1119.704183
siesta:  Ion-electron =  -30646.705434
siesta:       Ion-ion =   10679.858501
siesta:       Ekinion =       0.000000
siesta:         Total =   -4146.558884
siesta:         Fermi =      -3.659678

siesta: Atomic forces (eV/Ang):
siesta:      1    0.048257   -0.127003   -0.000000
siesta:      2   -0.482772    0.283760   -0.000000
siesta:      3    0.389120   -0.035111    0.000000
siesta:      4    0.014579    0.192434   -0.000000
siesta:      5   -0.194814   -0.197866   -0.000000
siesta:      6    0.046043    0.094900    0.000000
siesta:      7    1.122618    0.923053   -0.000000
siesta:      8    0.813205   -2.247784   -0.000000
siesta:      9   -1.187727    1.704813   -0.000000
siesta:     10    0.111140   -0.154965   -0.000000
siesta:     11   -0.932630   -0.288167    0.000000
siesta:     12    1.117846   -0.234993    0.000000
siesta:     13    0.479971    0.793776   -0.000000
siesta:     14   -0.015113   -0.031387   -0.000000
siesta:     15    0.106043    0.030251    0.000000
siesta:     16    0.011628   -0.018380    0.000000
siesta:     17   -0.002336    0.046566   -0.000000
siesta:     18   -0.040012    0.040777   -0.000000
siesta:     19    0.244102    0.026374    0.000000
siesta:     20   -1.284886   -0.152726   -0.000000
siesta:     21    1.177707   -3.811980    0.000000
siesta:     22    0.299865    0.725933    0.000000
siesta:     23    0.217044   -0.563236   -0.000000
siesta:     24   -0.312840   -0.870258   -0.000000
siesta:     25   -0.489964    1.506015    0.000000
siesta:     26    0.803642   -1.149995   -0.000000
siesta:     27   -0.143536    0.093674    0.000000
siesta:     28    0.041605    0.659045    0.000000
siesta:     29   -0.289158   -0.378399   -0.000000
siesta: ----------------------------------------
siesta:    Tot    1.668625   -3.140880    0.000000

siesta: Stress tensor (static) (eV/Ang**3):
siesta:     0.000341   -0.000314   -0.000000
siesta:    -0.000314    0.000113    0.000000
siesta:    -0.000000    0.000000   -0.000028

siesta: Cell volume =      13500.000000 Ang**3

siesta: Pressure (static):
siesta:                Solid            Molecule  Units
siesta:          -0.00000155         -0.00000363  Ry/Bohr**3
siesta:          -0.00014225         -0.00033332  eV/Ang**3
siesta:          -0.22791176         -0.53404081  kBar
(Free)E+ p_basis*V_orbitals  =       -4126.708467
(Free)Eharris+ p_basis*V_orbitals  =       -4126.708467
     spin moment: S , {S} =    0.00000  -0.00000  -0.00000   0.00000

siesta: Electric dipole (a.u.)  =    0.001549    1.492192    0.000000
siesta: Electric dipole (Debye) =    0.003938    3.792776    0.000000

cite: Please see "GC.bib" for an exhaustive BiBTeX file.
cite: Please clearly indicate Siesta version in published work: v4.1.5-1-g384057250
cite: This calculation has made use of the following articles
cite: which are encouraged to be cited in a published work.
        Primary SIESTA paper
          DOI: www.doi.org/10.1088/0953-8984/14/11/302
        Spin-orbit coupling (on-site approximation)
          DOI: www.doi.org/10.1088/0953-8984/19/19/489001


WARNING: alloc-realloc-dealloc name mismatch
         Name: atomlist isa
         Size:              -116. Bytes
         Node:     0
         Subsequent mismatches will not be reported
>> End of run:   1-FEB-2024  22:32:35
Job completed
