Siesta Version  : v4.1.5-1-g384057250
Architecture    : gcc
Compiler version: GNU Fortran (Debian 10.2.1-6) 10.2.1 20210110
Compiler flags  : mpifort -O2 -fPIC -ftree-vectorize -fallow-argument-mismatch
PP flags        : -DFC_HAVE_ABORT -DMPI -DSIESTA__FLOOK -DSIESTA__METIS -DSIESTA__MUMPS -DCDF -DNCDF -DNCDF_4 -DNCDF_PARALLEL -DSIESTA__MRRR -DSIESTA__ELPA
Libraries       : libncdf.a libfdict.a  -lflookall -ldl -lnetcdff -lnetcdf -lhdf5_hl -lhdf5 -lhdf5_fortran -lz -lscalapack-openmpi -lopenblas -lmetis -lzmumps -lcmumps -ldmumps -lmumps_common -lpord -lsmumps -lesmumps -lscotch -lscotcherr -fopenmp -lelpa
PARALLEL version
NetCDF support
NetCDF-4 support
NetCDF-4 MPI-IO support
METIS ordering support
Lua support

* Running on 6 nodes in parallel
>> Start of run:  16-OCT-2023  18:47:30

                           ***********************       
                           *  WELCOME TO SIESTA  *       
                           ***********************       

reinit: Reading from standard input
reinit: Dumped input in INPUT_TMP.05799
************************** Dump of input data file ****************************
# mpirun -np 4 siesta-4.1.5 < GC.fdf > GC.out &
SystemLabel      GC
NumberOfAtoms    29
NumberOfSpecies  4
%block ChemicalSpeciesLabel
    1    1  H
    2    7  N
    3   14  Si
    4    8  O
%endblock ChemicalSpeciesLabel
############################################
# This overrides Defaults.fdf configuration
############################################
MD.TypeOfRun                CG # CG, Verlet
MD.Steps                    0
MaxSCFIterations            600
AtomicCoordinatesFormat NotScaledCartesianAng
%block AtomicCoordinatesAndAtomicSpecies
    -0.2300802735713594 5.479420074682317 0.0  1  1  H
    -0.9365670035713594 4.689383894682318 0.0  2  2  N
    -2.6668539135713596 5.130747804682318 0.0  3  3  Si
    -2.8226335935713593 6.620740064682318 0.0  1  4  H
    -4.1901755335713595 3.5718402846823176 0.0  3  5  Si
    -5.673363163571359 3.8146706446823178 0.0  1  6  H
    -2.9917846735713596 1.6585641246823175 0.0  3  7  Si
    -3.7578101335713594 0.12584738468231738 0.0  2  8  N
    -3.1675635835713596 -0.8313656453176825 0.0  1  9  H
    -4.809432453571359 0.045387154682317465 0.0  1  10  H
    -1.2755846135713593 1.7137384346823175 0.0  2  11  N
    -0.2005619935713594 3.0440772746823175 0.0  3  12  Si
    1.4081113264286405 3.0252670146823175 0.0  4  13  O
    5.6164483 -7.44953905 0.0  1  14  H
    4.58206954 -7.2320376 0.0  2  15  N
    3.29666389 -8.492636 0.0  3  16  Si
    3.80117524 -9.90371886 -0.0  1  17  H
    1.65934232 -8.01362137 0.0  2  18  N
    1.68097912 -6.20463398 -0.0  3  19  Si
    0.54543521 -4.28636135 0.0  3  20  Si
    -1.03431493 -3.94450034 0.0  4  21  O
    1.73226934 -2.87719605 0.0  2  22  N
    1.20957366 -1.92961761 -0.0  1  23  H
    3.50853448 -2.77677601 0.0  3  24  Si
    4.13684451 -1.17938608 0.0  2  25  N
    3.54296161 -0.26248101 0.0  1  26  H
    5.18364407 -1.05231197 -0.0  1  27  H
    4.63288658 -4.07521596 -0.0  2  28  N
    3.79410501 -5.58634043 0.0  3  29  Si
%endblock AtomicCoordinatesAndAtomicSpecies
%include ../../../../Defaults.fdf
************************** End of input data file *****************************

reinit: -----------------------------------------------------------------------
reinit: System Name: 
reinit: -----------------------------------------------------------------------
reinit: System Label: GC
reinit: -----------------------------------------------------------------------

initatom: Reading input for the pseudopotentials and atomic orbitals ----------
Species number:   1 Atomic number:    1 Label: H
Species number:   2 Atomic number:    7 Label: N
Species number:   3 Atomic number:   14 Label: Si
Species number:   4 Atomic number:    8 Label: O

Ground state valence configuration:   1s01
Reading pseudopotential information in formatted form from H.psf

Pseudopotential generated from a relativistic atomic calculation

Valence configuration for pseudopotential generation:
1s( 1.00) rc: 0.01
2p( 0.00) rc: 0.60
3d( 0.00) rc: 1.99
4f( 0.00) rc: 2.49
Ground state valence configuration:   2s02  2p03
Reading pseudopotential information in formatted form from N.psf

Pseudopotential generated from a relativistic atomic calculation

Valence configuration for pseudopotential generation:
2s( 2.00) rc: 0.94
2p( 3.00) rc: 0.59
3d( 0.00) rc: 3.46
4f( 0.00) rc: 2.47
Ground state valence configuration:   3s02  3p02
Reading pseudopotential information in formatted form from Si.psf

Pseudopotential generated from a relativistic atomic calculation

Valence configuration for pseudopotential generation:
3s( 2.00) rc: 1.67
3p( 2.00) rc: 2.04
3d( 0.00) rc: 2.89
4f( 0.00) rc: 2.49
Ground state valence configuration:   2s02  2p04
Reading pseudopotential information in formatted form from O.psf

Pseudopotential generated from a relativistic atomic calculation

Valence configuration for pseudopotential generation:
2s( 2.00) rc: 0.45
2p( 4.00) rc: 0.92
3d( 0.00) rc: 2.24
4f( 0.00) rc: 0.25
For H, standard SIESTA heuristics set lmxkb to 2
 (one more than the basis l, including polarization orbitals).
Use PS.lmax or PS.KBprojectors blocks to override.
For N, standard SIESTA heuristics set lmxkb to 3
 (one more than the basis l, including polarization orbitals).
Use PS.lmax or PS.KBprojectors blocks to override.
For Si, standard SIESTA heuristics set lmxkb to 3
 (one more than the basis l, including polarization orbitals).
Use PS.lmax or PS.KBprojectors blocks to override.
For O, standard SIESTA heuristics set lmxkb to 3
 (one more than the basis l, including polarization orbitals).
Use PS.lmax or PS.KBprojectors blocks to override.

<basis_specs>
===============================================================================
H                    Z=   1    Mass=  1.0100        Charge= 0.17977+309
Lmxo=0 Lmxkb= 2    BasisType=split      Semic=F
L=0  Nsemic=0  Cnfigmx=1
          i=1  nzeta=2  polorb=1  (1s)
            splnorm:   0.62000    
               vcte:    0.0000    
               rinn:    0.0000    
               qcoe:    0.0000    
               qyuk:    0.0000    
               qwid:   0.10000E-01
                rcs:    0.0000      0.0000    
            lambdas:    1.0000      1.0000    
-------------------------------------------------------------------------------
L=0  Nkbl=1  erefs: 0.17977+309
L=1  Nkbl=1  erefs: 0.17977+309
L=2  Nkbl=1  erefs: 0.17977+309
===============================================================================
</basis_specs>

atom: Called for H                     (Z =   1)

read_vps: Pseudopotential generation method:
read_vps: ATM4.2.7  Troullier-Martins                       
Valence charge for ps generation:    1.00000

xc_check: Exchange-correlation functional:
xc_check: GGA Perdew, Burke & Ernzerhof 1996
V l=0 = -2*Zval/r beyond r=  0.0098
V l=1 = -2*Zval/r beyond r=  0.5817
V l=2 = -2*Zval/r beyond r=  1.9372
All V_l potentials equal beyond r=  1.9372
This should be close to max(r_c) in ps generation
All pots = -2*Zval/r beyond r=  1.9372

VLOCAL1: 99.0% of the norm of Vloc inside     11.567 Ry
VLOCAL1: 99.9% of the norm of Vloc inside     26.362 Ry
atom: Maximum radius for 4*pi*r*r*local-pseudopot. charge    2.25106
atom: Maximum radius for r*vlocal+2*Zval:    1.91306
GHOST: No ghost state for L =  0
GHOST: No ghost state for L =  1
GHOST: No ghost state for L =  2

KBgen: Kleinman-Bylander projectors: 
   l= 0   rc=  2.036604   el= -0.477180   Ekb= -6.081590   kbcos= -0.277285
   l= 1   rc=  2.195416   el=  0.001076   Ekb= -0.926943   kbcos= -0.034643
   l= 2   rc=  2.251056   el=  0.002010   Ekb= -0.130941   kbcos= -0.009788

KBgen: Total number of Kleinman-Bylander projectors:    9
atom: -------------------------------------------------------------------------

atom: SANKEY-TYPE ORBITALS:
atom: Selected multiple-zeta basis: split     

SPLIT: Orbitals with angular momentum L= 0

SPLIT: Basis orbitals for state 1s

SPLIT: PAO cut-off radius determined from an
SPLIT: energy shift=  0.002000 Ry

   izeta = 1
                 lambda =    1.000000
                     rc =    6.518340
                 energy =   -0.475305
                kinetic =    0.912139
    potential(screened) =   -1.387444
       potential(ionic) =   -1.907295

   izeta = 2
                 rmatch =    2.141150
              splitnorm =    0.620000
                 energy =    0.566467
                kinetic =    3.772856
    potential(screened) =   -3.206389
       potential(ionic) =   -3.759093

POLgen: Perturbative polarization orbital with L=  1

POLgen: Polarization orbital for state 1s

   izeta = 1
                     rc =    6.518340
                 energy =    0.533861
                kinetic =    1.121086
    potential(screened) =   -0.587225
       potential(ionic) =   -1.053027
atom: Total number of Sankey-type orbitals:  5

atm_pop: Valence configuration (for local Pseudopot. screening):
 1s( 1.00)                                                            
Vna: chval, zval:    1.00000   1.00000

Vna:  Cut-off radius for the neutral-atom potential:   6.518340

atom: _________________________________________________________________________

<basis_specs>
===============================================================================
N                    Z=   7    Mass=  14.010        Charge= 0.17977+309
Lmxo=1 Lmxkb= 3    BasisType=split      Semic=F
L=0  Nsemic=0  Cnfigmx=2
          i=1  nzeta=2  polorb=0  (2s)
            splnorm:   0.28000    
               vcte:    0.0000    
               rinn:    0.0000    
               qcoe:    0.0000    
               qyuk:    0.0000    
               qwid:   0.10000E-01
                rcs:    0.0000      0.0000    
            lambdas:    1.0000      1.0000    
L=1  Nsemic=0  Cnfigmx=2
          i=1  nzeta=2  polorb=1  (2p)
            splnorm:   0.28000    
               vcte:    0.0000    
               rinn:    0.0000    
               qcoe:    0.0000    
               qyuk:    0.0000    
               qwid:   0.10000E-01
                rcs:    0.0000      0.0000    
            lambdas:    1.0000      1.0000    
-------------------------------------------------------------------------------
L=0  Nkbl=1  erefs: 0.17977+309
L=1  Nkbl=1  erefs: 0.17977+309
L=2  Nkbl=1  erefs: 0.17977+309
L=3  Nkbl=1  erefs: 0.17977+309
===============================================================================
</basis_specs>

atom: Called for N                     (Z =   7)

read_vps: Pseudopotential generation method:
read_vps: ATM4.2.7  Troullier-Martins                       
Valence charge for ps generation:    5.00000

xc_check: Exchange-correlation functional:
xc_check: GGA Perdew, Burke & Ernzerhof 1996
V l=0 = -2*Zval/r beyond r=  1.2889
V l=1 = -2*Zval/r beyond r=  1.2889
V l=2 = -2*Zval/r beyond r=  3.4178
V l=3 = -2*Zval/r beyond r=  2.4084
All V_l potentials equal beyond r=  3.3753
This should be close to max(r_c) in ps generation
All pots = -2*Zval/r beyond r=  3.4178

VLOCAL1: 99.0% of the norm of Vloc inside      3.810 Ry
VLOCAL1: 99.9% of the norm of Vloc inside      8.683 Ry
atom: Maximum radius for 4*pi*r*r*local-pseudopot. charge    4.02088
atom: Maximum radius for r*vlocal+2*Zval:    3.54838
GHOST: No ghost state for L =  0
GHOST: No ghost state for L =  1
GHOST: No ghost state for L =  2
GHOST: No ghost state for L =  3

KBgen: Kleinman-Bylander projectors: 
   l= 0   rc=  3.417763   el= -1.365098   Ekb= -4.433130   kbcos= -0.707855
   l= 1   rc=  3.375302   el= -0.521201   Ekb=-13.264039   kbcos= -0.535594
   l= 2   rc=  3.872880   el=  0.001991   Ekb= -0.641094   kbcos= -0.062456
   l= 3   rc=  3.970931   el=  0.003093   Ekb= -0.474517   kbcos= -0.018236

KBgen: Total number of Kleinman-Bylander projectors:   16
atom: -------------------------------------------------------------------------

atom: SANKEY-TYPE ORBITALS:
atom: Selected multiple-zeta basis: split     

SPLIT: Orbitals with angular momentum L= 0

SPLIT: Basis orbitals for state 2s

SPLIT: PAO cut-off radius determined from an
SPLIT: energy shift=  0.002000 Ry

   izeta = 1
                 lambda =    1.000000
                     rc =    4.730425
                 energy =   -1.363399
                kinetic =    1.245246
    potential(screened) =   -2.608645
       potential(ionic) =   -8.121105

   izeta = 2
                 rmatch =    2.531849
              splitnorm =    0.280000
                 energy =   -0.959908
                kinetic =    2.409435
    potential(screened) =   -3.369343
       potential(ionic) =   -9.427975

SPLIT: Orbitals with angular momentum L= 1

SPLIT: Basis orbitals for state 2p

SPLIT: PAO cut-off radius determined from an
SPLIT: energy shift=  0.002000 Ry

   izeta = 1
                 lambda =    1.000000
                     rc =    5.924108
                 energy =   -0.519262
                kinetic =    3.672940
    potential(screened) =   -4.192202
       potential(ionic) =   -9.518354

   izeta = 2
                 rmatch =    2.531849
              splitnorm =    0.280000
                 energy =   -0.104258
                kinetic =    6.807538
    potential(screened) =   -6.911796
       potential(ionic) =  -13.149920

POLgen: Perturbative polarization orbital with L=  2

POLgen: Polarization orbital for state 2p

   izeta = 1
                     rc =    5.924108
                 energy =    1.427508
                kinetic =    2.872379
    potential(screened) =   -1.444871
       potential(ionic) =   -5.563644
atom: Total number of Sankey-type orbitals: 13

atm_pop: Valence configuration (for local Pseudopot. screening):
 2s( 2.00)                                                            
 2p( 3.00)                                                            
Vna: chval, zval:    5.00000   5.00000

Vna:  Cut-off radius for the neutral-atom potential:   5.924108

atom: _________________________________________________________________________

<basis_specs>
===============================================================================
Si                   Z=  14    Mass=  28.090        Charge= 0.17977+309
Lmxo=1 Lmxkb= 3    BasisType=split      Semic=F
L=0  Nsemic=0  Cnfigmx=3
          i=1  nzeta=2  polorb=0  (3s)
            splnorm:   0.28000    
               vcte:    0.0000    
               rinn:    0.0000    
               qcoe:    0.0000    
               qyuk:    0.0000    
               qwid:   0.10000E-01
                rcs:    0.0000      0.0000    
            lambdas:    1.0000      1.0000    
L=1  Nsemic=0  Cnfigmx=3
          i=1  nzeta=2  polorb=1  (3p)
            splnorm:   0.28000    
               vcte:    0.0000    
               rinn:    0.0000    
               qcoe:    0.0000    
               qyuk:    0.0000    
               qwid:   0.10000E-01
                rcs:    0.0000      0.0000    
            lambdas:    1.0000      1.0000    
-------------------------------------------------------------------------------
L=0  Nkbl=1  erefs: 0.17977+309
L=1  Nkbl=1  erefs: 0.17977+309
L=2  Nkbl=1  erefs: 0.17977+309
L=3  Nkbl=1  erefs: 0.17977+309
===============================================================================
</basis_specs>

atom: Called for Si                    (Z =  14)

read_vps: Pseudopotential generation method:
read_vps: ATM4.2.7  Troullier-Martins                       
Valence charge for ps generation:    4.00000

xc_check: Exchange-correlation functional:
xc_check: GGA Perdew, Burke & Ernzerhof 1996
V l=0 = -2*Zval/r beyond r=  2.7826
V l=1 = -2*Zval/r beyond r=  2.7826
V l=2 = -2*Zval/r beyond r=  2.9253
V l=3 = -2*Zval/r beyond r=  2.7826
All V_l potentials equal beyond r=  2.8530
This should be close to max(r_c) in ps generation
All pots = -2*Zval/r beyond r=  2.9253

VLOCAL1: 99.0% of the norm of Vloc inside      5.333 Ry
VLOCAL1: 99.9% of the norm of Vloc inside     12.154 Ry
atom: Maximum radius for 4*pi*r*r*local-pseudopot. charge    3.39869
atom: Maximum radius for r*vlocal+2*Zval:    2.96205
GHOST: No ghost state for L =  0
GHOST: No ghost state for L =  1
GHOST: No ghost state for L =  2
GHOST: No ghost state for L =  3

KBgen: Kleinman-Bylander projectors: 
   l= 0   rc=  3.075247   el= -0.794092   Ekb=  5.879390   kbcos=  0.167461
   l= 1   rc=  3.153101   el= -0.300068   Ekb=  2.642817   kbcos=  0.058301
   l= 2   rc=  3.273594   el=  0.001958   Ekb= -1.185135   kbcos= -0.104411
   l= 3   rc=  3.232927   el=  0.003046   Ekb= -0.497174   kbcos= -0.015889

KBgen: Total number of Kleinman-Bylander projectors:   16
atom: -------------------------------------------------------------------------

atom: SANKEY-TYPE ORBITALS:
atom: Selected multiple-zeta basis: split     

SPLIT: Orbitals with angular momentum L= 0

SPLIT: Basis orbitals for state 3s

SPLIT: PAO cut-off radius determined from an
SPLIT: energy shift=  0.002000 Ry

   izeta = 1
                 lambda =    1.000000
                     rc =    6.429618
                 energy =   -0.792283
                kinetic =    0.525293
    potential(screened) =   -1.317576
       potential(ionic) =   -3.744923

   izeta = 2
                 rmatch =    3.998416
              splitnorm =    0.280000
                 energy =   -0.583081
                kinetic =    1.069570
    potential(screened) =   -1.652651
       potential(ionic) =   -4.235185

SPLIT: Orbitals with angular momentum L= 1

SPLIT: Basis orbitals for state 3p

SPLIT: PAO cut-off radius determined from an
SPLIT: energy shift=  0.002000 Ry

   izeta = 1
                 lambda =    1.000000
                     rc =    8.464845
                 energy =   -0.298236
                kinetic =    0.785360
    potential(screened) =   -1.083596
       potential(ionic) =   -3.273779

   izeta = 2
                 rmatch =    4.587816
              splitnorm =    0.280000
                 energy =   -0.131871
                kinetic =    1.403687
    potential(screened) =   -1.535557
       potential(ionic) =   -4.015310

POLgen: Perturbative polarization orbital with L=  2

POLgen: Polarization orbital for state 3p

   izeta = 1
                     rc =    8.464845
                 energy =    0.321949
                kinetic =    1.055677
    potential(screened) =   -0.733728
       potential(ionic) =   -2.672950
atom: Total number of Sankey-type orbitals: 13

atm_pop: Valence configuration (for local Pseudopot. screening):
 3s( 2.00)                                                            
 3p( 2.00)                                                            
Vna: chval, zval:    4.00000   4.00000

Vna:  Cut-off radius for the neutral-atom potential:   8.464845

atom: _________________________________________________________________________

<basis_specs>
===============================================================================
O                    Z=   8    Mass=  16.000        Charge= 0.17977+309
Lmxo=1 Lmxkb= 3    BasisType=split      Semic=F
L=0  Nsemic=0  Cnfigmx=2
          i=1  nzeta=2  polorb=0  (2s)
            splnorm:   0.28000    
               vcte:    0.0000    
               rinn:    0.0000    
               qcoe:    0.0000    
               qyuk:    0.0000    
               qwid:   0.10000E-01
                rcs:    0.0000      0.0000    
            lambdas:    1.0000      1.0000    
L=1  Nsemic=0  Cnfigmx=2
          i=1  nzeta=2  polorb=1  (2p)
            splnorm:   0.28000    
               vcte:    0.0000    
               rinn:    0.0000    
               qcoe:    0.0000    
               qyuk:    0.0000    
               qwid:   0.10000E-01
                rcs:    0.0000      0.0000    
            lambdas:    1.0000      1.0000    
-------------------------------------------------------------------------------
L=0  Nkbl=1  erefs: 0.17977+309
L=1  Nkbl=1  erefs: 0.17977+309
L=2  Nkbl=1  erefs: 0.17977+309
L=3  Nkbl=1  erefs: 0.17977+309
===============================================================================
</basis_specs>

atom: Called for O                     (Z =   8)

read_vps: Pseudopotential generation method:
read_vps: ATM4.2.7  Troullier-Martins                       
Valence charge for ps generation:    6.00000

xc_check: Exchange-correlation functional:
xc_check: GGA Perdew, Burke & Ernzerhof 1996
V l=0 = -2*Zval/r beyond r=  1.1000
V l=1 = -2*Zval/r beyond r=  1.1000
V l=2 = -2*Zval/r beyond r=  2.2154
V l=3 = -2*Zval/r beyond r=  1.1000
All V_l potentials equal beyond r=  2.2154
This should be close to max(r_c) in ps generation
All pots = -2*Zval/r beyond r=  2.2154

VLOCAL1: 99.0% of the norm of Vloc inside      8.845 Ry
VLOCAL1: 99.9% of the norm of Vloc inside     20.157 Ry
atom: Maximum radius for 4*pi*r*r*local-pseudopot. charge    2.67231
atom: Maximum radius for r*vlocal+2*Zval:    2.32897
GHOST: No ghost state for L =  0
GHOST: No ghost state for L =  1
GHOST: No ghost state for L =  2
GHOST: No ghost state for L =  3

KBgen: Kleinman-Bylander projectors: 
   l= 0   rc=  2.243238   el= -1.759686   Ekb=**********   kbcos= -0.171774
   l= 1   rc=  2.328968   el= -0.663873   Ekb=-14.506792   kbcos= -0.519897
   l= 2   rc=  2.573941   el=  0.002031   Ekb= -1.137373   kbcos= -0.019581
   l= 3   rc=  2.606321   el=  0.003153   Ekb= -1.013546   kbcos= -0.003122

KBgen: Total number of Kleinman-Bylander projectors:   16
atom: -------------------------------------------------------------------------

atom: SANKEY-TYPE ORBITALS:
atom: Selected multiple-zeta basis: split     

SPLIT: Orbitals with angular momentum L= 0

SPLIT: Basis orbitals for state 2s

SPLIT: PAO cut-off radius determined from an
SPLIT: energy shift=  0.002000 Ry

   izeta = 1
                 lambda =    1.000000
                     rc =    4.243912
                 energy =   -1.758270
                kinetic =    3.286084
    potential(screened) =   -5.044353
       potential(ionic) =  -12.921184

   izeta = 2
                 rmatch =    2.187845
              splitnorm =    0.280000
                 energy =   -0.885018
                kinetic =    8.134434
    potential(screened) =   -9.019452
       potential(ionic) =  -17.710645

SPLIT: Orbitals with angular momentum L= 1

SPLIT: Basis orbitals for state 2p

SPLIT: PAO cut-off radius determined from an
SPLIT: energy shift=  0.002000 Ry

   izeta = 1
                 lambda =    1.000000
                     rc =    5.314825
                 energy =   -0.661986
                kinetic =    4.917472
    potential(screened) =   -5.579458
       potential(ionic) =  -13.236259

   izeta = 2
                 rmatch =    2.160663
              splitnorm =    0.280000
                 energy =   -0.068760
                kinetic =    9.183374
    potential(screened) =   -9.252135
       potential(ionic) =  -18.274251

POLgen: Perturbative polarization orbital with L=  2

POLgen: Polarization orbital for state 2p

   izeta = 1
                     rc =    5.314825
                 energy =    1.970580
                kinetic =    3.886128
    potential(screened) =   -1.915547
       potential(ionic) =   -7.749584
atom: Total number of Sankey-type orbitals: 13

atm_pop: Valence configuration (for local Pseudopot. screening):
 2s( 2.00)                                                            
 2p( 4.00)                                                            
Vna: chval, zval:    6.00000   6.00000

Vna:  Cut-off radius for the neutral-atom potential:   5.314825

atom: _________________________________________________________________________

prinput: Basis input ----------------------------------------------------------

PAO.BasisType split     

%block ChemicalSpeciesLabel
    1    1 H                       # Species index, atomic number, species label
    2    7 N                       # Species index, atomic number, species label
    3   14 Si                      # Species index, atomic number, species label
    4    8 O                       # Species index, atomic number, species label
%endblock ChemicalSpeciesLabel

%block PAO.Basis                 # Define Basis set
H                     1                    # Species label, number of l-shells
 n=1   0   2 P   1                   # n, l, Nzeta, Polarization, NzetaPol
   6.518      2.141   
   1.000      1.000   
N                     2                    # Species label, number of l-shells
 n=2   0   2                         # n, l, Nzeta 
   4.730      2.532   
   1.000      1.000   
 n=2   1   2 P   1                   # n, l, Nzeta, Polarization, NzetaPol
   5.924      2.532   
   1.000      1.000   
Si                    2                    # Species label, number of l-shells
 n=3   0   2                         # n, l, Nzeta 
   6.430      3.998   
   1.000      1.000   
 n=3   1   2 P   1                   # n, l, Nzeta, Polarization, NzetaPol
   8.465      4.588   
   1.000      1.000   
O                     2                    # Species label, number of l-shells
 n=2   0   2                         # n, l, Nzeta 
   4.244      2.188   
   1.000      1.000   
 n=2   1   2 P   1                   # n, l, Nzeta, Polarization, NzetaPol
   5.315      2.161   
   1.000      1.000   
%endblock PAO.Basis

prinput: ----------------------------------------------------------------------

Dumping basis to NetCDF file H.ion.nc
Dumping basis to NetCDF file N.ion.nc
Dumping basis to NetCDF file Si.ion.nc
Dumping basis to NetCDF file O.ion.nc
coor:   Atomic-coordinates input format  =     Cartesian coordinates
coor:                                          (in Angstroms)

siesta: Atomic coordinates (Bohr) and species
siesta:     -0.43479  10.35461   0.00000  1        1
siesta:     -1.76986   8.86165   0.00000  2        2
siesta:     -5.03963   9.69571   0.00000  3        3
siesta:     -5.33401  12.51139   0.00000  1        4
siesta:     -7.91829   6.74980   0.00000  3        5
siesta:    -10.72111   7.20869   0.00000  1        6
siesta:     -5.65366   3.13423   0.00000  3        7
siesta:     -7.10123   0.23782   0.00000  2        8
siesta:     -5.98583  -1.57105   0.00000  1        9
siesta:     -9.08851   0.08577   0.00000  1       10
siesta:     -2.41051   3.23850   0.00000  2       11
siesta:     -0.37901   5.75247   0.00000  3       12
siesta:      2.66095   5.71693   0.00000  4       13
siesta:     10.61355 -14.07759   0.00000  1       14
siesta:      8.65886 -13.66658   0.00000  2       15
siesta:      6.22979 -16.04876   0.00000  3       16
siesta:      7.18318 -18.71532  -0.00000  1       17
siesta:      3.13570 -15.14356   0.00000  2       18
siesta:      3.17659 -11.72506  -0.00000  3       19
siesta:      1.03072  -8.10005   0.00000  3       20
siesta:     -1.95457  -7.45403   0.00000  4       21
siesta:      3.27352  -5.43711   0.00000  2       22
siesta:      2.28576  -3.64645  -0.00000  1       23
siesta:      6.63017  -5.24735   0.00000  3       24
siesta:      7.81751  -2.22872   0.00000  2       25
siesta:      6.69523  -0.49602   0.00000  1       26
siesta:      9.79567  -1.98858  -0.00000  1       27
siesta:      8.75489  -7.70105  -0.00000  2       28
siesta:      7.16982 -10.55666   0.00000  3       29

siesta: Automatic unit cell vectors (Ang):
siesta:   20.007375    0.000000    0.000000
siesta:    0.000000   25.765488    0.000000
siesta:    0.000000    0.000000    9.854683

siesta: System type = molecule  

initatomlists: Number of atoms, orbitals, and projectors:     29   297   394

siesta: ******************** Simulation parameters ****************************
siesta:
siesta: The following are some of the parameters of the simulation.
siesta: A complete list of the parameters used, including default values,
siesta: can be found in file out.fdf
siesta:
redata: Spin configuration                          = spin-orbit
redata: Number of spin components                   = 8
redata: Time-Reversal Symmetry                      = F
redata: Spin spiral                                 = F
############################################################
This spin-orbit implementation uses a local approximation.
From 4.2 and onwards the full non-local approximation is implemented
You are strongly advised to use >=4.2 versions!
############################################################
redata: Long output                                 =   F
redata: Number of Atomic Species                    =        4
redata: Charge density info will appear in .RHO file
redata: Write Mulliken Pop.                         = NO
redata: Matel table size (NRTAB)                    =     1024
redata: Mesh Cutoff                                 =   340.0000 Ry
redata: Net charge of the system                    =     0.0000 |e|
redata: Min. number of SCF Iter                     =        1
redata: Max. number of SCF Iter                     =      600
redata: SCF convergence failure will abort job
redata: SCF mix quantity                            = Hamiltonian
redata: Mix DM or H after convergence               =   F
redata: Recompute H after scf cycle                 =   F
redata: Mix DM in first SCF step                    =   T
redata: Write Pulay info on disk                    =   F
redata: New DM Occupancy tolerance                  = 0.000000000001
redata: No kicks to SCF
redata: DM Mixing Weight for Kicks                  =     0.5000
redata: Require Harris convergence for SCF          =   F
redata: Harris energy tolerance for SCF             =     0.000100 eV
redata: Require DM convergence for SCF              =   T
redata: DM tolerance for SCF                        =     0.000008
redata: Require EDM convergence for SCF             =   F
redata: EDM tolerance for SCF                       =     0.001000 eV
redata: Require H convergence for SCF               =   T
redata: Hamiltonian tolerance for SCF               =     0.000001 eV
redata: Require (free) Energy convergence for SCF   =   F
redata: (free) Energy tolerance for SCF             =     0.000100 eV
redata: Using Saved Data (generic)                  =   F
redata: Use continuation files for DM               =   T
redata: Neglect nonoverlap interactions             =   F
redata: Method of Calculation                       = Diagonalization
redata: Electronic Temperature                      =   299.9978 K
redata: Fix the spin of the system                  =   F
redata: Dynamics option                             = Single-point calculation
mix.SCF: Pulay mixing                            = Pulay
mix.SCF:    Variant                              = stable
mix.SCF:    History steps                        = 6
mix.SCF:    Linear mixing weight                 =     0.250000
mix.SCF:    Mixing weight                        =     0.250000
mix.SCF:    SVD condition                        = 0.1000E-07
mix.SCF:    Restart steps                        = 24
mix.SCF:    Restart save steps                   = 3
mix.SCF: Spin-component mixing                   all
redata: Save all siesta data in one NC              =   F
redata: ***********************************************************************

%block SCF.Mixers
  Pulay
%endblock SCF.Mixers

%block SCF.Mixer.Pulay
  # Mixing method
  method pulay
  variant stable

  # Mixing options
  weight 0.2500
  weight.linear 0.2500
  history 6
  restart 24
  restart.save 3
%endblock SCF.Mixer.Pulay

DM_history_depth set to one: no extrapolation allowed by default for geometry relaxation
Size of DM history Fstack: 1
Total number of electrons:    98.000000
Total ionic charge:    98.000000

* ProcessorY, Blocksize:    2  24


* Orbital distribution balance (max,min):    57    48


Time-reversal symmetry not used.

siesta: k-grid: Number of k-points =     1
siesta: k-grid: Cutoff (effective) =     4.927 Ang
siesta: k-grid: Supercell and displacements
siesta: k-grid:    1   0   0      0.000
siesta: k-grid:    0   1   0      0.000
siesta: k-grid:    0   0   1      0.000

diag: Algorithm                                     = ELPA-1stage
diag: Parallel over k                               =   F
diag: Use parallel 2D distribution                  =   T
diag: Parallel block-size                           = 24
diag: Parallel distribution                         =     2 x     3
diag: Used triangular part                          = Lower
diag: Absolute tolerance                            =  0.100E-15
diag: Orthogonalization factor                      =  0.100E-05
diag: Memory factor                                 =  1.0000


ts: **************************************************************
ts: Save H and S matrices                           =    F
ts: Save DM and EDM matrices                        =    F
ts: Only save the overlap matrix S                  =    F
ts: **************************************************************

************************ Begin: TS CHECKS AND WARNINGS ************************
************************ End: TS CHECKS AND WARNINGS **************************


                     ====================================
                        Single-point calculation
                     ====================================

outcoor: Atomic coordinates (Ang):                          
   -0.23008027    5.47942007    0.00000000   1       1  H
   -0.93656700    4.68938389    0.00000000   2       2  N
   -2.66685391    5.13074780    0.00000000   3       3  Si
   -2.82263359    6.62074006    0.00000000   1       4  H
   -4.19017553    3.57184028    0.00000000   3       5  Si
   -5.67336316    3.81467064    0.00000000   1       6  H
   -2.99178467    1.65856412    0.00000000   3       7  Si
   -3.75781013    0.12584738    0.00000000   2       8  N
   -3.16756358   -0.83136565    0.00000000   1       9  H
   -4.80943245    0.04538715    0.00000000   1      10  H
   -1.27558461    1.71373843    0.00000000   2      11  N
   -0.20056199    3.04407727    0.00000000   3      12  Si
    1.40811133    3.02526701    0.00000000   4      13  O
    5.61644830   -7.44953905    0.00000000   1      14  H
    4.58206954   -7.23203760    0.00000000   2      15  N
    3.29666389   -8.49263600    0.00000000   3      16  Si
    3.80117524   -9.90371886    0.00000000   1      17  H
    1.65934232   -8.01362137    0.00000000   2      18  N
    1.68097912   -6.20463398    0.00000000   3      19  Si
    0.54543521   -4.28636135    0.00000000   3      20  Si
   -1.03431493   -3.94450034    0.00000000   4      21  O
    1.73226934   -2.87719605    0.00000000   2      22  N
    1.20957366   -1.92961761    0.00000000   1      23  H
    3.50853448   -2.77677601    0.00000000   3      24  Si
    4.13684451   -1.17938608    0.00000000   2      25  N
    3.54296161   -0.26248101    0.00000000   1      26  H
    5.18364407   -1.05231197    0.00000000   1      27  H
    4.63288658   -4.07521596    0.00000000   2      28  N
    3.79410501   -5.58634043    0.00000000   3      29  Si

outcell: Unit cell vectors (Ang):
       20.007375    0.000000    0.000000
        0.000000   25.765488    0.000000
        0.000000    0.000000    9.854683

outcell: Cell vector modules (Ang)   :   20.007375   25.765488    9.854683
outcell: Cell angles (23,13,12) (deg):     90.0000     90.0000     90.0000
outcell: Cell volume (Ang**3)        :   5080.0871
<dSpData1D:S at geom step 0
  <sparsity:sparsity for geom step 0
    nrows_g=297 nrows=57 sparsity=.1071 nnzs=9445, refcount: 8>
  <dData1D:(new from dSpData1D) n=9445, refcount: 1>
refcount: 1>
new_DM -- step:     1
Initializing Density Matrix...

Attempting to read DM from file... Failed...
DM filled with atomic data:
<dSpData2D:DM initialized from atoms
  <sparsity:sparsity for geom step 0
    nrows_g=297 nrows=57 sparsity=.1071 nnzs=9445, refcount: 9>
  <dData2D:DM n=9445 m=8, refcount: 1>
refcount: 1>
     spin moment: S , {S} =   56.00000   0.00000   0.00000  56.00000
No. of atoms with KB's overlaping orbs in proc 0. Max # of overlaps:      28     162

Initializing spin-orbit part of the Hamiltonian
  Adding spin-orbit effects for H 
  Adding spin-orbit effects for N 
  Adding spin-orbit effects for Si
  Adding spin-orbit effects for O 


New grid distribution:   1
           1       1:  120    1:   72    1:   20
           2       1:  120    1:   72   21:   40
           3       1:  120    1:   72   41:   60
           4       1:  120   73:  144    1:   20
           5       1:  120   73:  144   21:   40
           6       1:  120   73:  144   41:   60

InitMesh: MESH =   240 x   288 x   120 =     8294400
InitMesh: (bp) =   120 x   144 x    60 =     1036800
InitMesh: Mesh cutoff (required, used) =   340.000   345.311 Ry
ExtMesh (bp) on 0 =   228 x   176 x   132 =     5296896
New grid distribution:   2
           1      38:  120   20:  102    1:   60
           2      38:  120    1:   19    1:   60
           3       1:   16  103:  144    1:   60
           4      17:  120  123:  144    1:   60
           5       1:   37    1:  102    1:   60
           6      17:  120  103:  122    1:   60
New grid distribution:   3
           1      31:  120   24:   89    1:   60
           2       1:   30    1:   89    1:   60
           3      31:  120    1:   23    1:   60
           4       1:   22   90:  144    1:   60
           5      23:  120   90:  121    1:   60
           6      23:  120  122:  144    1:   60
Setting up quadratic distribution...
ExtMesh (bp) on 0 =   191 x   187 x   172 =     6143324
PhiOnMesh: Number of (b)points on node 0 =               413340
PhiOnMesh: nlist on node 0 =              1913495

stepf: Fermi-Dirac step function

siesta: Program's energy decomposition (eV):
siesta: Ebs     =      -618.478000
siesta: Eions   =      3585.165840
siesta: Ena     =       381.827741
siesta: Ekin    =      3368.855131
siesta: Enl     =     -3297.233818
siesta: Eso     =        -0.003409
siesta: Edftu   =         0.000000
siesta: DEna    =       153.451085
siesta: DUscf   =        81.355488
siesta: DUext   =         0.000000
siesta: Exc     =     -1204.048290
siesta: eta*DQ  =         0.000000
siesta: Emadel  =         0.000000
siesta: Emeta   =         0.000000
siesta: Emolmec =         0.000000
siesta: Ekinion =         0.000000
siesta: Eharris =     -4022.184855
siesta: Etot    =     -4100.961911
siesta: FreeEng =     -4100.962947

        iscf     Eharris(eV)        E_KS(eV)     FreeEng(eV)     dDmax    Ef(eV) dHmax(eV)
   scf:    1    -4022.184855    -4100.961911    -4100.962947  0.965582 -4.903622 21.842681
     spin moment: S , {S} =    2.00583   0.00000   0.00000   2.00583
timer: Routine,Calls,Time,% = IterSCF        1       6.163  24.13
   scf:    2    -4147.954588    -4136.430103    -4136.432063  0.453913 -4.207440 11.858885
     spin moment: S , {S} =    1.98922  -0.00000  -0.00000   1.98922
   scf:    3    -4109.748135    -4134.215735    -4134.222463  0.425085 -4.325459 11.641975
     spin moment: S , {S} =    2.01018  -0.00000   0.00000   2.01018
   scf:    4    -4149.731734    -4145.201083    -4145.201083  0.322578 -3.899485  6.781829
     spin moment: S , {S} =    0.00010   0.00000   0.00000   0.00010
   scf:    5    -4146.452146    -4145.926350    -4145.926350  0.034857 -3.700968  4.339812
     spin moment: S , {S} =    0.00006  -0.00000  -0.00000   0.00006
   scf:    6    -4146.713283    -4146.328932    -4146.328932  0.024620 -3.660886  2.106884
     spin moment: S , {S} =    0.00003  -0.00000  -0.00000   0.00003
   scf:    7    -4146.679108    -4146.500864    -4146.500864  0.020994 -3.684851  0.888179
     spin moment: S , {S} =    0.00001   0.00000   0.00000   0.00001
   scf:    8    -4146.621944    -4146.559445    -4146.559445  0.012516 -3.760242  0.485209
     spin moment: S , {S} =    0.00000   0.00000   0.00000   0.00000
   scf:    9    -4146.597112    -4146.577634    -4146.577634  0.006511 -3.719951  0.355195
     spin moment: S , {S} =    0.00000   0.00000  -0.00000   0.00000
   scf:   10    -4146.627442    -4146.597213    -4146.597213  0.020123 -3.783049  0.216153
     spin moment: S , {S} =    0.00000   0.00000   0.00000  -0.00000
   scf:   11    -4146.600783    -4146.598935    -4146.598935  0.005779 -3.772908  0.058282
     spin moment: S , {S} =    0.00000   0.00000  -0.00000  -0.00000
   scf:   12    -4146.599826    -4146.599393    -4146.599393  0.001101 -3.768344  0.023227
     spin moment: S , {S} =    0.00000   0.00000  -0.00000   0.00000
   scf:   13    -4146.599793    -4146.599590    -4146.599590  0.001303 -3.765633  0.016068
     spin moment: S , {S} =    0.00000  -0.00000  -0.00000   0.00000
   scf:   14    -4146.599832    -4146.599704    -4146.599704  0.001290 -3.764989  0.012777
     spin moment: S , {S} =    0.00000  -0.00000  -0.00000   0.00000
   scf:   15    -4146.599825    -4146.599759    -4146.599759  0.001105 -3.764960  0.009431
     spin moment: S , {S} =    0.00000  -0.00000  -0.00000   0.00000
   scf:   16    -4146.599843    -4146.599796    -4146.599796  0.001141 -3.765120  0.006144
     spin moment: S , {S} =    0.00000  -0.00000  -0.00000   0.00000
   scf:   17    -4146.599821    -4146.599807    -4146.599807  0.000631 -3.765098  0.004270
     spin moment: S , {S} =    0.00000  -0.00000  -0.00000   0.00000
   scf:   18    -4146.599818    -4146.599812    -4146.599812  0.000437 -3.765093  0.002281
     spin moment: S , {S} =    0.00000  -0.00000  -0.00000   0.00000
   scf:   19    -4146.599816    -4146.599814    -4146.599814  0.000280 -3.765123  0.001272
     spin moment: S , {S} =    0.00000  -0.00000  -0.00000   0.00000
   scf:   20    -4146.599815    -4146.599814    -4146.599814  0.000153 -3.765150  0.000736
     spin moment: S , {S} =    0.00000  -0.00000  -0.00000   0.00000
   scf:   21    -4146.599815    -4146.599814    -4146.599814  0.000128 -3.765170  0.000254
     spin moment: S , {S} =    0.00000  -0.00000  -0.00000   0.00000
   scf:   22    -4146.599815    -4146.599815    -4146.599815  0.000049 -3.765160  0.000140
     spin moment: S , {S} =    0.00000  -0.00000  -0.00000   0.00000
   scf:   23    -4146.599815    -4146.599815    -4146.599815  0.000010 -3.765153  0.000095
     spin moment: S , {S} =    0.00000  -0.00000  -0.00000   0.00000
   scf:   24    -4146.599815    -4146.599815    -4146.599815  0.000004 -3.765146  0.000056
     spin moment: S , {S} =    0.00000  -0.00000  -0.00000   0.00000
mix: Pulay -- resetting history
   scf:   25    -4146.599815    -4146.599815    -4146.599815  0.000003 -3.765142  0.000042
     spin moment: S , {S} =    0.00000  -0.00000  -0.00000   0.00000
   scf:   26    -4146.599815    -4146.599815    -4146.599815  0.000004 -3.765141  0.000024
     spin moment: S , {S} =    0.00000  -0.00000  -0.00000  -0.00000
   scf:   27    -4146.599815    -4146.599815    -4146.599815  0.000003 -3.765141  0.000012
     spin moment: S , {S} =    0.00000  -0.00000  -0.00000  -0.00000
   scf:   28    -4146.599815    -4146.599815    -4146.599815  0.000001 -3.765141  0.000005
     spin moment: S , {S} =    0.00000  -0.00000  -0.00000  -0.00000
   scf:   29    -4146.599815    -4146.599815    -4146.599815  0.000000 -3.765141  0.000003
     spin moment: S , {S} =    0.00000  -0.00000  -0.00000   0.00000
   scf:   30    -4146.599815    -4146.599815    -4146.599815  0.000000 -3.765141  0.000001
     spin moment: S , {S} =    0.00000  -0.00000  -0.00000   0.00000
   scf:   31    -4146.599815    -4146.599815    -4146.599815  0.000000 -3.765141  0.000001
     spin moment: S , {S} =    0.00000  -0.00000  -0.00000   0.00000

SCF Convergence by DM+H criterion
max |DM_out - DM_in|         :     0.0000002631
max |H_out - H_in|      (eV) :     0.0000008073
SCF cycle converged after 31 iterations

Using DM_out to compute the final energy and forces
No. of atoms with KB's overlaping orbs in proc 0. Max # of overlaps:      28     162

siesta: E_KS(eV) =            -4146.5998

siesta: E_KS - E_eggbox =     -4146.5998
     spin moment: S , {S} =    0.00000  -0.00000  -0.00000   0.00000

siesta: Atomic forces (eV/Ang):
     1   -0.004444   -0.078776   -0.000000
     2   -0.479469    0.268549    0.000000
     3    0.387143   -0.023258   -0.000000
     4   -0.222694    0.106736   -0.000000
     5   -0.192966   -0.202756    0.000000
     6    0.024195    0.103656   -0.000000
     7    1.113762    0.942954    0.000000
     8    0.816897   -2.244399    0.000000
     9   -1.251968    1.812638   -0.000000
    10    0.115873   -0.280472    0.000000
    11   -0.915332   -0.291265   -0.000000
    12    1.099483   -0.227064   -0.000000
    13    0.642624    2.680758   -0.000000
    14   -0.014011    0.036803    0.000000
    15    0.095516    0.073536    0.000000
    16    0.021300   -0.011717    0.000000
    17   -0.028227    0.005317   -0.000000
    18   -0.010046    0.040363    0.000000
    19    0.244482    0.030648   -0.000000
    20   -1.280423   -0.153790    0.000000
    21    1.041250    2.303808    0.000000
    22    0.306039    0.702212    0.000000
    23    0.215480   -0.581264   -0.000000
    24   -0.314056   -0.865193   -0.000000
    25   -0.489100    1.494138    0.000000
    26    0.793887   -1.141602   -0.000000
    27   -0.158165    0.076103    0.000000
    28    0.036400    0.665786    0.000000
    29   -0.281229   -0.376737   -0.000000
----------------------------------------
   Tot    1.312200    4.865712    0.000000
----------------------------------------
   Max    2.680758
   Res    0.662856    sqrt( Sum f_i^2 / 3N )
----------------------------------------
   Max    2.680758    constrained

Stress tensor Voigt[x,y,z,yz,xz,xy] (kbar):        1.35        0.52       -0.11       -0.00       -0.00       -1.33
(Free)E + p*V (eV/cell)    -4148.4586
Target enthalpy (eV/cell)    -4146.5998

siesta: Eigenvalues (eV):
ik =     1
  -21.8818  -21.8818  -21.8119  -21.8119  -21.5734  -21.5734  -21.5290  -21.5290  -21.2241  -21.2241
  -21.0791  -21.0791  -20.8033  -20.8033  -19.7905  -19.7905  -19.4036  -19.4036  -19.3571  -19.3571
  -14.7569  -14.7569  -13.8760  -13.8760  -13.3255  -13.3255  -13.1342  -13.1342  -13.0610  -13.0610
  -12.8545  -12.8545  -12.7969  -12.7969  -12.4339  -12.4339  -12.3897  -12.3897  -12.0354  -12.0354
  -11.3851  -11.3851  -10.8144  -10.8144  -10.7476  -10.7476  -10.7104  -10.7104  -10.0942  -10.0942
   -9.5673   -9.5673   -9.2456   -9.2456   -8.8453   -8.8453   -8.7016   -8.7016   -8.6740   -8.6740
   -8.6037   -8.6037   -8.4230   -8.4230   -8.1651   -8.1651   -7.8192   -7.8192   -7.6800   -7.6800
   -7.6180   -7.6180   -7.3011   -7.3011   -7.2851   -7.2851   -6.8499   -6.8499   -6.7750   -6.7750
   -6.5170   -6.5170   -6.5049   -6.5049   -6.1410   -6.1410   -6.1193   -6.1193   -6.1097   -6.1097
   -5.8320   -5.8320   -5.6387   -5.6387   -5.4808   -5.4808   -4.2999   -4.2999   -3.2301   -3.2301
   -2.3138   -2.3138   -2.2996   -2.2996   -2.2790   -2.2790   -1.8897   -1.8897   -1.8467   -1.8467
   -1.8420   -1.8420   -1.7995   -1.7995   -1.5910   -1.5910   -1.5259   -1.5259   -0.9986   -0.9986
   -0.9242   -0.9242   -0.7839   -0.7839   -0.4000   -0.4000   -0.1936   -0.1936    0.0663    0.0663
    0.4165    0.4165    0.4220    0.4220    0.5639    0.5639    0.6931    0.6931    0.8194    0.8194
    1.0032    1.0032    1.2590    1.2590    1.3230    1.3230    1.4166    1.4166    1.4333    1.4333
    1.7372    1.7372    1.8543    1.8543    1.9409    1.9409    2.3309    2.3309    2.7350    2.7350
    2.7409    2.7409    2.8162    2.8162    2.9617    2.9617    3.1805    3.1805    3.3732    3.3732
    3.3987    3.3987    3.7668    3.7668    3.8372    3.8372    4.0999    4.0999    4.3024    4.3024
    4.4250    4.4250    4.4350    4.4350    4.5708    4.5708    4.6104    4.6104    4.8391    4.8391
    4.9006    4.9006    5.0218    5.0218    5.2484    5.2484    5.5066    5.5066    5.6810    5.6810
    5.7642    5.7642    5.7766    5.7766    5.9260    5.9260    5.9754    5.9754    6.0903    6.0903
    6.1804    6.1804    6.3670    6.3670    6.6048    6.6048    6.7025    6.7025    6.8318    6.8318
    7.0322    7.0322    7.1776    7.1776    7.4321    7.4321    7.5442    7.5442    7.7179    7.7179
    7.8422    7.8422    7.9790    7.9790    8.0919    8.0919    8.2773    8.2773    8.3044    8.3044
    8.5414    8.5414    8.7225    8.7225    8.8749    8.8749    8.9165    8.9165    9.1433    9.1433
    9.2000    9.2000    9.2701    9.2701    9.7191    9.7191    9.8365    9.8365    9.8501    9.8501
   10.0578   10.0578   10.1742   10.1742   10.4487   10.4487   10.7900   10.7900   10.9253   10.9253
   10.9799   10.9799   11.0371   11.0371   11.1368   11.1368   11.6983   11.6983   11.7530   11.7530
   11.7995   11.7995   11.9178   11.9178   12.1688   12.1688   12.4083   12.4083   12.6905   12.6905
   12.7245   12.7245   12.7996   12.7996   13.3273   13.3273   13.4710   13.4710   13.6719   13.6719
   13.7862   13.7862   14.1046   14.1046   14.2884   14.2884   14.7029   14.7029   14.7488   14.7488
   14.8705   14.8705   15.3432   15.3432   15.9986   15.9986   16.4553   16.4553   16.7166   16.7166
   16.9235   16.9235   17.3579   17.3579   17.5983   17.5983   18.2060   18.2060   18.4339   18.4339
   18.5939   18.5939   19.1770   19.1770   19.3240   19.3240   19.8992   19.8992   20.2841   20.2841
   21.0013   21.0013   21.2393   21.2393   21.9357   21.9357   22.1917   22.1917   22.4028   22.4028
   22.8891   22.8891   23.2961   23.2961   23.7263   23.7263   23.8040   23.8040   23.9550   23.9550
   24.9157   24.9157   25.3347   25.3347   25.9690   25.9690   26.7072   26.7072   27.6768   27.6768
   28.6865   28.6865   29.0173   29.0173   29.1535   29.1535   29.4471   29.4471   29.7738   29.7738
   30.0294   30.0294   30.1017   30.1017   30.2874   30.2874   30.7270   30.7270   30.9920   30.9920
   31.0294   31.0294   31.1590   31.1590   31.6092   31.6092   31.6913   31.6913   32.0538   32.0538
   32.8681   32.8681   33.8460   33.8460   34.5761   34.5761   34.5863   34.5863   34.8941   34.8941
   34.9771   34.9771   34.9877   34.9877   35.5101   35.5101   35.6093   35.6093   35.6997   35.6997
   36.7835   36.7835   36.8673   36.8673   37.1215   37.1215   37.3181   37.3181   37.8184   37.8184
   38.1084   38.1084   38.5955   38.5955   39.2472   39.2472   39.4114   39.4114   39.9758   39.9758
   40.3931   40.3931   40.5465   40.5465   40.5597   40.5597   40.8705   40.8705   41.0407   41.0407
   41.2517   41.2517   41.5008   41.5008   42.5719   42.5719   42.8566   42.8566   42.9760   42.9760
   43.3355   43.3355   43.7186   43.7186   44.0202   44.0202   44.0290   44.0290   44.3327   44.3327
   44.6532   44.6532   44.7368   44.7368   45.1759   45.1759   45.5251   45.5251   45.9641   45.9641
   46.5203   46.5203   47.0971   47.0971   47.3252   47.3252   48.7216   48.7216   49.3657   49.3657
   49.4551   49.4551   50.3181   50.3181   50.4540   50.4540   50.9580   50.9580   51.0941   51.0941
   51.5602   51.5602   51.7953   51.7953   52.6023   52.6023   53.1579   53.1579   54.2146   54.2146
   54.2367   54.2367   54.6565   54.6565   55.1081   55.1081   55.6778   55.6778   55.8956   55.8956
   55.9396   55.9396   56.2834   56.2834   56.3907   56.3907   58.3896   58.3896   58.5009   58.5009
   58.8942   58.8942   60.1953   60.1953   60.2485   60.2485   61.0069   61.0069   61.2808   61.2808
   61.7849   61.7849   62.0510   62.0510   62.2629   62.2629   64.7247   64.7247   66.5382   66.5382
   66.8150   66.8150   67.2665   67.2665   68.0464   68.0464   68.6424   68.6424   70.8571   70.8571
   73.8179   73.8179   80.6590   80.6590   91.1777   91.1777   92.0533   92.0533   93.2458   93.2458
   98.2927   98.2927   99.0107   99.0107   99.4558   99.4558  103.1142  103.1142  103.7032  103.7032
  110.1467  110.1467  111.8794  111.8794  124.0592  124.0592  126.2739  126.2739  129.3658  129.3658
  135.2993  135.2993  138.3669  138.3669
siesta: Fermi energy =      -3.765141 eV

siesta: Program's energy decomposition (eV):
siesta: Ebs     =     -1134.134847
siesta: Eions   =      3585.165840
siesta: Ena     =       381.827741
siesta: Ekin    =      2902.949954
siesta: Enl     =     -2787.703921
siesta: Eso     =        -0.004273
siesta: Edftu   =         0.000000
siesta: DEna    =        46.958994
siesta: DUscf   =        14.289081
siesta: DUext   =         0.000000
siesta: Exc     =     -1119.751550
siesta: eta*DQ  =         0.000000
siesta: Emadel  =         0.000000
siesta: Emeta   =         0.000000
siesta: Emolmec =         0.000000
siesta: Ekinion =         0.000000
siesta: Eharris =     -4146.599815
siesta: Etot    =     -4146.599815
siesta: FreeEng =     -4146.599815

siesta: Final energy (eV):
siesta:  Band Struct. =   -1134.134847
siesta:       Kinetic =    2902.949954
siesta:       Hartree =    8268.632874
siesta:       Edftu   =       0.000000
siesta:       Eso     =      -0.004273
siesta:    Ext. field =       0.000000
siesta:   Exch.-corr. =   -1119.751550
siesta:  Ion-electron =  -19120.797309
siesta:       Ion-ion =    4922.370490
siesta:       Ekinion =       0.000000
siesta:         Total =   -4146.599815
siesta:         Fermi =      -3.765141

siesta: Atomic forces (eV/Ang):
siesta:      1   -0.004444   -0.078776   -0.000000
siesta:      2   -0.479469    0.268549    0.000000
siesta:      3    0.387143   -0.023258   -0.000000
siesta:      4   -0.222694    0.106736   -0.000000
siesta:      5   -0.192966   -0.202756    0.000000
siesta:      6    0.024195    0.103656   -0.000000
siesta:      7    1.113762    0.942954    0.000000
siesta:      8    0.816897   -2.244399    0.000000
siesta:      9   -1.251968    1.812638   -0.000000
siesta:     10    0.115873   -0.280472    0.000000
siesta:     11   -0.915332   -0.291265   -0.000000
siesta:     12    1.099483   -0.227064   -0.000000
siesta:     13    0.642624    2.680758   -0.000000
siesta:     14   -0.014011    0.036803    0.000000
siesta:     15    0.095516    0.073536    0.000000
siesta:     16    0.021300   -0.011717    0.000000
siesta:     17   -0.028227    0.005317   -0.000000
siesta:     18   -0.010046    0.040363    0.000000
siesta:     19    0.244482    0.030648   -0.000000
siesta:     20   -1.280423   -0.153790    0.000000
siesta:     21    1.041250    2.303808    0.000000
siesta:     22    0.306039    0.702212    0.000000
siesta:     23    0.215480   -0.581264   -0.000000
siesta:     24   -0.314056   -0.865193   -0.000000
siesta:     25   -0.489100    1.494138    0.000000
siesta:     26    0.793887   -1.141602   -0.000000
siesta:     27   -0.158165    0.076103    0.000000
siesta:     28    0.036400    0.665786    0.000000
siesta:     29   -0.281229   -0.376737   -0.000000
siesta: ----------------------------------------
siesta:    Tot    1.312200    4.865712    0.000000

siesta: Stress tensor (static) (eV/Ang**3):
siesta:     0.000841   -0.000831   -0.000000
siesta:    -0.000831    0.000323   -0.000000
siesta:    -0.000000   -0.000000   -0.000066

siesta: Cell volume =       5080.087094 Ang**3

siesta: Pressure (static):
siesta:                Solid            Molecule  Units
siesta:          -0.00000399         -0.00000412  Ry/Bohr**3
siesta:          -0.00036590         -0.00037797  eV/Ang**3
siesta:          -0.58624797         -0.60558609  kBar
(Free)E+ p_basis*V_orbitals  =       -4126.749397
(Free)Eharris+ p_basis*V_orbitals  =       -4126.749397
     spin moment: S , {S} =    0.00000  -0.00000  -0.00000   0.00000

siesta: Electric dipole (a.u.)  =   -0.005971    1.564902    0.000000
siesta: Electric dipole (Debye) =   -0.015176    3.977586    0.000000

cite: Please see "GC.bib" for an exhaustive BiBTeX file.
cite: Please clearly indicate Siesta version in published work: v4.1.5-1-g384057250
cite: This calculation has made use of the following articles
cite: which are encouraged to be cited in a published work.
        Primary SIESTA paper
          DOI: www.doi.org/10.1088/0953-8984/14/11/302
        Spin-orbit coupling (on-site approximation)
          DOI: www.doi.org/10.1088/0953-8984/19/19/489001


WARNING: alloc-realloc-dealloc name mismatch
         Name: atomlist isa
         Size:              -116. Bytes
         Node:     0
         Subsequent mismatches will not be reported
>> End of run:  16-OCT-2023  18:49:37
Job completed
