Siesta Version  : v4.1.5-1-g384057250
Architecture    : gcc
Compiler version: GNU Fortran (Ubuntu 11.3.0-1ubuntu1~22.04) 11.3.0
Compiler flags  : mpifort -O2 -fPIC -ftree-vectorize -fallow-argument-mismatch
PP flags        : -DFC_HAVE_ABORT -DMPI -DSIESTA__FLOOK -DSIESTA__METIS -DSIESTA__MUMPS -DCDF -DNCDF -DNCDF_4 -DNCDF_PARALLEL -DSIESTA__MRRR -DSIESTA__ELPA
Libraries       : libncdf.a libfdict.a  -lflookall -ldl -lnetcdff -lnetcdf -lhdf5_hl -lhdf5 -lhdf5_fortran -lz -lscalapack-openmpi -lopenblas -lmetis -lzmumps -lcmumps -ldmumps -lmumps_common -lpord -lsmumps -lesmumps -lscotch -lscotcherr -fopenmp -lelpa
PARALLEL version
NetCDF support
NetCDF-4 support
NetCDF-4 MPI-IO support
METIS ordering support
Lua support

* Running on 4 nodes in parallel
>> Start of run:  28-JUN-2023  20:12:28

                           ***********************       
                           *  WELCOME TO SIESTA  *       
                           ***********************       

reinit: Reading from standard input
reinit: Dumped input in INPUT_TMP.06362
************************** Dump of input data file ****************************
SystemLabel      GC
NumberOfAtoms    29
NumberOfSpecies  4
%block ChemicalSpeciesLabel
    1    8  O
    2    7  N
    3   14  Si
    4    1  H
%endblock ChemicalSpeciesLabel
# Single point calculation
MD.TypeOfRun                CG
MD.Steps                    0
SCF.MustConverge            F # In case it does not. There can be 2 very close atoms
AtomicCoordinatesFormat NotScaledCartesianAng
%block AtomicCoordinatesAndAtomicSpecies
1.043624880    3.939228610    0.000000000       1
-3.040641290   1.071078170    0.000000000       2
2.054601450    1.213582070    0.000000000       2
0.999014100    -1.732643800   0.000000000       2
-2.132351640   -1.812968220   0.000000000       2
3.860190550    -1.112298180   0.000000000       2
-1.236183220   1.152964460    0.000000000       3
-0.532924260   -0.939006270   0.000000000       3
0.635660470    2.374516770    0.000000000       3
2.245170240    -0.549967100   0.000000000       3
-3.449816660   -0.583665030   0.000000000       3
2.963714090    1.790992630    0.000000000       4
-4.845591350   -1.123549660   0.000000000       4
4.007020910    -2.152308560   0.000000000       4
4.772194380    -0.502318160   0.000000000       4
-2.265399090   -2.864605110   0.000000000       4
7.174078411    6.427508336    0.000000000       3
9.078962381    7.634147276    0.000000000       3
8.583208241    3.661173366    0.000000000       3
10.660678531   6.130390526    0.000000000       3
7.233701081    4.710080766    0.000000000       2
5.634943351    7.181185646    0.000000000       2
10.235503501   4.391010586    0.000000000       2
9.270307181    9.126301026    0.000000000       4
12.145046511   6.349121346    0.000000000       4
5.523598071    8.230380756    0.000000000       4
4.702385641    6.556271466    0.000000000       4
8.572981411    2.053062246    0.000000000       1
11.010929381   3.664319026    0.000000000       4
%endblock AtomicCoordinatesAndAtomicSpecies
%include ../../../Defaults.fdf
************************** End of input data file *****************************

reinit: -----------------------------------------------------------------------
reinit: System Name: 
reinit: -----------------------------------------------------------------------
reinit: System Label: GC
reinit: -----------------------------------------------------------------------

initatom: Reading input for the pseudopotentials and atomic orbitals ----------
Species number:   1 Atomic number:    8 Label: O
Species number:   2 Atomic number:    7 Label: N
Species number:   3 Atomic number:   14 Label: Si
Species number:   4 Atomic number:    1 Label: H

Ground state valence configuration:   2s02  2p04
Reading pseudopotential information in formatted form from O.psf

Pseudopotential generated from a relativistic atomic calculation

Valence configuration for pseudopotential generation:
2s( 2.00) rc: 0.45
2p( 4.00) rc: 0.92
3d( 0.00) rc: 2.24
4f( 0.00) rc: 0.25
Ground state valence configuration:   2s02  2p03
Reading pseudopotential information in formatted form from N.psf

Pseudopotential generated from a relativistic atomic calculation

Valence configuration for pseudopotential generation:
2s( 2.00) rc: 0.94
2p( 3.00) rc: 0.59
3d( 0.00) rc: 3.46
4f( 0.00) rc: 2.47
Ground state valence configuration:   3s02  3p02
Reading pseudopotential information in formatted form from Si.psf

Pseudopotential generated from a relativistic atomic calculation

Valence configuration for pseudopotential generation:
3s( 2.00) rc: 1.67
3p( 2.00) rc: 2.04
3d( 0.00) rc: 2.89
4f( 0.00) rc: 2.49
Ground state valence configuration:   1s01
Reading pseudopotential information in formatted form from H.psf

Pseudopotential generated from a relativistic atomic calculation

Valence configuration for pseudopotential generation:
1s( 1.00) rc: 0.01
2p( 0.00) rc: 0.60
3d( 0.00) rc: 1.99
4f( 0.00) rc: 2.49
For O, standard SIESTA heuristics set lmxkb to 3
 (one more than the basis l, including polarization orbitals).
Use PS.lmax or PS.KBprojectors blocks to override.
For N, standard SIESTA heuristics set lmxkb to 3
 (one more than the basis l, including polarization orbitals).
Use PS.lmax or PS.KBprojectors blocks to override.
For Si, standard SIESTA heuristics set lmxkb to 3
 (one more than the basis l, including polarization orbitals).
Use PS.lmax or PS.KBprojectors blocks to override.
For H, standard SIESTA heuristics set lmxkb to 2
 (one more than the basis l, including polarization orbitals).
Use PS.lmax or PS.KBprojectors blocks to override.

<basis_specs>
===============================================================================
O                    Z=   8    Mass=  16.000        Charge= 0.17977+309
Lmxo=1 Lmxkb= 3    BasisType=split      Semic=F
L=0  Nsemic=0  Cnfigmx=2
          i=1  nzeta=2  polorb=0  (2s)
            splnorm:   0.28000    
               vcte:    0.0000    
               rinn:    0.0000    
               qcoe:    0.0000    
               qyuk:    0.0000    
               qwid:   0.10000E-01
                rcs:    0.0000      0.0000    
            lambdas:    1.0000      1.0000    
L=1  Nsemic=0  Cnfigmx=2
          i=1  nzeta=2  polorb=1  (2p)
            splnorm:   0.28000    
               vcte:    0.0000    
               rinn:    0.0000    
               qcoe:    0.0000    
               qyuk:    0.0000    
               qwid:   0.10000E-01
                rcs:    0.0000      0.0000    
            lambdas:    1.0000      1.0000    
-------------------------------------------------------------------------------
L=0  Nkbl=1  erefs: 0.17977+309
L=1  Nkbl=1  erefs: 0.17977+309
L=2  Nkbl=1  erefs: 0.17977+309
L=3  Nkbl=1  erefs: 0.17977+309
===============================================================================
</basis_specs>

atom: Called for O                     (Z =   8)

read_vps: Pseudopotential generation method:
read_vps: ATM4.2.7  Troullier-Martins                       
Valence charge for ps generation:    6.00000

xc_check: Exchange-correlation functional:
xc_check: GGA Perdew, Burke & Ernzerhof 1996
V l=0 = -2*Zval/r beyond r=  1.1000
V l=1 = -2*Zval/r beyond r=  1.1000
V l=2 = -2*Zval/r beyond r=  2.2154
V l=3 = -2*Zval/r beyond r=  1.1000
All V_l potentials equal beyond r=  2.2154
This should be close to max(r_c) in ps generation
All pots = -2*Zval/r beyond r=  2.2154

VLOCAL1: 99.0% of the norm of Vloc inside      8.845 Ry
VLOCAL1: 99.9% of the norm of Vloc inside     20.157 Ry
atom: Maximum radius for 4*pi*r*r*local-pseudopot. charge    2.67231
atom: Maximum radius for r*vlocal+2*Zval:    2.32897
GHOST: No ghost state for L =  0
GHOST: No ghost state for L =  1
GHOST: No ghost state for L =  2
GHOST: No ghost state for L =  3

KBgen: Kleinman-Bylander projectors: 
   l= 0   rc=  2.243238   el= -1.759686   Ekb=**********   kbcos= -0.171774
   l= 1   rc=  2.328968   el= -0.663873   Ekb=-14.506792   kbcos= -0.519897
   l= 2   rc=  2.573941   el=  0.002031   Ekb= -1.137373   kbcos= -0.019581
   l= 3   rc=  2.606321   el=  0.003153   Ekb= -1.013546   kbcos= -0.003122

KBgen: Total number of Kleinman-Bylander projectors:   16
atom: -------------------------------------------------------------------------

atom: SANKEY-TYPE ORBITALS:
atom: Selected multiple-zeta basis: split     

SPLIT: Orbitals with angular momentum L= 0

SPLIT: Basis orbitals for state 2s

SPLIT: PAO cut-off radius determined from an
SPLIT: energy shift=  0.002000 Ry

   izeta = 1
                 lambda =    1.000000
                     rc =    4.243912
                 energy =   -1.758270
                kinetic =    3.286084
    potential(screened) =   -5.044353
       potential(ionic) =  -12.921184

   izeta = 2
                 rmatch =    2.187845
              splitnorm =    0.280000
                 energy =   -0.885018
                kinetic =    8.134434
    potential(screened) =   -9.019452
       potential(ionic) =  -17.710645

SPLIT: Orbitals with angular momentum L= 1

SPLIT: Basis orbitals for state 2p

SPLIT: PAO cut-off radius determined from an
SPLIT: energy shift=  0.002000 Ry

   izeta = 1
                 lambda =    1.000000
                     rc =    5.314825
                 energy =   -0.661986
                kinetic =    4.917472
    potential(screened) =   -5.579458
       potential(ionic) =  -13.236259

   izeta = 2
                 rmatch =    2.160663
              splitnorm =    0.280000
                 energy =   -0.068760
                kinetic =    9.183374
    potential(screened) =   -9.252135
       potential(ionic) =  -18.274251

POLgen: Perturbative polarization orbital with L=  2

POLgen: Polarization orbital for state 2p

   izeta = 1
                     rc =    5.314825
                 energy =    1.970580
                kinetic =    3.886128
    potential(screened) =   -1.915547
       potential(ionic) =   -7.749584
atom: Total number of Sankey-type orbitals: 13

atm_pop: Valence configuration (for local Pseudopot. screening):
 2s( 2.00)                                                            
 2p( 4.00)                                                            
Vna: chval, zval:    6.00000   6.00000

Vna:  Cut-off radius for the neutral-atom potential:   5.314825

atom: _________________________________________________________________________

<basis_specs>
===============================================================================
N                    Z=   7    Mass=  14.010        Charge= 0.17977+309
Lmxo=1 Lmxkb= 3    BasisType=split      Semic=F
L=0  Nsemic=0  Cnfigmx=2
          i=1  nzeta=2  polorb=0  (2s)
            splnorm:   0.28000    
               vcte:    0.0000    
               rinn:    0.0000    
               qcoe:    0.0000    
               qyuk:    0.0000    
               qwid:   0.10000E-01
                rcs:    0.0000      0.0000    
            lambdas:    1.0000      1.0000    
L=1  Nsemic=0  Cnfigmx=2
          i=1  nzeta=2  polorb=1  (2p)
            splnorm:   0.28000    
               vcte:    0.0000    
               rinn:    0.0000    
               qcoe:    0.0000    
               qyuk:    0.0000    
               qwid:   0.10000E-01
                rcs:    0.0000      0.0000    
            lambdas:    1.0000      1.0000    
-------------------------------------------------------------------------------
L=0  Nkbl=1  erefs: 0.17977+309
L=1  Nkbl=1  erefs: 0.17977+309
L=2  Nkbl=1  erefs: 0.17977+309
L=3  Nkbl=1  erefs: 0.17977+309
===============================================================================
</basis_specs>

atom: Called for N                     (Z =   7)

read_vps: Pseudopotential generation method:
read_vps: ATM4.2.7  Troullier-Martins                       
Valence charge for ps generation:    5.00000

xc_check: Exchange-correlation functional:
xc_check: GGA Perdew, Burke & Ernzerhof 1996
V l=0 = -2*Zval/r beyond r=  1.2889
V l=1 = -2*Zval/r beyond r=  1.2889
V l=2 = -2*Zval/r beyond r=  3.4178
V l=3 = -2*Zval/r beyond r=  2.4084
All V_l potentials equal beyond r=  3.3753
This should be close to max(r_c) in ps generation
All pots = -2*Zval/r beyond r=  3.4178

VLOCAL1: 99.0% of the norm of Vloc inside      3.810 Ry
VLOCAL1: 99.9% of the norm of Vloc inside      8.683 Ry
atom: Maximum radius for 4*pi*r*r*local-pseudopot. charge    4.02088
atom: Maximum radius for r*vlocal+2*Zval:    3.54838
GHOST: No ghost state for L =  0
GHOST: No ghost state for L =  1
GHOST: No ghost state for L =  2
GHOST: No ghost state for L =  3

KBgen: Kleinman-Bylander projectors: 
   l= 0   rc=  3.417763   el= -1.365098   Ekb= -4.433130   kbcos= -0.707855
   l= 1   rc=  3.375302   el= -0.521201   Ekb=-13.264039   kbcos= -0.535594
   l= 2   rc=  3.872880   el=  0.001991   Ekb= -0.641094   kbcos= -0.062456
   l= 3   rc=  3.970931   el=  0.003093   Ekb= -0.474517   kbcos= -0.018236

KBgen: Total number of Kleinman-Bylander projectors:   16
atom: -------------------------------------------------------------------------

atom: SANKEY-TYPE ORBITALS:
atom: Selected multiple-zeta basis: split     

SPLIT: Orbitals with angular momentum L= 0

SPLIT: Basis orbitals for state 2s

SPLIT: PAO cut-off radius determined from an
SPLIT: energy shift=  0.002000 Ry

   izeta = 1
                 lambda =    1.000000
                     rc =    4.730425
                 energy =   -1.363399
                kinetic =    1.245246
    potential(screened) =   -2.608645
       potential(ionic) =   -8.121105

   izeta = 2
                 rmatch =    2.531849
              splitnorm =    0.280000
                 energy =   -0.959908
                kinetic =    2.409435
    potential(screened) =   -3.369343
       potential(ionic) =   -9.427975

SPLIT: Orbitals with angular momentum L= 1

SPLIT: Basis orbitals for state 2p

SPLIT: PAO cut-off radius determined from an
SPLIT: energy shift=  0.002000 Ry

   izeta = 1
                 lambda =    1.000000
                     rc =    5.924108
                 energy =   -0.519262
                kinetic =    3.672940
    potential(screened) =   -4.192202
       potential(ionic) =   -9.518354

   izeta = 2
                 rmatch =    2.531849
              splitnorm =    0.280000
                 energy =   -0.104258
                kinetic =    6.807538
    potential(screened) =   -6.911796
       potential(ionic) =  -13.149920

POLgen: Perturbative polarization orbital with L=  2

POLgen: Polarization orbital for state 2p

   izeta = 1
                     rc =    5.924108
                 energy =    1.427508
                kinetic =    2.872379
    potential(screened) =   -1.444871
       potential(ionic) =   -5.563644
atom: Total number of Sankey-type orbitals: 13

atm_pop: Valence configuration (for local Pseudopot. screening):
 2s( 2.00)                                                            
 2p( 3.00)                                                            
Vna: chval, zval:    5.00000   5.00000

Vna:  Cut-off radius for the neutral-atom potential:   5.924108

atom: _________________________________________________________________________

<basis_specs>
===============================================================================
Si                   Z=  14    Mass=  28.090        Charge= 0.17977+309
Lmxo=1 Lmxkb= 3    BasisType=split      Semic=F
L=0  Nsemic=0  Cnfigmx=3
          i=1  nzeta=2  polorb=0  (3s)
            splnorm:   0.28000    
               vcte:    0.0000    
               rinn:    0.0000    
               qcoe:    0.0000    
               qyuk:    0.0000    
               qwid:   0.10000E-01
                rcs:    0.0000      0.0000    
            lambdas:    1.0000      1.0000    
L=1  Nsemic=0  Cnfigmx=3
          i=1  nzeta=2  polorb=1  (3p)
            splnorm:   0.28000    
               vcte:    0.0000    
               rinn:    0.0000    
               qcoe:    0.0000    
               qyuk:    0.0000    
               qwid:   0.10000E-01
                rcs:    0.0000      0.0000    
            lambdas:    1.0000      1.0000    
-------------------------------------------------------------------------------
L=0  Nkbl=1  erefs: 0.17977+309
L=1  Nkbl=1  erefs: 0.17977+309
L=2  Nkbl=1  erefs: 0.17977+309
L=3  Nkbl=1  erefs: 0.17977+309
===============================================================================
</basis_specs>

atom: Called for Si                    (Z =  14)

read_vps: Pseudopotential generation method:
read_vps: ATM4.2.7  Troullier-Martins                       
Valence charge for ps generation:    4.00000

xc_check: Exchange-correlation functional:
xc_check: GGA Perdew, Burke & Ernzerhof 1996
V l=0 = -2*Zval/r beyond r=  2.7826
V l=1 = -2*Zval/r beyond r=  2.7826
V l=2 = -2*Zval/r beyond r=  2.9253
V l=3 = -2*Zval/r beyond r=  2.7826
All V_l potentials equal beyond r=  2.8530
This should be close to max(r_c) in ps generation
All pots = -2*Zval/r beyond r=  2.9253

VLOCAL1: 99.0% of the norm of Vloc inside      5.333 Ry
VLOCAL1: 99.9% of the norm of Vloc inside     12.154 Ry
atom: Maximum radius for 4*pi*r*r*local-pseudopot. charge    3.39869
atom: Maximum radius for r*vlocal+2*Zval:    2.96205
GHOST: No ghost state for L =  0
GHOST: No ghost state for L =  1
GHOST: No ghost state for L =  2
GHOST: No ghost state for L =  3

KBgen: Kleinman-Bylander projectors: 
   l= 0   rc=  3.075247   el= -0.794092   Ekb=  5.879390   kbcos=  0.167461
   l= 1   rc=  3.153101   el= -0.300068   Ekb=  2.642817   kbcos=  0.058301
   l= 2   rc=  3.273594   el=  0.001958   Ekb= -1.185135   kbcos= -0.104411
   l= 3   rc=  3.232927   el=  0.003046   Ekb= -0.497174   kbcos= -0.015889

KBgen: Total number of Kleinman-Bylander projectors:   16
atom: -------------------------------------------------------------------------

atom: SANKEY-TYPE ORBITALS:
atom: Selected multiple-zeta basis: split     

SPLIT: Orbitals with angular momentum L= 0

SPLIT: Basis orbitals for state 3s

SPLIT: PAO cut-off radius determined from an
SPLIT: energy shift=  0.002000 Ry

   izeta = 1
                 lambda =    1.000000
                     rc =    6.429618
                 energy =   -0.792283
                kinetic =    0.525293
    potential(screened) =   -1.317576
       potential(ionic) =   -3.744923

   izeta = 2
                 rmatch =    3.998416
              splitnorm =    0.280000
                 energy =   -0.583081
                kinetic =    1.069570
    potential(screened) =   -1.652651
       potential(ionic) =   -4.235185

SPLIT: Orbitals with angular momentum L= 1

SPLIT: Basis orbitals for state 3p

SPLIT: PAO cut-off radius determined from an
SPLIT: energy shift=  0.002000 Ry

   izeta = 1
                 lambda =    1.000000
                     rc =    8.464845
                 energy =   -0.298236
                kinetic =    0.785360
    potential(screened) =   -1.083596
       potential(ionic) =   -3.273779

   izeta = 2
                 rmatch =    4.587816
              splitnorm =    0.280000
                 energy =   -0.131871
                kinetic =    1.403687
    potential(screened) =   -1.535557
       potential(ionic) =   -4.015310

POLgen: Perturbative polarization orbital with L=  2

POLgen: Polarization orbital for state 3p

   izeta = 1
                     rc =    8.464845
                 energy =    0.321949
                kinetic =    1.055677
    potential(screened) =   -0.733728
       potential(ionic) =   -2.672950
atom: Total number of Sankey-type orbitals: 13

atm_pop: Valence configuration (for local Pseudopot. screening):
 3s( 2.00)                                                            
 3p( 2.00)                                                            
Vna: chval, zval:    4.00000   4.00000

Vna:  Cut-off radius for the neutral-atom potential:   8.464845

atom: _________________________________________________________________________

<basis_specs>
===============================================================================
H                    Z=   1    Mass=  1.0100        Charge= 0.17977+309
Lmxo=0 Lmxkb= 2    BasisType=split      Semic=F
L=0  Nsemic=0  Cnfigmx=1
          i=1  nzeta=2  polorb=1  (1s)
            splnorm:   0.62000    
               vcte:    0.0000    
               rinn:    0.0000    
               qcoe:    0.0000    
               qyuk:    0.0000    
               qwid:   0.10000E-01
                rcs:    0.0000      0.0000    
            lambdas:    1.0000      1.0000    
-------------------------------------------------------------------------------
L=0  Nkbl=1  erefs: 0.17977+309
L=1  Nkbl=1  erefs: 0.17977+309
L=2  Nkbl=1  erefs: 0.17977+309
===============================================================================
</basis_specs>

atom: Called for H                     (Z =   1)

read_vps: Pseudopotential generation method:
read_vps: ATM4.2.7  Troullier-Martins                       
Valence charge for ps generation:    1.00000

xc_check: Exchange-correlation functional:
xc_check: GGA Perdew, Burke & Ernzerhof 1996
V l=0 = -2*Zval/r beyond r=  0.0098
V l=1 = -2*Zval/r beyond r=  0.5817
V l=2 = -2*Zval/r beyond r=  1.9372
All V_l potentials equal beyond r=  1.9372
This should be close to max(r_c) in ps generation
All pots = -2*Zval/r beyond r=  1.9372

VLOCAL1: 99.0% of the norm of Vloc inside     11.567 Ry
VLOCAL1: 99.9% of the norm of Vloc inside     26.362 Ry
atom: Maximum radius for 4*pi*r*r*local-pseudopot. charge    2.25106
atom: Maximum radius for r*vlocal+2*Zval:    1.91306
GHOST: No ghost state for L =  0
GHOST: No ghost state for L =  1
GHOST: No ghost state for L =  2

KBgen: Kleinman-Bylander projectors: 
   l= 0   rc=  2.036604   el= -0.477180   Ekb= -6.081590   kbcos= -0.277285
   l= 1   rc=  2.195416   el=  0.001076   Ekb= -0.926943   kbcos= -0.034643
   l= 2   rc=  2.251056   el=  0.002010   Ekb= -0.130941   kbcos= -0.009788

KBgen: Total number of Kleinman-Bylander projectors:    9
atom: -------------------------------------------------------------------------

atom: SANKEY-TYPE ORBITALS:
atom: Selected multiple-zeta basis: split     

SPLIT: Orbitals with angular momentum L= 0

SPLIT: Basis orbitals for state 1s

SPLIT: PAO cut-off radius determined from an
SPLIT: energy shift=  0.002000 Ry

   izeta = 1
                 lambda =    1.000000
                     rc =    6.518340
                 energy =   -0.475305
                kinetic =    0.912139
    potential(screened) =   -1.387444
       potential(ionic) =   -1.907295

   izeta = 2
                 rmatch =    2.141150
              splitnorm =    0.620000
                 energy =    0.566467
                kinetic =    3.772856
    potential(screened) =   -3.206389
       potential(ionic) =   -3.759093

POLgen: Perturbative polarization orbital with L=  1

POLgen: Polarization orbital for state 1s

   izeta = 1
                     rc =    6.518340
                 energy =    0.533861
                kinetic =    1.121086
    potential(screened) =   -0.587225
       potential(ionic) =   -1.053027
atom: Total number of Sankey-type orbitals:  5

atm_pop: Valence configuration (for local Pseudopot. screening):
 1s( 1.00)                                                            
Vna: chval, zval:    1.00000   1.00000

Vna:  Cut-off radius for the neutral-atom potential:   6.518340

atom: _________________________________________________________________________

prinput: Basis input ----------------------------------------------------------

PAO.BasisType split     

%block ChemicalSpeciesLabel
    1    8 O                       # Species index, atomic number, species label
    2    7 N                       # Species index, atomic number, species label
    3   14 Si                      # Species index, atomic number, species label
    4    1 H                       # Species index, atomic number, species label
%endblock ChemicalSpeciesLabel

%block PAO.Basis                 # Define Basis set
O                     2                    # Species label, number of l-shells
 n=2   0   2                         # n, l, Nzeta 
   4.244      2.188   
   1.000      1.000   
 n=2   1   2 P   1                   # n, l, Nzeta, Polarization, NzetaPol
   5.315      2.161   
   1.000      1.000   
N                     2                    # Species label, number of l-shells
 n=2   0   2                         # n, l, Nzeta 
   4.730      2.532   
   1.000      1.000   
 n=2   1   2 P   1                   # n, l, Nzeta, Polarization, NzetaPol
   5.924      2.532   
   1.000      1.000   
Si                    2                    # Species label, number of l-shells
 n=3   0   2                         # n, l, Nzeta 
   6.430      3.998   
   1.000      1.000   
 n=3   1   2 P   1                   # n, l, Nzeta, Polarization, NzetaPol
   8.465      4.588   
   1.000      1.000   
H                     1                    # Species label, number of l-shells
 n=1   0   2 P   1                   # n, l, Nzeta, Polarization, NzetaPol
   6.518      2.141   
   1.000      1.000   
%endblock PAO.Basis

prinput: ----------------------------------------------------------------------

Dumping basis to NetCDF file O.ion.nc
Dumping basis to NetCDF file N.ion.nc
Dumping basis to NetCDF file Si.ion.nc
Dumping basis to NetCDF file H.ion.nc
coor:   Atomic-coordinates input format  =     Cartesian coordinates
coor:                                          (in Angstroms)

siesta: Atomic coordinates (Bohr) and species
siesta:      1.97217   7.44407   0.00000  1        1
siesta:     -5.74598   2.02405   0.00000  2        2
siesta:      3.88264   2.29334   0.00000  2        3
siesta:      1.88786  -3.27422   0.00000  2        4
siesta:     -4.02956  -3.42601   0.00000  2        5
siesta:      7.29471  -2.10194   0.00000  2        6
siesta:     -2.33605   2.17879   0.00000  3        7
siesta:     -1.00708  -1.77447   0.00000  3        8
siesta:      1.20122   4.48719   0.00000  3        9
siesta:      4.24276  -1.03929   0.00000  3       10
siesta:     -6.51921  -1.10297   0.00000  3       11
siesta:      5.60061   3.38449   0.00000  4       12
siesta:     -9.15684  -2.12320   0.00000  4       13
siesta:      7.57218  -4.06728   0.00000  4       14
siesta:      9.01814  -0.94924   0.00000  4       15
siesta:     -4.28099  -5.41332   0.00000  4       16
siesta:     13.55705  12.14624   0.00000  3       17
siesta:     17.15676  14.42645   0.00000  3       18
siesta:     16.21992   6.91862   0.00000  3       19
siesta:     20.14577  11.58476   0.00000  3       20
siesta:     13.66972   8.90077   0.00000  2       21
siesta:     10.64850  13.57048   0.00000  2       22
siesta:     19.34231   8.29781   0.00000  2       23
siesta:     17.51835  17.24622   0.00000  4       24
siesta:     22.95082  11.99811   0.00000  4       25
siesta:     10.43809  15.55317   0.00000  4       26
siesta:      8.88622  12.38956   0.00000  4       27
siesta:     16.20059   3.87973   0.00000  1       28
siesta:     20.80765   6.92456   0.00000  4       29

siesta: Automatic unit cell vectors (Ang):
siesta:   26.278284    0.000000    0.000000
siesta:    0.000000   20.778580    0.000000
siesta:    0.000000    0.000000    9.854683

siesta: System type = molecule  

initatomlists: Number of atoms, orbitals, and projectors:     29   297   394

siesta: ******************** Simulation parameters ****************************
siesta:
siesta: The following are some of the parameters of the simulation.
siesta: A complete list of the parameters used, including default values,
siesta: can be found in file out.fdf
siesta:
redata: Spin configuration                          = spin-orbit
redata: Number of spin components                   = 8
redata: Time-Reversal Symmetry                      = F
redata: Spin spiral                                 = F
############################################################
This spin-orbit implementation uses a local approximation.
From 4.2 and onwards the full non-local approximation is implemented
You are strongly advised to use >=4.2 versions!
############################################################
redata: Long output                                 =   F
redata: Number of Atomic Species                    =        4
redata: Charge density info will appear in .RHO file
redata: Write Mulliken Pop.                         = Atomic and Orbital charges
redata: Matel table size (NRTAB)                    =     1024
redata: Mesh Cutoff                                 =   340.0000 Ry
redata: Net charge of the system                    =     0.0000 |e|
redata: Min. number of SCF Iter                     =        1
redata: Max. number of SCF Iter                     =      200
redata: SCF mix quantity                            = Hamiltonian
redata: Mix DM or H after convergence               =   F
redata: Recompute H after scf cycle                 =   F
redata: Mix DM in first SCF step                    =   T
redata: Write Pulay info on disk                    =   F
redata: New DM Occupancy tolerance                  = 0.000000000001
redata: No kicks to SCF
redata: DM Mixing Weight for Kicks                  =     0.5000
redata: Require Harris convergence for SCF          =   F
redata: Harris energy tolerance for SCF             =     0.000100 eV
redata: Require DM convergence for SCF              =   T
redata: DM tolerance for SCF                        =     0.000008
redata: Require EDM convergence for SCF             =   F
redata: EDM tolerance for SCF                       =     0.001000 eV
redata: Require H convergence for SCF               =   T
redata: Hamiltonian tolerance for SCF               =     0.000001 eV
redata: Require (free) Energy convergence for SCF   =   F
redata: (free) Energy tolerance for SCF             =     0.000100 eV
redata: Using Saved Data (generic)                  =   F
redata: Use continuation files for DM               =   F
redata: Neglect nonoverlap interactions             =   F
redata: Method of Calculation                       = Diagonalization
redata: Electronic Temperature                      =   299.9978 K
redata: Fix the spin of the system                  =   F
redata: Dynamics option                             = Single-point calculation
mix.SCF: Pulay mixing                            = Pulay
mix.SCF:    Variant                              = stable
mix.SCF:    History steps                        = 6
mix.SCF:    Linear mixing weight                 =     0.250000
mix.SCF:    Mixing weight                        =     0.250000
mix.SCF:    SVD condition                        = 0.1000E-07
mix.SCF:    Restart steps                        = 24
mix.SCF:    Restart save steps                   = 3
mix.SCF: Spin-component mixing                   all
redata: Save all siesta data in one NC              =   F
redata: ***********************************************************************

%block SCF.Mixers
  Pulay
%endblock SCF.Mixers

%block SCF.Mixer.Pulay
  # Mixing method
  method pulay
  variant stable

  # Mixing options
  weight 0.2500
  weight.linear 0.2500
  history 6
  restart 24
  restart.save 3
%endblock SCF.Mixer.Pulay

DM_history_depth set to one: no extrapolation allowed by default for geometry relaxation
Size of DM history Fstack: 1
Total number of electrons:    98.000000
Total ionic charge:    98.000000

* ProcessorY, Blocksize:    2  24


* Orbital distribution balance (max,min):    81    72


Time-reversal symmetry not used.

siesta: k-grid: Number of k-points =     1
siesta: k-grid: Cutoff (effective) =     4.927 Ang
siesta: k-grid: Supercell and displacements
siesta: k-grid:    1   0   0      0.000
siesta: k-grid:    0   1   0      0.000
siesta: k-grid:    0   0   1      0.000

diag: Algorithm                                     = ELPA-1stage
diag: Parallel over k                               =   F
diag: Use parallel 2D distribution                  =   T
diag: Parallel block-size                           = 24
diag: Parallel distribution                         =     2 x     2
diag: Used triangular part                          = Lower
diag: Absolute tolerance                            =  0.100E-15
diag: Orthogonalization factor                      =  0.100E-05
diag: Memory factor                                 =  1.0000


ts: **************************************************************
ts: Save H and S matrices                           =    F
ts: Save DM and EDM matrices                        =    F
ts: Only save the overlap matrix S                  =    F
ts: **************************************************************

************************ Begin: TS CHECKS AND WARNINGS ************************
************************ End: TS CHECKS AND WARNINGS **************************


                     ====================================
                        Single-point calculation
                     ====================================

outcoor: Atomic coordinates (Ang):                          
    1.04362488    3.93922861    0.00000000   1       1  O
   -3.04064129    1.07107817    0.00000000   2       2  N
    2.05460145    1.21358207    0.00000000   2       3  N
    0.99901410   -1.73264380    0.00000000   2       4  N
   -2.13235164   -1.81296822    0.00000000   2       5  N
    3.86019055   -1.11229818    0.00000000   2       6  N
   -1.23618322    1.15296446    0.00000000   3       7  Si
   -0.53292426   -0.93900627    0.00000000   3       8  Si
    0.63566047    2.37451677    0.00000000   3       9  Si
    2.24517024   -0.54996710    0.00000000   3      10  Si
   -3.44981666   -0.58366503    0.00000000   3      11  Si
    2.96371409    1.79099263    0.00000000   4      12  H
   -4.84559135   -1.12354966    0.00000000   4      13  H
    4.00702091   -2.15230856    0.00000000   4      14  H
    4.77219438   -0.50231816    0.00000000   4      15  H
   -2.26539909   -2.86460511    0.00000000   4      16  H
    7.17407841    6.42750834    0.00000000   3      17  Si
    9.07896238    7.63414728    0.00000000   3      18  Si
    8.58320824    3.66117337    0.00000000   3      19  Si
   10.66067853    6.13039053    0.00000000   3      20  Si
    7.23370108    4.71008077    0.00000000   2      21  N
    5.63494335    7.18118565    0.00000000   2      22  N
   10.23550350    4.39101059    0.00000000   2      23  N
    9.27030718    9.12630103    0.00000000   4      24  H
   12.14504651    6.34912135    0.00000000   4      25  H
    5.52359807    8.23038076    0.00000000   4      26  H
    4.70238564    6.55627147    0.00000000   4      27  H
    8.57298141    2.05306225    0.00000000   1      28  O
   11.01092938    3.66431903    0.00000000   4      29  H

outcell: Unit cell vectors (Ang):
       26.278284    0.000000    0.000000
        0.000000   20.778580    0.000000
        0.000000    0.000000    9.854683

outcell: Cell vector modules (Ang)   :   26.278284   20.778580    9.854683
outcell: Cell angles (23,13,12) (deg):     90.0000     90.0000     90.0000
outcell: Cell volume (Ang**3)        :   5380.9076
<dSpData1D:S at geom step 0
  <sparsity:sparsity for geom step 0
    nrows_g=297 nrows=81 sparsity=.1536 nnzs=13546, refcount: 8>
  <dData1D:(new from dSpData1D) n=13546, refcount: 1>
refcount: 1>
new_DM -- step:     1
Initializing Density Matrix...
DM filled with atomic data:
<dSpData2D:DM initialized from atoms
  <sparsity:sparsity for geom step 0
    nrows_g=297 nrows=81 sparsity=.1536 nnzs=13546, refcount: 9>
  <dData2D:DM n=13546 m=8, refcount: 1>
refcount: 1>
     spin moment: S , {S} =   56.00000   0.00000   0.00000  56.00000
No. of atoms with KB's overlaping orbs in proc 0. Max # of overlaps:      29     142

Initializing spin-orbit part of the Hamiltonian
  Adding spin-orbit effects for O 
  Adding spin-orbit effects for N 
  Adding spin-orbit effects for Si
  Adding spin-orbit effects for H 


New grid distribution:   1
           1       1:  150    1:   60    1:   30
           2       1:  150    1:   60   31:   60
           3       1:  150   61:  120    1:   30
           4       1:  150   61:  120   31:   60

InitMesh: MESH =   300 x   240 x   120 =     8640000
InitMesh: (bp) =   150 x   120 x    60 =     1080000
InitMesh: Mesh cutoff (required, used) =   340.000   360.205 Ry
ExtMesh (bp) on 0 =   254 x   164 x   142 =     5915152
New grid distribution:   2
           1      50:  150    1:   33    1:   60
           2       1:   49    1:   33    1:   60
           3      50:  150   34:  120    1:   60
           4       1:   49   34:  120    1:   60
New grid distribution:   3
           1      53:  150    1:   37    1:   60
           2       1:   52    1:   39    1:   60
           3      53:  150   38:  120    1:   60
           4       1:   52   40:  120    1:   60
Setting up quadratic distribution...
ExtMesh (bp) on 0 =   205 x   137 x   172 =     4830620
PhiOnMesh: Number of (b)points on node 0 =               199980
PhiOnMesh: nlist on node 0 =              2516763

stepf: Fermi-Dirac step function

siesta: Program's energy decomposition (eV):
siesta: Ebs     =      -619.233073
siesta: Eions   =      3585.165840
siesta: Ena     =       382.019137
siesta: Ekin    =      3370.115050
siesta: Enl     =     -3298.655080
siesta: Eso     =        -0.003410
siesta: Edftu   =         0.000000
siesta: DEna    =       153.742963
siesta: DUscf   =        81.792483
siesta: DUext   =         0.000000
siesta: Exc     =     -1204.280614
siesta: eta*DQ  =         0.000000
siesta: Emadel  =         0.000000
siesta: Emeta   =         0.000000
siesta: Emolmec =         0.000000
siesta: Ekinion =         0.000000
siesta: Eharris =     -4020.675500
siesta: Etot    =     -4100.435311
siesta: FreeEng =     -4100.436732

        iscf     Eharris(eV)        E_KS(eV)     FreeEng(eV)     dDmax    Ef(eV) dHmax(eV)
   scf:    1    -4020.675500    -4100.435311    -4100.436732  0.965013 -4.904563 21.822161
     spin moment: S , {S} =    2.00727  -0.00000   0.00000   2.00727
timer: Routine,Calls,Time,% = IterSCF        1      14.003  18.85
   scf:    2    -4147.458968    -4136.007767    -4136.009456  0.452456 -4.221021 11.645087
     spin moment: S , {S} =    1.98992   0.00000   0.00000   1.98992
   scf:    3    -4108.557212    -4133.727445    -4133.741337  0.422554 -4.327954 11.795589
     spin moment: S , {S} =    2.05018  -0.00000  -0.00000   2.05018
   scf:    4    -4149.626813    -4144.997939    -4144.997939  0.313421 -3.900519  6.870184
     spin moment: S , {S} =    0.00010  -0.00000  -0.00000   0.00010
   scf:    5    -4146.324871    -4145.766908    -4145.766908  0.036258 -3.679017  4.366753
     spin moment: S , {S} =    0.00006   0.00000   0.00000   0.00006
   scf:    6    -4146.550791    -4146.168535    -4146.168535  0.024433 -3.532009  2.102598
     spin moment: S , {S} =    0.00003  -0.00000  -0.00000   0.00003
   scf:    7    -4146.520943    -4146.341533    -4146.341533  0.021209 -3.745301  0.884934
     spin moment: S , {S} =    0.00001   0.00000  -0.00000   0.00001
   scf:    8    -4146.460938    -4146.399285    -4146.399285  0.012305 -3.675967  0.499754
     spin moment: S , {S} =    0.00000  -0.00000  -0.00000   0.00000
   scf:    9    -4146.437491    -4146.417718    -4146.417718  0.006488 -3.791329  0.372247
     spin moment: S , {S} =    0.00000  -0.00000  -0.00000   0.00000
   scf:   10    -4146.468228    -4146.437107    -4146.437107  0.021045 -3.795070  0.220407
     spin moment: S , {S} =    0.00000  -0.00000  -0.00000  -0.00000
   scf:   11    -4146.440771    -4146.438921    -4146.438921  0.005637 -3.782576  0.057626
     spin moment: S , {S} =    0.00000   0.00000  -0.00000  -0.00000
   scf:   12    -4146.439937    -4146.439442    -4146.439442  0.001035 -3.777867  0.025186
     spin moment: S , {S} =    0.00000   0.00000   0.00000   0.00000
   scf:   13    -4146.439883    -4146.439659    -4146.439659  0.001295 -3.774984  0.016153
     spin moment: S , {S} =    0.00000   0.00000   0.00000   0.00000
   scf:   14    -4146.439902    -4146.439774    -4146.439774  0.001112 -3.774417  0.011394
     spin moment: S , {S} =    0.00000   0.00000   0.00000   0.00000
   scf:   15    -4146.439878    -4146.439823    -4146.439823  0.000916 -3.773637  0.008559
     spin moment: S , {S} =    0.00000   0.00000   0.00000   0.00000
   scf:   16    -4146.439902    -4146.439857    -4146.439857  0.001071 -3.774290  0.005577
     spin moment: S , {S} =    0.00000   0.00000   0.00000   0.00000
   scf:   17    -4146.439876    -4146.439865    -4146.439865  0.000474 -3.774337  0.004196
     spin moment: S , {S} =    0.00000   0.00000   0.00000   0.00000
   scf:   18    -4146.439875    -4146.439870    -4146.439870  0.000366 -3.773316  0.002526
     spin moment: S , {S} =    0.00000   0.00000   0.00000   0.00000
   scf:   19    -4146.439875    -4146.439872    -4146.439872  0.000278 -3.773462  0.001540
     spin moment: S , {S} =    0.00000   0.00000   0.00000   0.00000
   scf:   20    -4146.439874    -4146.439873    -4146.439873  0.000200 -3.773454  0.000819
     spin moment: S , {S} =    0.00000   0.00000  -0.00000   0.00000
   scf:   21    -4146.439874    -4146.439873    -4146.439873  0.000137 -3.773433  0.000315
     spin moment: S , {S} =    0.00000   0.00000   0.00000   0.00000
   scf:   22    -4146.439873    -4146.439873    -4146.439873  0.000053 -3.773400  0.000124
     spin moment: S , {S} =    0.00000   0.00000   0.00000   0.00000
   scf:   23    -4146.439873    -4146.439873    -4146.439873  0.000014 -3.773394  0.000079
     spin moment: S , {S} =    0.00000   0.00000   0.00000   0.00000
   scf:   24    -4146.439873    -4146.439873    -4146.439873  0.000006 -3.773390  0.000039
     spin moment: S , {S} =    0.00000   0.00000   0.00000   0.00000
mix: Pulay -- resetting history
   scf:   25    -4146.439873    -4146.439873    -4146.439873  0.000004 -3.773387  0.000026
     spin moment: S , {S} =    0.00000   0.00000   0.00000   0.00000
   scf:   26    -4146.439873    -4146.439873    -4146.439873  0.000001 -3.773386  0.000020
     spin moment: S , {S} =    0.00000   0.00000   0.00000   0.00000
   scf:   27    -4146.439873    -4146.439873    -4146.439873  0.000002 -3.773384  0.000012
     spin moment: S , {S} =    0.00000   0.00000   0.00000  -0.00000
   scf:   28    -4146.439873    -4146.439873    -4146.439873  0.000001 -3.773384  0.000007
     spin moment: S , {S} =    0.00000   0.00000   0.00000  -0.00000
   scf:   29    -4146.439873    -4146.439873    -4146.439873  0.000001 -3.773384  0.000004
     spin moment: S , {S} =    0.00000   0.00000   0.00000  -0.00000
   scf:   30    -4146.439873    -4146.439873    -4146.439873  0.000000 -3.773384  0.000003
     spin moment: S , {S} =    0.00000   0.00000   0.00000  -0.00000
   scf:   31    -4146.439873    -4146.439873    -4146.439873  0.000000 -3.773384  0.000001
     spin moment: S , {S} =    0.00000   0.00000   0.00000  -0.00000
   scf:   32    -4146.439873    -4146.439873    -4146.439873  0.000000 -3.773384  0.000001
     spin moment: S , {S} =    0.00000   0.00000   0.00000  -0.00000

SCF Convergence by DM+H criterion
max |DM_out - DM_in|         :     0.0000001603
max |H_out - H_in|      (eV) :     0.0000008060
SCF cycle converged after 32 iterations

Using DM_out to compute the final energy and forces
No. of atoms with KB's overlaping orbs in proc 0. Max # of overlaps:      29     142

siesta: E_KS(eV) =            -4146.4399

siesta: E_KS - E_eggbox =     -4146.4399
     spin moment: S , {S} =    0.00000   0.00000   0.00000  -0.00000

siesta: Atomic forces (eV/Ang):
     1    1.809654   -0.542088    0.000000
     2    0.012345    0.027449   -0.000000
     3    0.766541   -0.387764   -0.000000
     4    0.740329   -0.021275    0.000000
     5    0.044581   -0.091643   -0.000000
     6    1.815179    0.690282    0.000000
     7    0.042793   -0.258107    0.000000
     8   -0.418327    0.289676    0.000000
     9   -0.191470    1.269303    0.000000
    10   -1.035197    0.363230   -0.000000
    11   -0.023125   -0.020572    0.000000
    12   -0.322746   -0.167223   -0.000000
    13    0.093872   -0.007565    0.000000
    14    0.277589   -0.117759   -0.000000
    15   -1.323658   -0.908581    0.000000
    16   -0.168743    0.201339    0.000000
    17    1.022519   -1.115244   -0.000000
    18   -0.217871    0.199613    0.000000
    19   -0.195739   -1.268541    0.000000
    20   -0.014273   -0.420986   -0.000000
    21   -0.315654    1.051288    0.000000
    22   -2.194835   -0.901486   -0.000000
    23    0.250807    0.544545   -0.000000
    24    0.124959   -0.068056   -0.000000
    25    0.105166   -0.005406    0.000000
    26   -0.372782   -0.308051   -0.000000
    27    1.690003    1.401992    0.000000
    28    2.463870    2.729570    0.000000
    29   -0.022792    0.069546    0.000000
----------------------------------------
   Tot    4.442995    2.227486    0.000000
----------------------------------------
   Max    2.729570
   Res    0.716836    sqrt( Sum f_i^2 / 3N )
----------------------------------------
   Max    2.729570    constrained

Stress tensor Voigt[x,y,z,yz,xz,xy] (kbar):       -0.02        1.64       -0.10        0.00        0.00        1.39
(Free)E + p*V (eV/cell)    -4148.1347
Target enthalpy (eV/cell)    -4146.4399

mulliken: Atomic and Orbital Populations:

Species: O                   

Atom      Orb        Charge      Spin       Svec
----------------------------------------------------------------
    1  1 2s         1.74692   0.00000     -0.000   0.000  -0.000
    1  2 2s         0.06722   0.00000      0.000  -0.000   0.000
    1  3 2py        1.42890   0.00000      0.000   0.000  -0.000
    1  4 2pz        1.54641   0.00000     -0.000  -0.000  -0.000
    1  5 2px        1.62637   0.00000     -0.000  -0.000  -0.000
    1  6 2py        0.03750   0.00000     -0.000  -0.000   0.000
    1  7 2pz       -0.00642   0.00000      0.000   0.000   0.000
    1  8 2px        0.00428   0.00000      0.000   0.000   0.000
    1  9 3Pdxy      0.00699   0.00000     -0.000   0.000   0.000
    1 10 3Pdyz      0.00900   0.00000     -0.000  -0.000   0.000
    1 11 3Pdz2      0.00158   0.00000      0.000   0.000  -0.000
    1 12 3Pdxz      0.00037   0.00000      0.000   0.000   0.000
    1 13 3Pdx2-y2   0.00691   0.00000     -0.000   0.000   0.000
    1     Total     6.47603   0.00000     -0.000  -0.000  -0.000

   28  1 2s         1.74556   0.00000      0.000  -0.000   0.000
   28  2 2s         0.06693   0.00000     -0.000   0.000   0.000
   28  3 2py        1.41124   0.00000      0.000  -0.000  -0.000
   28  4 2pz        1.54522   0.00000      0.000  -0.000  -0.000
   28  5 2px        1.64566   0.00000      0.000   0.000  -0.000
   28  6 2py        0.04127   0.00000     -0.000  -0.000   0.000
   28  7 2pz       -0.00487   0.00000     -0.000   0.000   0.000
   28  8 2px        0.00956   0.00000      0.000  -0.000   0.000
   28  9 3Pdxy      0.00639   0.00000      0.000  -0.000   0.000
   28 10 3Pdyz      0.00970   0.00000     -0.000   0.000   0.000
   28 11 3Pdz2      0.00125   0.00000      0.000   0.000  -0.000
   28 12 3Pdxz     -0.00018   0.00000     -0.000   0.000   0.000
   28 13 3Pdx2-y2   0.00768   0.00000      0.000  -0.000  -0.000
   28     Total     6.48540   0.00000      0.000  -0.000  -0.000

----------------------------------------------------------------
Total              12.96143   0.00000      0.000  -0.000  -0.000


Species: N                   

Atom      Orb        Charge      Spin       Svec
----------------------------------------------------------------
    2  1 2s         1.55114   0.00000      0.000  -0.000  -0.000
    2  2 2s         0.08425   0.00000     -0.000   0.000   0.000
    2  3 2py        1.04399   0.00000     -0.000  -0.000  -0.000
    2  4 2pz        1.22425   0.00000     -0.000  -0.000  -0.000
    2  5 2px        0.98997   0.00000     -0.000  -0.000  -0.000
    2  6 2py        0.18834   0.00000      0.000   0.000   0.000
    2  7 2pz        0.05540   0.00000      0.000  -0.000   0.000
    2  8 2px        0.19580   0.00000      0.000   0.000   0.000
    2  9 3Pdxy      0.00839   0.00000     -0.000  -0.000  -0.000
    2 10 3Pdyz      0.01098   0.00000      0.000  -0.000   0.000
    2 11 3Pdz2      0.00195   0.00000      0.000   0.000   0.000
    2 12 3Pdxz      0.00758   0.00000     -0.000   0.000   0.000
    2 13 3Pdx2-y2   0.00908   0.00000      0.000   0.000  -0.000
    2     Total     5.37110   0.00000     -0.000  -0.000  -0.000

    3  1 2s         1.40058   0.00000     -0.000   0.000  -0.000
    3  2 2s         0.11645   0.00000     -0.000  -0.000   0.000
    3  3 2py        0.94177   0.00000      0.000  -0.000  -0.000
    3  4 2pz        1.54373   0.00000      0.000  -0.000  -0.000
    3  5 2px        1.08269   0.00000     -0.000  -0.000  -0.000
    3  6 2py        0.24849   0.00000     -0.000  -0.000   0.000
    3  7 2pz        0.00710   0.00000     -0.000   0.000   0.000
    3  8 2px        0.17818   0.00000      0.000   0.000   0.000
    3  9 3Pdxy      0.00397   0.00000     -0.000  -0.000   0.000
    3 10 3Pdyz      0.00416   0.00000     -0.000  -0.000  -0.000
    3 11 3Pdz2      0.00074   0.00000     -0.000  -0.000   0.000
    3 12 3Pdxz      0.00277   0.00000      0.000   0.000  -0.000
    3 13 3Pdx2-y2   0.00281   0.00000      0.000  -0.000  -0.000
    3     Total     5.53346   0.00000     -0.000  -0.000  -0.000

    4  1 2s         1.45992   0.00000      0.000   0.000  -0.000
    4  2 2s         0.11888   0.00000     -0.000  -0.000   0.000
    4  3 2py        1.13077   0.00000      0.000   0.000  -0.000
    4  4 2pz        1.29476   0.00000      0.000  -0.000  -0.000
    4  5 2px        0.82600   0.00000     -0.000  -0.000  -0.000
    4  6 2py        0.14961   0.00000      0.000  -0.000   0.000
    4  7 2pz        0.05353   0.00000      0.000   0.000   0.000
    4  8 2px        0.29227   0.00000      0.000   0.000   0.000
    4  9 3Pdxy      0.00869   0.00000     -0.000   0.000   0.000
    4 10 3Pdyz      0.01045   0.00000     -0.000   0.000   0.000
    4 11 3Pdz2      0.00126   0.00000     -0.000   0.000   0.000
    4 12 3Pdxz      0.00497   0.00000     -0.000   0.000   0.000
    4 13 3Pdx2-y2   0.00798   0.00000     -0.000  -0.000  -0.000
    4     Total     5.35909   0.00000      0.000  -0.000  -0.000

    5  1 2s         1.37605   0.00000     -0.000   0.000  -0.000
    5  2 2s         0.12803   0.00000      0.000  -0.000   0.000
    5  3 2py        1.02585   0.00000      0.000   0.000  -0.000
    5  4 2pz        1.50080   0.00000     -0.000   0.000  -0.000
    5  5 2px        1.05998   0.00000     -0.000  -0.000  -0.000
    5  6 2py        0.20390   0.00000     -0.000  -0.000   0.000
    5  7 2pz        0.01340   0.00000      0.000  -0.000   0.000
    5  8 2px        0.20098   0.00000      0.000   0.000   0.000
    5  9 3Pdxy      0.00393   0.00000     -0.000  -0.000   0.000
    5 10 3Pdyz      0.00241   0.00000     -0.000  -0.000   0.000
    5 11 3Pdz2      0.00142   0.00000     -0.000  -0.000   0.000
    5 12 3Pdxz      0.00684   0.00000      0.000   0.000   0.000
    5 13 3Pdx2-y2   0.00558   0.00000      0.000   0.000   0.000
    5     Total     5.52917   0.00000     -0.000  -0.000  -0.000

    6  1 2s         1.27003   0.00000     -0.000  -0.000  -0.000
    6  2 2s         0.17903   0.00000      0.000   0.000   0.000
    6  3 2py        1.07761   0.00000      0.000  -0.000  -0.000
    6  4 2pz        1.57268   0.00000     -0.000   0.000  -0.000
    6  5 2px        0.95728   0.00000      0.000  -0.000  -0.000
    6  6 2py        0.18779   0.00000     -0.000   0.000   0.000
    6  7 2pz        0.02991   0.00000      0.000  -0.000   0.000
    6  8 2px        0.25533   0.00000     -0.000   0.000   0.000
    6  9 3Pdxy      0.00242   0.00000      0.000  -0.000   0.000
    6 10 3Pdyz      0.00015   0.00000      0.000  -0.000  -0.000
    6 11 3Pdz2      0.00175   0.00000      0.000   0.000   0.000
    6 12 3Pdxz      0.00328   0.00000      0.000   0.000  -0.000
    6 13 3Pdx2-y2   0.00397   0.00000      0.000   0.000   0.000
    6     Total     5.54124   0.00000      0.000   0.000  -0.000

   21  1 2s         1.42359   0.00000      0.000  -0.000   0.000
   21  2 2s         0.12823   0.00000     -0.000   0.000  -0.000
   21  3 2py        0.87151   0.00000     -0.000   0.000  -0.000
   21  4 2pz        1.29520   0.00000      0.000  -0.000  -0.000
   21  5 2px        1.15696   0.00000      0.000   0.000  -0.000
   21  6 2py        0.27553   0.00000      0.000  -0.000   0.000
   21  7 2pz        0.04887   0.00000     -0.000   0.000   0.000
   21  8 2px        0.16294   0.00000     -0.000  -0.000   0.000
   21  9 3Pdxy      0.00645   0.00000      0.000   0.000   0.000
   21 10 3Pdyz      0.00504   0.00000      0.000  -0.000  -0.000
   21 11 3Pdz2      0.00016   0.00000     -0.000  -0.000  -0.000
   21 12 3Pdxz      0.00577   0.00000      0.000   0.000  -0.000
   21 13 3Pdx2-y2   0.00560   0.00000     -0.000   0.000  -0.000
   21     Total     5.38586   0.00000      0.000  -0.000  -0.000

   22  1 2s         1.29436   0.00000     -0.000   0.000  -0.000
   22  2 2s         0.16793   0.00000      0.000  -0.000   0.000
   22  3 2py        1.05671   0.00000      0.000   0.000  -0.000
   22  4 2pz        1.55560   0.00000     -0.000  -0.000  -0.000
   22  5 2px        0.98411   0.00000      0.000  -0.000  -0.000
   22  6 2py        0.19686   0.00000     -0.000  -0.000   0.000
   22  7 2pz        0.02838   0.00000     -0.000   0.000   0.000
   22  8 2px        0.23480   0.00000     -0.000   0.000   0.000
   22  9 3Pdxy      0.00327   0.00000     -0.000  -0.000   0.000
   22 10 3Pdyz      0.00034   0.00000     -0.000   0.000  -0.000
   22 11 3Pdz2      0.00254   0.00000      0.000  -0.000   0.000
   22 12 3Pdxz      0.00319   0.00000      0.000  -0.000  -0.000
   22 13 3Pdx2-y2   0.00473   0.00000      0.000  -0.000  -0.000
   22     Total     5.53281   0.00000     -0.000  -0.000  -0.000

   23  1 2s         1.39706   0.00000     -0.000   0.000  -0.000
   23  2 2s         0.11796   0.00000      0.000  -0.000  -0.000
   23  3 2py        1.00733   0.00000      0.000   0.000  -0.000
   23  4 2pz        1.52514   0.00000     -0.000   0.000  -0.000
   23  5 2px        1.06496   0.00000      0.000  -0.000  -0.000
   23  6 2py        0.21132   0.00000     -0.000  -0.000   0.000
   23  7 2pz        0.00493   0.00000     -0.000  -0.000   0.000
   23  8 2px        0.19793   0.00000     -0.000   0.000   0.000
   23  9 3Pdxy      0.00529   0.00000      0.000  -0.000   0.000
   23 10 3Pdyz      0.00445   0.00000      0.000   0.000  -0.000
   23 11 3Pdz2      0.00062   0.00000     -0.000  -0.000  -0.000
   23 12 3Pdxz      0.00244   0.00000      0.000   0.000  -0.000
   23 13 3Pdx2-y2   0.00137   0.00000     -0.000  -0.000  -0.000
   23     Total     5.54080   0.00000      0.000   0.000  -0.000

----------------------------------------------------------------
Total              56.75497   0.00000      0.000  -0.000  -0.000


Species: Si                  

Atom      Orb        Charge      Spin       Svec
----------------------------------------------------------------
    7  1 3s         0.66797   0.00000      0.000   0.000   0.000
    7  2 3s         0.36482   0.00000     -0.000  -0.000   0.000
    7  3 3py        0.48833   0.00000     -0.000  -0.000  -0.000
    7  4 3pz        0.69146   0.00000      0.000  -0.000  -0.000
    7  5 3px        0.12518   0.00000      0.000   0.000  -0.000
    7  6 3py        0.26427   0.00000      0.000   0.000   0.000
    7  7 3pz        0.25891   0.00000     -0.000   0.000   0.000
    7  8 3px        0.43805   0.00000     -0.000  -0.000   0.000
    7  9 3Pdxy      0.24553   0.00000     -0.000  -0.000   0.000
    7 10 3Pdyz      0.02932   0.00000     -0.000  -0.000   0.000
    7 11 3Pdz2      0.01176   0.00000     -0.000   0.000   0.000
    7 12 3Pdxz      0.14554   0.00000      0.000  -0.000  -0.000
    7 13 3Pdx2-y2   0.11292   0.00000      0.000   0.000  -0.000
    7     Total     3.84407   0.00000     -0.000  -0.000   0.000

    8  1 3s         0.65684   0.00000      0.000  -0.000   0.000
    8  2 3s         0.36851   0.00000     -0.000   0.000   0.000
    8  3 3py        0.38815   0.00000      0.000   0.000  -0.000
    8  4 3pz        0.52488   0.00000      0.000   0.000   0.000
    8  5 3px       -0.03062   0.00000     -0.000   0.000   0.000
    8  6 3py        0.30886   0.00000     -0.000  -0.000   0.000
    8  7 3pz        0.20206   0.00000     -0.000   0.000   0.000
    8  8 3px        0.51467   0.00000     -0.000  -0.000  -0.000
    8  9 3Pdxy      0.24600   0.00000     -0.000  -0.000   0.000
    8 10 3Pdyz      0.11216   0.00000     -0.000  -0.000  -0.000
    8 11 3Pdz2      0.01451   0.00000     -0.000  -0.000   0.000
    8 12 3Pdxz      0.15341   0.00000      0.000   0.000   0.000
    8 13 3Pdx2-y2   0.20027   0.00000     -0.000   0.000   0.000
    8     Total     3.65971   0.00000      0.000   0.000   0.000

    9  1 3s         0.60479   0.00000      0.000   0.000   0.000
    9  2 3s         0.36601   0.00000     -0.000  -0.000  -0.000
    9  3 3py        0.07516   0.00000     -0.000   0.000  -0.000
    9  4 3pz        0.48493   0.00000      0.000   0.000  -0.000
    9  5 3px        0.37963   0.00000      0.000   0.000  -0.000
    9  6 3py        0.44751   0.00000     -0.000  -0.000   0.000
    9  7 3pz        0.18700   0.00000     -0.000  -0.000  -0.000
    9  8 3px        0.27323   0.00000     -0.000  -0.000   0.000
    9  9 3Pdxy      0.31259   0.00000     -0.000  -0.000  -0.000
    9 10 3Pdyz      0.19014   0.00000     -0.000  -0.000  -0.000
    9 11 3Pdz2      0.01642   0.00000     -0.000  -0.000  -0.000
    9 12 3Pdxz      0.09754   0.00000      0.000  -0.000  -0.000
    9 13 3Pdx2-y2   0.17204   0.00000     -0.000  -0.000   0.000
    9     Total     3.60700   0.00000      0.000   0.000  -0.000

   10  1 3s         0.48256   0.00000      0.000   0.000   0.000
   10  2 3s         0.37777   0.00000     -0.000  -0.000   0.000
   10  3 3py        0.24135   0.00000      0.000  -0.000   0.000
   10  4 3pz        0.40857   0.00000     -0.000   0.000   0.000
   10  5 3px        0.10120   0.00000     -0.000   0.000   0.000
   10  6 3py        0.32755   0.00000      0.000   0.000   0.000
   10  7 3pz        0.22258   0.00000     -0.000  -0.000   0.000
   10  8 3px        0.42894   0.00000     -0.000  -0.000   0.000
   10  9 3Pdxy      0.16946   0.00000     -0.000   0.000  -0.000
   10 10 3Pdyz      0.13977   0.00000     -0.000   0.000   0.000
   10 11 3Pdz2      0.01033   0.00000     -0.000  -0.000   0.000
   10 12 3Pdxz      0.17483   0.00000     -0.000   0.000   0.000
   10 13 3Pdx2-y2   0.30999   0.00000      0.000   0.000  -0.000
   10     Total     3.39491   0.00000     -0.000   0.000   0.000

   11  1 3s         0.55264   0.00000     -0.000  -0.000   0.000
   11  2 3s         0.38533   0.00000      0.000   0.000   0.000
   11  3 3py        0.32184   0.00000      0.000  -0.000   0.000
   11  4 3pz        0.54064   0.00000      0.000  -0.000   0.000
   11  5 3px        0.12414   0.00000      0.000  -0.000   0.000
   11  6 3py        0.28681   0.00000     -0.000   0.000   0.000
   11  7 3pz        0.17742   0.00000      0.000   0.000   0.000
   11  8 3px        0.44647   0.00000     -0.000   0.000   0.000
   11  9 3Pdxy      0.22533   0.00000      0.000  -0.000   0.000
   11 10 3Pdyz      0.12632   0.00000      0.000  -0.000   0.000
   11 11 3Pdz2      0.00958   0.00000     -0.000   0.000  -0.000
   11 12 3Pdxz      0.05277   0.00000     -0.000   0.000   0.000
   11 13 3Pdx2-y2   0.20385   0.00000     -0.000   0.000   0.000
   11     Total     3.45315   0.00000      0.000  -0.000   0.000

   17  1 3s         0.63900   0.00000     -0.000  -0.000   0.000
   17  2 3s         0.36075   0.00000      0.000   0.000  -0.000
   17  3 3py        0.22716   0.00000      0.000   0.000   0.000
   17  4 3pz        0.42279   0.00000      0.000   0.000   0.000
   17  5 3px        0.24477   0.00000      0.000  -0.000   0.000
   17  6 3py        0.38766   0.00000     -0.000  -0.000  -0.000
   17  7 3pz        0.21150   0.00000     -0.000  -0.000   0.000
   17  8 3px        0.36882   0.00000     -0.000   0.000  -0.000
   17  9 3Pdxy      0.30162   0.00000      0.000  -0.000  -0.000
   17 10 3Pdyz      0.14277   0.00000      0.000   0.000   0.000
   17 11 3Pdz2      0.00906   0.00000     -0.000   0.000   0.000
   17 12 3Pdxz      0.14331   0.00000      0.000  -0.000   0.000
   17 13 3Pdx2-y2   0.16356   0.00000     -0.000  -0.000   0.000
   17     Total     3.62277   0.00000      0.000  -0.000   0.000

   18  1 3s         0.74422   0.00000     -0.000   0.000   0.000
   18  2 3s         0.33961   0.00000      0.000  -0.000   0.000
   18  3 3py        0.07899   0.00000      0.000  -0.000   0.000
   18  4 3pz        0.82121   0.00000     -0.000  -0.000   0.000
   18  5 3px        0.55531   0.00000     -0.000   0.000   0.000
   18  6 3py        0.51834   0.00000     -0.000   0.000   0.000
   18  7 3pz        0.19776   0.00000      0.000   0.000   0.000
   18  8 3px        0.25024   0.00000      0.000  -0.000   0.000
   18  9 3Pdxy      0.10332   0.00000      0.000   0.000  -0.000
   18 10 3Pdyz      0.02746   0.00000     -0.000  -0.000  -0.000
   18 11 3Pdz2      0.00871   0.00000     -0.000   0.000  -0.000
   18 12 3Pdxz      0.03027   0.00000      0.000  -0.000  -0.000
   18 13 3Pdx2-y2   0.11295   0.00000     -0.000   0.000   0.000
   18     Total     3.78840   0.00000     -0.000   0.000   0.000

   19  1 3s         0.45985   0.00000     -0.000   0.000   0.000
   19  2 3s         0.36488   0.00000      0.000   0.000  -0.000
   19  3 3py        0.08296   0.00000      0.000   0.000   0.000
   19  4 3pz        0.42945   0.00000     -0.000   0.000   0.000
   19  5 3px        0.35798   0.00000      0.000  -0.000   0.000
   19  6 3py        0.47016   0.00000     -0.000  -0.000  -0.000
   19  7 3pz        0.18263   0.00000      0.000   0.000   0.000
   19  8 3px        0.23826   0.00000     -0.000   0.000  -0.000
   19  9 3Pdxy      0.34210   0.00000     -0.000   0.000  -0.000
   19 10 3Pdyz      0.18870   0.00000     -0.000   0.000  -0.000
   19 11 3Pdz2      0.01602   0.00000      0.000   0.000   0.000
   19 12 3Pdxz      0.08816   0.00000     -0.000   0.000   0.000
   19 13 3Pdx2-y2   0.23791   0.00000      0.000   0.000   0.000
   19     Total     3.45907   0.00000     -0.000   0.000   0.000

   20  1 3s         0.67346   0.00000      0.000  -0.000  -0.000
   20  2 3s         0.37796   0.00000     -0.000   0.000   0.000
   20  3 3py        0.33057   0.00000     -0.000   0.000  -0.000
   20  4 3pz        0.59093   0.00000      0.000  -0.000  -0.000
   20  5 3px        0.13806   0.00000     -0.000   0.000  -0.000
   20  6 3py        0.29221   0.00000      0.000  -0.000  -0.000
   20  7 3pz        0.16374   0.00000     -0.000   0.000  -0.000
   20  8 3px        0.49980   0.00000      0.000   0.000   0.000
   20  9 3Pdxy      0.10015   0.00000     -0.000   0.000  -0.000
   20 10 3Pdyz      0.13368   0.00000     -0.000   0.000  -0.000
   20 11 3Pdz2      0.00736   0.00000      0.000  -0.000   0.000
   20 12 3Pdxz      0.02694   0.00000      0.000   0.000  -0.000
   20 13 3Pdx2-y2   0.17215   0.00000     -0.000   0.000  -0.000
   20     Total     3.50699   0.00000     -0.000   0.000  -0.000

----------------------------------------------------------------
Total              89.09103   0.00000     -0.000   0.000   0.000


Species: H                   

Atom      Orb        Charge      Spin       Svec
----------------------------------------------------------------
   12  1 1s         0.49563   0.00000      0.000   0.000   0.000
   12  2 1s         0.18200   0.00000     -0.000  -0.000   0.000
   12  3 2Ppy       0.02905   0.00000     -0.000   0.000  -0.000
   12  4 2Ppz       0.03392   0.00000     -0.000   0.000   0.000
   12  5 2Ppx       0.02275   0.00000     -0.000   0.000   0.000
   12     Total     0.76335   0.00000     -0.000   0.000   0.000

   13  1 1s         1.01915   0.00000     -0.000   0.000  -0.000
   13  2 1s         0.09544   0.00000     -0.000  -0.000   0.000
   13  3 2Ppy       0.01808   0.00000     -0.000   0.000  -0.000
   13  4 2Ppz       0.02008   0.00000     -0.000  -0.000   0.000
   13  5 2Ppx       0.03514   0.00000     -0.000  -0.000   0.000
   13     Total     1.18790   0.00000     -0.000   0.000  -0.000

   14  1 1s         0.46017   0.00000     -0.000   0.000   0.000
   14  2 1s         0.20011   0.00000     -0.000  -0.000   0.000
   14  3 2Ppy       0.01788   0.00000      0.000  -0.000  -0.000
   14  4 2Ppz       0.04541   0.00000      0.000   0.000  -0.000
   14  5 2Ppx       0.01712   0.00000      0.000  -0.000   0.000
   14     Total     0.74069   0.00000     -0.000   0.000   0.000

   15  1 1s         0.49461   0.00000     -0.000  -0.000  -0.000
   15  2 1s         0.17875   0.00000      0.000   0.000   0.000
   15  3 2Ppy       0.00506   0.00000      0.000  -0.000   0.000
   15  4 2Ppz       0.04199   0.00000      0.000  -0.000  -0.000
   15  5 2Ppx       0.02809   0.00000      0.000  -0.000  -0.000
   15     Total     0.74850   0.00000      0.000  -0.000   0.000

   16  1 1s         0.51017   0.00000     -0.000  -0.000   0.000
   16  2 1s         0.18737   0.00000      0.000   0.000   0.000
   16  3 2Ppy       0.02982   0.00000     -0.000  -0.000   0.000
   16  4 2Ppz       0.03981   0.00000      0.000  -0.000  -0.000
   16  5 2Ppx       0.02359   0.00000      0.000   0.000   0.000
   16     Total     0.79076   0.00000      0.000  -0.000   0.000

   24  1 1s         1.06326   0.00000      0.000  -0.000  -0.000
   24  2 1s         0.07422   0.00000     -0.000   0.000   0.000
   24  3 2Ppy       0.03213   0.00000      0.000  -0.000   0.000
   24  4 2Ppz       0.03069   0.00000      0.000   0.000   0.000
   24  5 2Ppx       0.01729   0.00000      0.000  -0.000  -0.000
   24     Total     1.21759   0.00000      0.000  -0.000  -0.000

   25  1 1s         1.04320   0.00000      0.000  -0.000  -0.000
   25  2 1s         0.08645   0.00000     -0.000   0.000  -0.000
   25  3 2Ppy       0.01226   0.00000     -0.000   0.000  -0.000
   25  4 2Ppz       0.01849   0.00000     -0.000  -0.000  -0.000
   25  5 2Ppx       0.03569   0.00000     -0.000   0.000   0.000
   25     Total     1.19609   0.00000      0.000  -0.000  -0.000

   26  1 1s         0.47508   0.00000     -0.000   0.000   0.000
   26  2 1s         0.19643   0.00000      0.000  -0.000   0.000
   26  3 2Ppy       0.02100   0.00000     -0.000  -0.000  -0.000
   26  4 2Ppz       0.04882   0.00000     -0.000   0.000  -0.000
   26  5 2Ppx       0.01601   0.00000     -0.000   0.000  -0.000
   26     Total     0.75734   0.00000     -0.000   0.000   0.000

   27  1 1s         0.50947   0.00000     -0.000  -0.000   0.000
   27  2 1s         0.16921   0.00000     -0.000   0.000   0.000
   27  3 2Ppy       0.00660   0.00000      0.000  -0.000  -0.000
   27  4 2Ppz       0.03715   0.00000      0.000   0.000  -0.000
   27  5 2Ppx       0.02857   0.00000     -0.000   0.000   0.000
   27     Total     0.75100   0.00000      0.000   0.000  -0.000

   29  1 1s         0.48449   0.00000     -0.000   0.000   0.000
   29  2 1s         0.18765   0.00000      0.000   0.000   0.000
   29  3 2Ppy       0.02511   0.00000      0.000  -0.000  -0.000
   29  4 2Ppz       0.03434   0.00000      0.000  -0.000   0.000
   29  5 2Ppx       0.02415   0.00000      0.000  -0.000   0.000
   29     Total     0.75575   0.00000     -0.000  -0.000   0.000

----------------------------------------------------------------
Total              98.00000   0.00000      0.000   0.000  -0.000


siesta: Eigenvalues (eV):
ik =     1
  -21.8891  -21.8891  -21.8015  -21.8015  -21.5929  -21.5929  -21.5647  -21.5647  -21.2382  -21.2382
  -21.0058  -21.0058  -20.8341  -20.8341  -19.8263  -19.8263  -19.3869  -19.3869  -19.3678  -19.3678
  -14.7394  -14.7394  -13.8873  -13.8873  -13.3344  -13.3344  -13.1875  -13.1875  -13.1102  -13.1102
  -12.8669  -12.8669  -12.8468  -12.8468  -12.4525  -12.4525  -12.3813  -12.3813  -12.0163  -12.0163
  -11.4481  -11.4481  -10.7981  -10.7981  -10.7594  -10.7594  -10.7109  -10.7109  -10.0854  -10.0854
   -9.5336   -9.5336   -9.2408   -9.2408   -8.8684   -8.8684   -8.7101   -8.7101   -8.6573   -8.6573
   -8.6477   -8.6477   -8.3905   -8.3905   -8.1912   -8.1912   -7.8250   -7.8250   -7.6524   -7.6524
   -7.5712   -7.5712   -7.3304   -7.3304   -7.3092   -7.3092   -6.8881   -6.8881   -6.7422   -6.7422
   -6.5229   -6.5229   -6.4973   -6.4973   -6.1066   -6.1066   -6.0933   -6.0933   -6.0883   -6.0883
   -5.7118   -5.7118   -5.6488   -5.6488   -5.4435   -5.4435   -4.3157   -4.3157   -3.2326   -3.2326
   -2.3259   -2.3259   -2.2889   -2.2889   -2.2471   -2.2471   -1.8809   -1.8809   -1.8663   -1.8663
   -1.8280   -1.8280   -1.7665   -1.7665   -1.5615   -1.5615   -1.5372   -1.5372   -0.9818   -0.9818
   -0.9573   -0.9573   -0.8192   -0.8192   -0.3870   -0.3870   -0.1711   -0.1711    0.0364    0.0364
    0.3434    0.3434    0.4316    0.4316    0.5466    0.5466    0.7095    0.7095    0.7752    0.7752
    0.9878    0.9878    1.2508    1.2508    1.2867    1.2867    1.4055    1.4055    1.4504    1.4504
    1.6812    1.6812    1.8258    1.8258    1.9166    1.9166    2.3609    2.3609    2.7371    2.7371
    2.7422    2.7422    2.8325    2.8325    3.0150    3.0150    3.1286    3.1286    3.3289    3.3289
    3.3838    3.3838    3.7796    3.7796    3.8666    3.8666    4.0905    4.0905    4.2999    4.2999
    4.4262    4.4262    4.5111    4.5111    4.5844    4.5844    4.5955    4.5955    4.8526    4.8526
    4.9452    4.9453    5.0027    5.0027    5.2406    5.2406    5.4961    5.4961    5.6756    5.6756
    5.7058    5.7058    5.7737    5.7737    5.9214    5.9214    5.9819    5.9819    5.9901    5.9901
    6.1820    6.1820    6.3334    6.3334    6.6272    6.6272    6.7368    6.7368    6.8121    6.8121
    7.0532    7.0532    7.1952    7.1952    7.3897    7.3897    7.5363    7.5363    7.7358    7.7358
    7.8060    7.8060    8.0272    8.0272    8.0926    8.0926    8.2405    8.2405    8.2628    8.2628
    8.5347    8.5347    8.6834    8.6834    8.7690    8.7690    8.9462    8.9462    9.1939    9.1939
    9.2290    9.2290    9.2695    9.2695    9.7218    9.7218    9.8230    9.8230    9.8448    9.8448
    9.9902    9.9902   10.1641   10.1641   10.4338   10.4338   10.7813   10.7813   10.8585   10.8585
   10.9469   10.9469   11.0848   11.0848   11.1899   11.1899   11.7009   11.7009   11.8494   11.8494
   11.8850   11.8850   11.9340   11.9340   12.2024   12.2024   12.3956   12.3956   12.5358   12.5358
   12.7015   12.7015   12.7358   12.7358   13.4012   13.4012   13.5113   13.5113   13.7260   13.7260
   13.7874   13.7874   14.0477   14.0477   14.2316   14.2316   14.4642   14.4642   14.8270   14.8270
   14.8478   14.8478   15.3309   15.3309   15.9888   15.9888   16.4221   16.4221   16.6741   16.6741
   16.9523   16.9523   17.4056   17.4056   17.6769   17.6769   18.2319   18.2319   18.3366   18.3366
   18.5717   18.5717   19.0875   19.0875   19.3485   19.3485   19.9596   19.9596   20.2510   20.2510
   20.8899   20.8899   21.3204   21.3204   21.7987   21.7987   22.1764   22.1764   22.4514   22.4514
   23.1099   23.1099   23.2965   23.2965   23.7724   23.7724   23.8344   23.8344   23.8900   23.8900
   24.8300   24.8300   25.2108   25.2108   25.9849   25.9849   26.8105   26.8105   27.4707   27.4707
   28.5373   28.5373   29.0925   29.0925   29.1214   29.1214   29.5136   29.5136   29.5953   29.5953
   30.0683   30.0683   30.1551   30.1551   30.2417   30.2417   30.6318   30.6318   30.8182   30.8182
   31.0167   31.0167   31.1570   31.1570   31.4627   31.4627   31.6048   31.6048   32.2577   32.2577
   32.6973   32.6973   33.8761   33.8761   34.5112   34.5112   34.6707   34.6707   34.9445   34.9445
   34.9487   34.9487   35.0808   35.0808   35.3750   35.3750   35.6725   35.6725   35.8366   35.8366
   36.7582   36.7582   36.8434   36.8434   37.0461   37.0461   37.2339   37.2339   37.6065   37.6065
   38.1783   38.1783   38.3434   38.3434   39.3331   39.3331   39.4869   39.4869   39.8987   39.8987
   40.2387   40.2387   40.5582   40.5582   40.6059   40.6059   40.6870   40.6870   40.9564   40.9564
   41.1398   41.1398   41.4779   41.4779   42.3931   42.3931   42.6822   42.6822   42.9991   42.9991
   43.1675   43.1675   43.7505   43.7505   43.9268   43.9268   44.0541   44.0541   44.2398   44.2398
   44.6841   44.6841   44.7020   44.7020   45.1076   45.1076   45.3986   45.3986   46.0696   46.0696
   46.4504   46.4504   46.8660   46.8660   47.1933   47.1933   48.6024   48.6024   49.0610   49.0610
   49.4875   49.4875   50.3026   50.3026   50.5178   50.5178   50.6944   50.6944   50.9332   50.9332
   51.3826   51.3826   51.5380   51.5380   52.6975   52.6975   52.7799   52.7799   54.1934   54.1934
   54.3729   54.3729   54.4164   54.4164   54.9232   54.9232   55.7974   55.7974   55.8879   55.8879
   55.9084   55.9084   56.1489   56.1489   56.4931   56.4931   57.9361   57.9361   58.2582   58.2582
   58.6904   58.6904   60.1727   60.1727   60.4424   60.4424   60.8069   60.8069   61.1479   61.1479
   61.8080   61.8080   62.0464   62.0464   62.2624   62.2624   64.4886   64.4886   66.4451   66.4451
   67.1775   67.1775   67.2294   67.2294   68.1274   68.1274   68.7955   68.7955   70.8460   70.8460
   74.1036   74.1036   80.0128   80.0128   91.0821   91.0821   91.8996   91.8996   93.3674   93.3674
   98.3923   98.3923   98.8303   98.8303   99.6289   99.6289  103.3601  103.3601  103.7896  103.7896
  110.1579  110.1579  111.6707  111.6707  123.6387  123.6387  125.7026  125.7026  130.0192  130.0192
  135.0719  135.0719  138.3948  138.3948
siesta: Fermi energy =      -3.773384 eV

siesta: Program's energy decomposition (eV):
siesta: Ebs     =     -1134.235291
siesta: Eions   =      3585.165840
siesta: Ena     =       382.019137
siesta: Ekin    =      2903.310689
siesta: Enl     =     -2788.135601
siesta: Eso     =        -0.004280
siesta: Edftu   =         0.000000
siesta: DEna    =        47.020769
siesta: DUscf   =        14.321972
siesta: DUext   =         0.000000
siesta: Exc     =     -1119.806720
siesta: eta*DQ  =         0.000000
siesta: Emadel  =         0.000000
siesta: Emeta   =         0.000000
siesta: Emolmec =         0.000000
siesta: Ekinion =         0.000000
siesta: Eharris =     -4146.439873
siesta: Etot    =     -4146.439873
siesta: FreeEng =     -4146.439873

siesta: Final energy (eV):
siesta:  Band Struct. =   -1134.235291
siesta:       Kinetic =    2903.310689
siesta:       Hartree =    8219.418627
siesta:       Edftu   =       0.000000
siesta:       Eso     =      -0.004280
siesta:    Ext. field =       0.000000
siesta:   Exch.-corr. =   -1119.806720
siesta:  Ion-electron =  -19022.752840
siesta:       Ion-ion =    4873.394650
siesta:       Ekinion =       0.000000
siesta:         Total =   -4146.439873
siesta:         Fermi =      -3.773384

siesta: Atomic forces (eV/Ang):
siesta:      1    1.809654   -0.542088    0.000000
siesta:      2    0.012345    0.027449   -0.000000
siesta:      3    0.766541   -0.387764   -0.000000
siesta:      4    0.740329   -0.021275    0.000000
siesta:      5    0.044581   -0.091643   -0.000000
siesta:      6    1.815179    0.690282    0.000000
siesta:      7    0.042793   -0.258107    0.000000
siesta:      8   -0.418327    0.289676    0.000000
siesta:      9   -0.191470    1.269303    0.000000
siesta:     10   -1.035197    0.363230   -0.000000
siesta:     11   -0.023125   -0.020572    0.000000
siesta:     12   -0.322746   -0.167223   -0.000000
siesta:     13    0.093872   -0.007565    0.000000
siesta:     14    0.277589   -0.117759   -0.000000
siesta:     15   -1.323658   -0.908581    0.000000
siesta:     16   -0.168743    0.201339    0.000000
siesta:     17    1.022519   -1.115244   -0.000000
siesta:     18   -0.217871    0.199613    0.000000
siesta:     19   -0.195739   -1.268541    0.000000
siesta:     20   -0.014273   -0.420986   -0.000000
siesta:     21   -0.315654    1.051288    0.000000
siesta:     22   -2.194835   -0.901486   -0.000000
siesta:     23    0.250807    0.544545   -0.000000
siesta:     24    0.124959   -0.068056   -0.000000
siesta:     25    0.105166   -0.005406    0.000000
siesta:     26   -0.372782   -0.308051   -0.000000
siesta:     27    1.690003    1.401992    0.000000
siesta:     28    2.463870    2.729570    0.000000
siesta:     29   -0.022792    0.069546    0.000000
siesta: ----------------------------------------
siesta:    Tot    4.442995    2.227486    0.000000

siesta: Stress tensor (static) (eV/Ang**3):
siesta:    -0.000015    0.000869   -0.000000
siesta:     0.000869    0.001021   -0.000000
siesta:     0.000000    0.000000   -0.000061

siesta: Cell volume =       5380.907613 Ang**3

siesta: Pressure (static):
siesta:                Solid            Molecule  Units
siesta:          -0.00000343         -0.00000261  Ry/Bohr**3
siesta:          -0.00031497         -0.00024010  eV/Ang**3
siesta:          -0.50464055         -0.38467880  kBar
(Free)E+ p_basis*V_orbitals  =       -4126.589456
(Free)Eharris+ p_basis*V_orbitals  =       -4126.589456
     spin moment: S , {S} =    0.00000   0.00000   0.00000  -0.00000

siesta: Electric dipole (a.u.)  =    1.563460    0.038072   -0.000000
siesta: Electric dipole (Debye) =    3.973922    0.096769   -0.000000

cite: Please see "GC.bib" for an exhaustive BiBTeX file.
cite: Please clearly indicate Siesta version in published work: v4.1.5-1-g384057250
cite: This calculation has made use of the following articles
cite: which are encouraged to be cited in a published work.
        Primary SIESTA paper
          DOI: www.doi.org/10.1088/0953-8984/14/11/302
        Spin-orbit coupling (on-site approximation)
          DOI: www.doi.org/10.1088/0953-8984/19/19/489001


WARNING: alloc-realloc-dealloc name mismatch
         Name: atomlist isa
         Size:              -116. Bytes
         Node:     0
         Subsequent mismatches will not be reported
>> End of run:  28-JUN-2023  20:17:27
Job completed
