Siesta Version  : v4.1.5-1-g384057250
Architecture    : gcc
Compiler version: GNU Fortran (Ubuntu 11.3.0-1ubuntu1~22.04) 11.3.0
Compiler flags  : mpifort -O2 -fPIC -ftree-vectorize -fallow-argument-mismatch
PP flags        : -DFC_HAVE_ABORT -DMPI -DSIESTA__FLOOK -DSIESTA__METIS -DSIESTA__MUMPS -DCDF -DNCDF -DNCDF_4 -DNCDF_PARALLEL -DSIESTA__MRRR -DSIESTA__ELPA
Libraries       : libncdf.a libfdict.a  -lflookall -ldl -lnetcdff -lnetcdf -lhdf5_hl -lhdf5 -lhdf5_fortran -lz -lscalapack-openmpi -lopenblas -lmetis -lzmumps -lcmumps -ldmumps -lmumps_common -lpord -lsmumps -lesmumps -lscotch -lscotcherr -fopenmp -lelpa
PARALLEL version
NetCDF support
NetCDF-4 support
NetCDF-4 MPI-IO support
METIS ordering support
Lua support

* Running on 4 nodes in parallel
>> Start of run:  28-JUN-2023  18:24:22

                           ***********************       
                           *  WELCOME TO SIESTA  *       
                           ***********************       

reinit: Reading from standard input
reinit: Dumped input in INPUT_TMP.20538
************************** Dump of input data file ****************************
SystemLabel      GC
NumberOfAtoms    29
NumberOfSpecies  4
%block ChemicalSpeciesLabel
    1    8  O
    2    7  N
    3   14  Si
    4    1  H
%endblock ChemicalSpeciesLabel
# Single point calculation
MD.TypeOfRun                CG
MD.Steps                    0
SCF.MustConverge            F # In case it does not. There can be 2 very close atoms
AtomicCoordinatesFormat NotScaledCartesianAng
%block AtomicCoordinatesAndAtomicSpecies
1.043624880    3.939228610    0.000000000       1
-3.040641290   1.071078170    0.000000000       2
2.054601450    1.213582070    0.000000000       2
0.999014100    -1.732643800   0.000000000       2
-2.132351640   -1.812968220   0.000000000       2
3.860190550    -1.112298180   0.000000000       2
-1.236183220   1.152964460    0.000000000       3
-0.532924260   -0.939006270   0.000000000       3
0.635660470    2.374516770    0.000000000       3
2.245170240    -0.549967100   0.000000000       3
-3.449816660   -0.583665030   0.000000000       3
2.963714090    1.790992630    0.000000000       4
-4.845591350   -1.123549660   0.000000000       4
4.007020910    -2.152308560   0.000000000       4
4.772194380    -0.502318160   0.000000000       4
-2.265399090   -2.864605110   0.000000000       4
4.669019376    4.714976630    0.000000000       3
6.573903346    5.921615570    0.000000000       3
6.078149206    1.948641660    0.000000000       3
8.155619496    4.417858820    0.000000000       3
4.728642046    2.997549060    0.000000000       2
3.129884316    5.468653940    0.000000000       2
7.730444466    2.678478880    0.000000000       2
6.765248146    7.413769320    0.000000000       4
9.639987476    4.636589640    0.000000000       4
3.018539036    6.517849050    0.000000000       4
2.197326606    4.843739760    0.000000000       4
6.067922376    0.340530540    0.000000000       1
8.505870346    1.951787320    0.000000000       4
%endblock AtomicCoordinatesAndAtomicSpecies
%include ../../../Defaults.fdf
************************** End of input data file *****************************

reinit: -----------------------------------------------------------------------
reinit: System Name: 
reinit: -----------------------------------------------------------------------
reinit: System Label: GC
reinit: -----------------------------------------------------------------------

initatom: Reading input for the pseudopotentials and atomic orbitals ----------
Species number:   1 Atomic number:    8 Label: O
Species number:   2 Atomic number:    7 Label: N
Species number:   3 Atomic number:   14 Label: Si
Species number:   4 Atomic number:    1 Label: H

Ground state valence configuration:   2s02  2p04
Reading pseudopotential information in formatted form from O.psf

Pseudopotential generated from a relativistic atomic calculation

Valence configuration for pseudopotential generation:
2s( 2.00) rc: 0.45
2p( 4.00) rc: 0.92
3d( 0.00) rc: 2.24
4f( 0.00) rc: 0.25
Ground state valence configuration:   2s02  2p03
Reading pseudopotential information in formatted form from N.psf

Pseudopotential generated from a relativistic atomic calculation

Valence configuration for pseudopotential generation:
2s( 2.00) rc: 0.94
2p( 3.00) rc: 0.59
3d( 0.00) rc: 3.46
4f( 0.00) rc: 2.47
Ground state valence configuration:   3s02  3p02
Reading pseudopotential information in formatted form from Si.psf

Pseudopotential generated from a relativistic atomic calculation

Valence configuration for pseudopotential generation:
3s( 2.00) rc: 1.67
3p( 2.00) rc: 2.04
3d( 0.00) rc: 2.89
4f( 0.00) rc: 2.49
Ground state valence configuration:   1s01
Reading pseudopotential information in formatted form from H.psf

Pseudopotential generated from a relativistic atomic calculation

Valence configuration for pseudopotential generation:
1s( 1.00) rc: 0.01
2p( 0.00) rc: 0.60
3d( 0.00) rc: 1.99
4f( 0.00) rc: 2.49
For O, standard SIESTA heuristics set lmxkb to 3
 (one more than the basis l, including polarization orbitals).
Use PS.lmax or PS.KBprojectors blocks to override.
For N, standard SIESTA heuristics set lmxkb to 3
 (one more than the basis l, including polarization orbitals).
Use PS.lmax or PS.KBprojectors blocks to override.
For Si, standard SIESTA heuristics set lmxkb to 3
 (one more than the basis l, including polarization orbitals).
Use PS.lmax or PS.KBprojectors blocks to override.
For H, standard SIESTA heuristics set lmxkb to 2
 (one more than the basis l, including polarization orbitals).
Use PS.lmax or PS.KBprojectors blocks to override.

<basis_specs>
===============================================================================
O                    Z=   8    Mass=  16.000        Charge= 0.17977+309
Lmxo=1 Lmxkb= 3    BasisType=split      Semic=F
L=0  Nsemic=0  Cnfigmx=2
          i=1  nzeta=2  polorb=0  (2s)
            splnorm:   0.28000    
               vcte:    0.0000    
               rinn:    0.0000    
               qcoe:    0.0000    
               qyuk:    0.0000    
               qwid:   0.10000E-01
                rcs:    0.0000      0.0000    
            lambdas:    1.0000      1.0000    
L=1  Nsemic=0  Cnfigmx=2
          i=1  nzeta=2  polorb=1  (2p)
            splnorm:   0.28000    
               vcte:    0.0000    
               rinn:    0.0000    
               qcoe:    0.0000    
               qyuk:    0.0000    
               qwid:   0.10000E-01
                rcs:    0.0000      0.0000    
            lambdas:    1.0000      1.0000    
-------------------------------------------------------------------------------
L=0  Nkbl=1  erefs: 0.17977+309
L=1  Nkbl=1  erefs: 0.17977+309
L=2  Nkbl=1  erefs: 0.17977+309
L=3  Nkbl=1  erefs: 0.17977+309
===============================================================================
</basis_specs>

atom: Called for O                     (Z =   8)

read_vps: Pseudopotential generation method:
read_vps: ATM4.2.7  Troullier-Martins                       
Valence charge for ps generation:    6.00000

xc_check: Exchange-correlation functional:
xc_check: GGA Perdew, Burke & Ernzerhof 1996
V l=0 = -2*Zval/r beyond r=  1.1000
V l=1 = -2*Zval/r beyond r=  1.1000
V l=2 = -2*Zval/r beyond r=  2.2154
V l=3 = -2*Zval/r beyond r=  1.1000
All V_l potentials equal beyond r=  2.2154
This should be close to max(r_c) in ps generation
All pots = -2*Zval/r beyond r=  2.2154

VLOCAL1: 99.0% of the norm of Vloc inside      8.845 Ry
VLOCAL1: 99.9% of the norm of Vloc inside     20.157 Ry
atom: Maximum radius for 4*pi*r*r*local-pseudopot. charge    2.67231
atom: Maximum radius for r*vlocal+2*Zval:    2.32897
GHOST: No ghost state for L =  0
GHOST: No ghost state for L =  1
GHOST: No ghost state for L =  2
GHOST: No ghost state for L =  3

KBgen: Kleinman-Bylander projectors: 
   l= 0   rc=  2.243238   el= -1.759686   Ekb=**********   kbcos= -0.171774
   l= 1   rc=  2.328968   el= -0.663873   Ekb=-14.506792   kbcos= -0.519897
   l= 2   rc=  2.573941   el=  0.002031   Ekb= -1.137373   kbcos= -0.019581
   l= 3   rc=  2.606321   el=  0.003153   Ekb= -1.013546   kbcos= -0.003122

KBgen: Total number of Kleinman-Bylander projectors:   16
atom: -------------------------------------------------------------------------

atom: SANKEY-TYPE ORBITALS:
atom: Selected multiple-zeta basis: split     

SPLIT: Orbitals with angular momentum L= 0

SPLIT: Basis orbitals for state 2s

SPLIT: PAO cut-off radius determined from an
SPLIT: energy shift=  0.002000 Ry

   izeta = 1
                 lambda =    1.000000
                     rc =    4.243912
                 energy =   -1.758270
                kinetic =    3.286084
    potential(screened) =   -5.044353
       potential(ionic) =  -12.921184

   izeta = 2
                 rmatch =    2.187845
              splitnorm =    0.280000
                 energy =   -0.885018
                kinetic =    8.134434
    potential(screened) =   -9.019452
       potential(ionic) =  -17.710645

SPLIT: Orbitals with angular momentum L= 1

SPLIT: Basis orbitals for state 2p

SPLIT: PAO cut-off radius determined from an
SPLIT: energy shift=  0.002000 Ry

   izeta = 1
                 lambda =    1.000000
                     rc =    5.314825
                 energy =   -0.661986
                kinetic =    4.917472
    potential(screened) =   -5.579458
       potential(ionic) =  -13.236259

   izeta = 2
                 rmatch =    2.160663
              splitnorm =    0.280000
                 energy =   -0.068760
                kinetic =    9.183374
    potential(screened) =   -9.252135
       potential(ionic) =  -18.274251

POLgen: Perturbative polarization orbital with L=  2

POLgen: Polarization orbital for state 2p

   izeta = 1
                     rc =    5.314825
                 energy =    1.970580
                kinetic =    3.886128
    potential(screened) =   -1.915547
       potential(ionic) =   -7.749584
atom: Total number of Sankey-type orbitals: 13

atm_pop: Valence configuration (for local Pseudopot. screening):
 2s( 2.00)                                                            
 2p( 4.00)                                                            
Vna: chval, zval:    6.00000   6.00000

Vna:  Cut-off radius for the neutral-atom potential:   5.314825

atom: _________________________________________________________________________

<basis_specs>
===============================================================================
N                    Z=   7    Mass=  14.010        Charge= 0.17977+309
Lmxo=1 Lmxkb= 3    BasisType=split      Semic=F
L=0  Nsemic=0  Cnfigmx=2
          i=1  nzeta=2  polorb=0  (2s)
            splnorm:   0.28000    
               vcte:    0.0000    
               rinn:    0.0000    
               qcoe:    0.0000    
               qyuk:    0.0000    
               qwid:   0.10000E-01
                rcs:    0.0000      0.0000    
            lambdas:    1.0000      1.0000    
L=1  Nsemic=0  Cnfigmx=2
          i=1  nzeta=2  polorb=1  (2p)
            splnorm:   0.28000    
               vcte:    0.0000    
               rinn:    0.0000    
               qcoe:    0.0000    
               qyuk:    0.0000    
               qwid:   0.10000E-01
                rcs:    0.0000      0.0000    
            lambdas:    1.0000      1.0000    
-------------------------------------------------------------------------------
L=0  Nkbl=1  erefs: 0.17977+309
L=1  Nkbl=1  erefs: 0.17977+309
L=2  Nkbl=1  erefs: 0.17977+309
L=3  Nkbl=1  erefs: 0.17977+309
===============================================================================
</basis_specs>

atom: Called for N                     (Z =   7)

read_vps: Pseudopotential generation method:
read_vps: ATM4.2.7  Troullier-Martins                       
Valence charge for ps generation:    5.00000

xc_check: Exchange-correlation functional:
xc_check: GGA Perdew, Burke & Ernzerhof 1996
V l=0 = -2*Zval/r beyond r=  1.2889
V l=1 = -2*Zval/r beyond r=  1.2889
V l=2 = -2*Zval/r beyond r=  3.4178
V l=3 = -2*Zval/r beyond r=  2.4084
All V_l potentials equal beyond r=  3.3753
This should be close to max(r_c) in ps generation
All pots = -2*Zval/r beyond r=  3.4178

VLOCAL1: 99.0% of the norm of Vloc inside      3.810 Ry
VLOCAL1: 99.9% of the norm of Vloc inside      8.683 Ry
atom: Maximum radius for 4*pi*r*r*local-pseudopot. charge    4.02088
atom: Maximum radius for r*vlocal+2*Zval:    3.54838
GHOST: No ghost state for L =  0
GHOST: No ghost state for L =  1
GHOST: No ghost state for L =  2
GHOST: No ghost state for L =  3

KBgen: Kleinman-Bylander projectors: 
   l= 0   rc=  3.417763   el= -1.365098   Ekb= -4.433130   kbcos= -0.707855
   l= 1   rc=  3.375302   el= -0.521201   Ekb=-13.264039   kbcos= -0.535594
   l= 2   rc=  3.872880   el=  0.001991   Ekb= -0.641094   kbcos= -0.062456
   l= 3   rc=  3.970931   el=  0.003093   Ekb= -0.474517   kbcos= -0.018236

KBgen: Total number of Kleinman-Bylander projectors:   16
atom: -------------------------------------------------------------------------

atom: SANKEY-TYPE ORBITALS:
atom: Selected multiple-zeta basis: split     

SPLIT: Orbitals with angular momentum L= 0

SPLIT: Basis orbitals for state 2s

SPLIT: PAO cut-off radius determined from an
SPLIT: energy shift=  0.002000 Ry

   izeta = 1
                 lambda =    1.000000
                     rc =    4.730425
                 energy =   -1.363399
                kinetic =    1.245246
    potential(screened) =   -2.608645
       potential(ionic) =   -8.121105

   izeta = 2
                 rmatch =    2.531849
              splitnorm =    0.280000
                 energy =   -0.959908
                kinetic =    2.409435
    potential(screened) =   -3.369343
       potential(ionic) =   -9.427975

SPLIT: Orbitals with angular momentum L= 1

SPLIT: Basis orbitals for state 2p

SPLIT: PAO cut-off radius determined from an
SPLIT: energy shift=  0.002000 Ry

   izeta = 1
                 lambda =    1.000000
                     rc =    5.924108
                 energy =   -0.519262
                kinetic =    3.672940
    potential(screened) =   -4.192202
       potential(ionic) =   -9.518354

   izeta = 2
                 rmatch =    2.531849
              splitnorm =    0.280000
                 energy =   -0.104258
                kinetic =    6.807538
    potential(screened) =   -6.911796
       potential(ionic) =  -13.149920

POLgen: Perturbative polarization orbital with L=  2

POLgen: Polarization orbital for state 2p

   izeta = 1
                     rc =    5.924108
                 energy =    1.427508
                kinetic =    2.872379
    potential(screened) =   -1.444871
       potential(ionic) =   -5.563644
atom: Total number of Sankey-type orbitals: 13

atm_pop: Valence configuration (for local Pseudopot. screening):
 2s( 2.00)                                                            
 2p( 3.00)                                                            
Vna: chval, zval:    5.00000   5.00000

Vna:  Cut-off radius for the neutral-atom potential:   5.924108

atom: _________________________________________________________________________

<basis_specs>
===============================================================================
Si                   Z=  14    Mass=  28.090        Charge= 0.17977+309
Lmxo=1 Lmxkb= 3    BasisType=split      Semic=F
L=0  Nsemic=0  Cnfigmx=3
          i=1  nzeta=2  polorb=0  (3s)
            splnorm:   0.28000    
               vcte:    0.0000    
               rinn:    0.0000    
               qcoe:    0.0000    
               qyuk:    0.0000    
               qwid:   0.10000E-01
                rcs:    0.0000      0.0000    
            lambdas:    1.0000      1.0000    
L=1  Nsemic=0  Cnfigmx=3
          i=1  nzeta=2  polorb=1  (3p)
            splnorm:   0.28000    
               vcte:    0.0000    
               rinn:    0.0000    
               qcoe:    0.0000    
               qyuk:    0.0000    
               qwid:   0.10000E-01
                rcs:    0.0000      0.0000    
            lambdas:    1.0000      1.0000    
-------------------------------------------------------------------------------
L=0  Nkbl=1  erefs: 0.17977+309
L=1  Nkbl=1  erefs: 0.17977+309
L=2  Nkbl=1  erefs: 0.17977+309
L=3  Nkbl=1  erefs: 0.17977+309
===============================================================================
</basis_specs>

atom: Called for Si                    (Z =  14)

read_vps: Pseudopotential generation method:
read_vps: ATM4.2.7  Troullier-Martins                       
Valence charge for ps generation:    4.00000

xc_check: Exchange-correlation functional:
xc_check: GGA Perdew, Burke & Ernzerhof 1996
V l=0 = -2*Zval/r beyond r=  2.7826
V l=1 = -2*Zval/r beyond r=  2.7826
V l=2 = -2*Zval/r beyond r=  2.9253
V l=3 = -2*Zval/r beyond r=  2.7826
All V_l potentials equal beyond r=  2.8530
This should be close to max(r_c) in ps generation
All pots = -2*Zval/r beyond r=  2.9253

VLOCAL1: 99.0% of the norm of Vloc inside      5.333 Ry
VLOCAL1: 99.9% of the norm of Vloc inside     12.154 Ry
atom: Maximum radius for 4*pi*r*r*local-pseudopot. charge    3.39869
atom: Maximum radius for r*vlocal+2*Zval:    2.96205
GHOST: No ghost state for L =  0
GHOST: No ghost state for L =  1
GHOST: No ghost state for L =  2
GHOST: No ghost state for L =  3

KBgen: Kleinman-Bylander projectors: 
   l= 0   rc=  3.075247   el= -0.794092   Ekb=  5.879390   kbcos=  0.167461
   l= 1   rc=  3.153101   el= -0.300068   Ekb=  2.642817   kbcos=  0.058301
   l= 2   rc=  3.273594   el=  0.001958   Ekb= -1.185135   kbcos= -0.104411
   l= 3   rc=  3.232927   el=  0.003046   Ekb= -0.497174   kbcos= -0.015889

KBgen: Total number of Kleinman-Bylander projectors:   16
atom: -------------------------------------------------------------------------

atom: SANKEY-TYPE ORBITALS:
atom: Selected multiple-zeta basis: split     

SPLIT: Orbitals with angular momentum L= 0

SPLIT: Basis orbitals for state 3s

SPLIT: PAO cut-off radius determined from an
SPLIT: energy shift=  0.002000 Ry

   izeta = 1
                 lambda =    1.000000
                     rc =    6.429618
                 energy =   -0.792283
                kinetic =    0.525293
    potential(screened) =   -1.317576
       potential(ionic) =   -3.744923

   izeta = 2
                 rmatch =    3.998416
              splitnorm =    0.280000
                 energy =   -0.583081
                kinetic =    1.069570
    potential(screened) =   -1.652651
       potential(ionic) =   -4.235185

SPLIT: Orbitals with angular momentum L= 1

SPLIT: Basis orbitals for state 3p

SPLIT: PAO cut-off radius determined from an
SPLIT: energy shift=  0.002000 Ry

   izeta = 1
                 lambda =    1.000000
                     rc =    8.464845
                 energy =   -0.298236
                kinetic =    0.785360
    potential(screened) =   -1.083596
       potential(ionic) =   -3.273779

   izeta = 2
                 rmatch =    4.587816
              splitnorm =    0.280000
                 energy =   -0.131871
                kinetic =    1.403687
    potential(screened) =   -1.535557
       potential(ionic) =   -4.015310

POLgen: Perturbative polarization orbital with L=  2

POLgen: Polarization orbital for state 3p

   izeta = 1
                     rc =    8.464845
                 energy =    0.321949
                kinetic =    1.055677
    potential(screened) =   -0.733728
       potential(ionic) =   -2.672950
atom: Total number of Sankey-type orbitals: 13

atm_pop: Valence configuration (for local Pseudopot. screening):
 3s( 2.00)                                                            
 3p( 2.00)                                                            
Vna: chval, zval:    4.00000   4.00000

Vna:  Cut-off radius for the neutral-atom potential:   8.464845

atom: _________________________________________________________________________

<basis_specs>
===============================================================================
H                    Z=   1    Mass=  1.0100        Charge= 0.17977+309
Lmxo=0 Lmxkb= 2    BasisType=split      Semic=F
L=0  Nsemic=0  Cnfigmx=1
          i=1  nzeta=2  polorb=1  (1s)
            splnorm:   0.62000    
               vcte:    0.0000    
               rinn:    0.0000    
               qcoe:    0.0000    
               qyuk:    0.0000    
               qwid:   0.10000E-01
                rcs:    0.0000      0.0000    
            lambdas:    1.0000      1.0000    
-------------------------------------------------------------------------------
L=0  Nkbl=1  erefs: 0.17977+309
L=1  Nkbl=1  erefs: 0.17977+309
L=2  Nkbl=1  erefs: 0.17977+309
===============================================================================
</basis_specs>

atom: Called for H                     (Z =   1)

read_vps: Pseudopotential generation method:
read_vps: ATM4.2.7  Troullier-Martins                       
Valence charge for ps generation:    1.00000

xc_check: Exchange-correlation functional:
xc_check: GGA Perdew, Burke & Ernzerhof 1996
V l=0 = -2*Zval/r beyond r=  0.0098
V l=1 = -2*Zval/r beyond r=  0.5817
V l=2 = -2*Zval/r beyond r=  1.9372
All V_l potentials equal beyond r=  1.9372
This should be close to max(r_c) in ps generation
All pots = -2*Zval/r beyond r=  1.9372

VLOCAL1: 99.0% of the norm of Vloc inside     11.567 Ry
VLOCAL1: 99.9% of the norm of Vloc inside     26.362 Ry
atom: Maximum radius for 4*pi*r*r*local-pseudopot. charge    2.25106
atom: Maximum radius for r*vlocal+2*Zval:    1.91306
GHOST: No ghost state for L =  0
GHOST: No ghost state for L =  1
GHOST: No ghost state for L =  2

KBgen: Kleinman-Bylander projectors: 
   l= 0   rc=  2.036604   el= -0.477180   Ekb= -6.081590   kbcos= -0.277285
   l= 1   rc=  2.195416   el=  0.001076   Ekb= -0.926943   kbcos= -0.034643
   l= 2   rc=  2.251056   el=  0.002010   Ekb= -0.130941   kbcos= -0.009788

KBgen: Total number of Kleinman-Bylander projectors:    9
atom: -------------------------------------------------------------------------

atom: SANKEY-TYPE ORBITALS:
atom: Selected multiple-zeta basis: split     

SPLIT: Orbitals with angular momentum L= 0

SPLIT: Basis orbitals for state 1s

SPLIT: PAO cut-off radius determined from an
SPLIT: energy shift=  0.002000 Ry

   izeta = 1
                 lambda =    1.000000
                     rc =    6.518340
                 energy =   -0.475305
                kinetic =    0.912139
    potential(screened) =   -1.387444
       potential(ionic) =   -1.907295

   izeta = 2
                 rmatch =    2.141150
              splitnorm =    0.620000
                 energy =    0.566467
                kinetic =    3.772856
    potential(screened) =   -3.206389
       potential(ionic) =   -3.759093

POLgen: Perturbative polarization orbital with L=  1

POLgen: Polarization orbital for state 1s

   izeta = 1
                     rc =    6.518340
                 energy =    0.533861
                kinetic =    1.121086
    potential(screened) =   -0.587225
       potential(ionic) =   -1.053027
atom: Total number of Sankey-type orbitals:  5

atm_pop: Valence configuration (for local Pseudopot. screening):
 1s( 1.00)                                                            
Vna: chval, zval:    1.00000   1.00000

Vna:  Cut-off radius for the neutral-atom potential:   6.518340

atom: _________________________________________________________________________

prinput: Basis input ----------------------------------------------------------

PAO.BasisType split     

%block ChemicalSpeciesLabel
    1    8 O                       # Species index, atomic number, species label
    2    7 N                       # Species index, atomic number, species label
    3   14 Si                      # Species index, atomic number, species label
    4    1 H                       # Species index, atomic number, species label
%endblock ChemicalSpeciesLabel

%block PAO.Basis                 # Define Basis set
O                     2                    # Species label, number of l-shells
 n=2   0   2                         # n, l, Nzeta 
   4.244      2.188   
   1.000      1.000   
 n=2   1   2 P   1                   # n, l, Nzeta, Polarization, NzetaPol
   5.315      2.161   
   1.000      1.000   
N                     2                    # Species label, number of l-shells
 n=2   0   2                         # n, l, Nzeta 
   4.730      2.532   
   1.000      1.000   
 n=2   1   2 P   1                   # n, l, Nzeta, Polarization, NzetaPol
   5.924      2.532   
   1.000      1.000   
Si                    2                    # Species label, number of l-shells
 n=3   0   2                         # n, l, Nzeta 
   6.430      3.998   
   1.000      1.000   
 n=3   1   2 P   1                   # n, l, Nzeta, Polarization, NzetaPol
   8.465      4.588   
   1.000      1.000   
H                     1                    # Species label, number of l-shells
 n=1   0   2 P   1                   # n, l, Nzeta, Polarization, NzetaPol
   6.518      2.141   
   1.000      1.000   
%endblock PAO.Basis

prinput: ----------------------------------------------------------------------

Dumping basis to NetCDF file O.ion.nc
Dumping basis to NetCDF file N.ion.nc
Dumping basis to NetCDF file Si.ion.nc
Dumping basis to NetCDF file H.ion.nc
coor:   Atomic-coordinates input format  =     Cartesian coordinates
coor:                                          (in Angstroms)

siesta: Atomic coordinates (Bohr) and species
siesta:      1.97217   7.44407   0.00000  1        1
siesta:     -5.74598   2.02405   0.00000  2        2
siesta:      3.88264   2.29334   0.00000  2        3
siesta:      1.88786  -3.27422   0.00000  2        4
siesta:     -4.02956  -3.42601   0.00000  2        5
siesta:      7.29471  -2.10194   0.00000  2        6
siesta:     -2.33605   2.17879   0.00000  3        7
siesta:     -1.00708  -1.77447   0.00000  3        8
siesta:      1.20122   4.48719   0.00000  3        9
siesta:      4.24276  -1.03929   0.00000  3       10
siesta:     -6.51921  -1.10297   0.00000  3       11
siesta:      5.60061   3.38449   0.00000  4       12
siesta:     -9.15684  -2.12320   0.00000  4       13
siesta:      7.57218  -4.06728   0.00000  4       14
siesta:      9.01814  -0.94924   0.00000  4       15
siesta:     -4.28099  -5.41332   0.00000  4       16
siesta:      8.82317   8.91002   0.00000  3       17
siesta:     12.42288  11.19024   0.00000  3       18
siesta:     11.48604   3.68240   0.00000  3       19
siesta:     15.41189   8.34855   0.00000  3       20
siesta:      8.93584   5.66455   0.00000  2       21
siesta:      5.91463  10.33426   0.00000  2       22
siesta:     14.60843   5.06159   0.00000  2       23
siesta:     12.78447  14.01000   0.00000  4       24
siesta:     18.21694   8.76189   0.00000  4       25
siesta:      5.70421  12.31695   0.00000  4       26
siesta:      4.15235   9.15335   0.00000  4       27
siesta:     11.46672   0.64351   0.00000  1       28
siesta:     16.07377   3.68834   0.00000  4       29

siesta: Automatic unit cell vectors (Ang):
siesta:   23.522719    0.000000    0.000000
siesta:    0.000000   18.894795    0.000000
siesta:    0.000000    0.000000    9.854683

siesta: System type = molecule  

initatomlists: Number of atoms, orbitals, and projectors:     29   297   394

siesta: ******************** Simulation parameters ****************************
siesta:
siesta: The following are some of the parameters of the simulation.
siesta: A complete list of the parameters used, including default values,
siesta: can be found in file out.fdf
siesta:
redata: Spin configuration                          = spin-orbit
redata: Number of spin components                   = 8
redata: Time-Reversal Symmetry                      = F
redata: Spin spiral                                 = F
############################################################
This spin-orbit implementation uses a local approximation.
From 4.2 and onwards the full non-local approximation is implemented
You are strongly advised to use >=4.2 versions!
############################################################
redata: Long output                                 =   F
redata: Number of Atomic Species                    =        4
redata: Charge density info will appear in .RHO file
redata: Write Mulliken Pop.                         = Atomic and Orbital charges
redata: Matel table size (NRTAB)                    =     1024
redata: Mesh Cutoff                                 =   340.0000 Ry
redata: Net charge of the system                    =     0.0000 |e|
redata: Min. number of SCF Iter                     =        1
redata: Max. number of SCF Iter                     =      200
redata: SCF mix quantity                            = Hamiltonian
redata: Mix DM or H after convergence               =   F
redata: Recompute H after scf cycle                 =   F
redata: Mix DM in first SCF step                    =   T
redata: Write Pulay info on disk                    =   F
redata: New DM Occupancy tolerance                  = 0.000000000001
redata: No kicks to SCF
redata: DM Mixing Weight for Kicks                  =     0.5000
redata: Require Harris convergence for SCF          =   F
redata: Harris energy tolerance for SCF             =     0.000100 eV
redata: Require DM convergence for SCF              =   T
redata: DM tolerance for SCF                        =     0.000008
redata: Require EDM convergence for SCF             =   F
redata: EDM tolerance for SCF                       =     0.001000 eV
redata: Require H convergence for SCF               =   T
redata: Hamiltonian tolerance for SCF               =     0.000001 eV
redata: Require (free) Energy convergence for SCF   =   F
redata: (free) Energy tolerance for SCF             =     0.000100 eV
redata: Using Saved Data (generic)                  =   F
redata: Use continuation files for DM               =   F
redata: Neglect nonoverlap interactions             =   F
redata: Method of Calculation                       = Diagonalization
redata: Electronic Temperature                      =   299.9978 K
redata: Fix the spin of the system                  =   F
redata: Dynamics option                             = Single-point calculation
mix.SCF: Pulay mixing                            = Pulay
mix.SCF:    Variant                              = stable
mix.SCF:    History steps                        = 6
mix.SCF:    Linear mixing weight                 =     0.250000
mix.SCF:    Mixing weight                        =     0.250000
mix.SCF:    SVD condition                        = 0.1000E-07
mix.SCF:    Restart steps                        = 24
mix.SCF:    Restart save steps                   = 3
mix.SCF: Spin-component mixing                   all
redata: Save all siesta data in one NC              =   F
redata: ***********************************************************************

%block SCF.Mixers
  Pulay
%endblock SCF.Mixers

%block SCF.Mixer.Pulay
  # Mixing method
  method pulay
  variant stable

  # Mixing options
  weight 0.2500
  weight.linear 0.2500
  history 6
  restart 24
  restart.save 3
%endblock SCF.Mixer.Pulay

DM_history_depth set to one: no extrapolation allowed by default for geometry relaxation
Size of DM history Fstack: 1
Total number of electrons:    98.000000
Total ionic charge:    98.000000

* ProcessorY, Blocksize:    2  24


* Orbital distribution balance (max,min):    81    72


Time-reversal symmetry not used.

siesta: k-grid: Number of k-points =     1
siesta: k-grid: Cutoff (effective) =     4.927 Ang
siesta: k-grid: Supercell and displacements
siesta: k-grid:    1   0   0      0.000
siesta: k-grid:    0   1   0      0.000
siesta: k-grid:    0   0   1      0.000

diag: Algorithm                                     = ELPA-1stage
diag: Parallel over k                               =   F
diag: Use parallel 2D distribution                  =   T
diag: Parallel block-size                           = 24
diag: Parallel distribution                         =     2 x     2
diag: Used triangular part                          = Lower
diag: Absolute tolerance                            =  0.100E-15
diag: Orthogonalization factor                      =  0.100E-05
diag: Memory factor                                 =  1.0000


ts: **************************************************************
ts: Save H and S matrices                           =    F
ts: Save DM and EDM matrices                        =    F
ts: Only save the overlap matrix S                  =    F
ts: **************************************************************

************************ Begin: TS CHECKS AND WARNINGS ************************
************************ End: TS CHECKS AND WARNINGS **************************


                     ====================================
                        Single-point calculation
                     ====================================

outcoor: Atomic coordinates (Ang):                          
    1.04362488    3.93922861    0.00000000   1       1  O
   -3.04064129    1.07107817    0.00000000   2       2  N
    2.05460145    1.21358207    0.00000000   2       3  N
    0.99901410   -1.73264380    0.00000000   2       4  N
   -2.13235164   -1.81296822    0.00000000   2       5  N
    3.86019055   -1.11229818    0.00000000   2       6  N
   -1.23618322    1.15296446    0.00000000   3       7  Si
   -0.53292426   -0.93900627    0.00000000   3       8  Si
    0.63566047    2.37451677    0.00000000   3       9  Si
    2.24517024   -0.54996710    0.00000000   3      10  Si
   -3.44981666   -0.58366503    0.00000000   3      11  Si
    2.96371409    1.79099263    0.00000000   4      12  H
   -4.84559135   -1.12354966    0.00000000   4      13  H
    4.00702091   -2.15230856    0.00000000   4      14  H
    4.77219438   -0.50231816    0.00000000   4      15  H
   -2.26539909   -2.86460511    0.00000000   4      16  H
    4.66901938    4.71497663    0.00000000   3      17  Si
    6.57390335    5.92161557    0.00000000   3      18  Si
    6.07814921    1.94864166    0.00000000   3      19  Si
    8.15561950    4.41785882    0.00000000   3      20  Si
    4.72864205    2.99754906    0.00000000   2      21  N
    3.12988432    5.46865394    0.00000000   2      22  N
    7.73044447    2.67847888    0.00000000   2      23  N
    6.76524815    7.41376932    0.00000000   4      24  H
    9.63998748    4.63658964    0.00000000   4      25  H
    3.01853904    6.51784905    0.00000000   4      26  H
    2.19732661    4.84373976    0.00000000   4      27  H
    6.06792238    0.34053054    0.00000000   1      28  O
    8.50587035    1.95178732    0.00000000   4      29  H

outcell: Unit cell vectors (Ang):
       23.522719    0.000000    0.000000
        0.000000   18.894795    0.000000
        0.000000    0.000000    9.854683

outcell: Cell vector modules (Ang)   :   23.522719   18.894795    9.854683
outcell: Cell angles (23,13,12) (deg):     90.0000     90.0000     90.0000
outcell: Cell volume (Ang**3)        :   4379.9825
<dSpData1D:S at geom step 0
  <sparsity:sparsity for geom step 0
    nrows_g=297 nrows=81 sparsity=.2373 nnzs=20928, refcount: 8>
  <dData1D:(new from dSpData1D) n=20928, refcount: 1>
refcount: 1>
new_DM -- step:     1
Initializing Density Matrix...
DM filled with atomic data:
<dSpData2D:DM initialized from atoms
  <sparsity:sparsity for geom step 0
    nrows_g=297 nrows=81 sparsity=.2373 nnzs=20928, refcount: 9>
  <dData2D:DM n=20928 m=8, refcount: 1>
refcount: 1>
     spin moment: S , {S} =   56.00000   0.00000   0.00000  56.00000
No. of atoms with KB's overlaping orbs in proc 0. Max # of overlaps:      29     214

Initializing spin-orbit part of the Hamiltonian
  Adding spin-orbit effects for O 
  Adding spin-orbit effects for N 
  Adding spin-orbit effects for Si
  Adding spin-orbit effects for H 


New grid distribution:   1
           1       1:  135    1:   54    1:   30
           2       1:  135    1:   54   31:   60
           3       1:  135   55:  108    1:   30
           4       1:  135   55:  108   31:   60

InitMesh: MESH =   270 x   216 x   120 =     6998400
InitMesh: (bp) =   135 x   108 x    60 =      874800
InitMesh: Mesh cutoff (required, used) =   340.000   361.181 Ry
ExtMesh (bp) on 0 =   239 x   158 x   142 =     5362204
New grid distribution:   2
           1      32:  135    1:   24    1:   60
           2       1:   31    1:   22    1:   60
           3      32:  135   25:  108    1:   60
           4       1:   31   23:  108    1:   60
New grid distribution:   3
           1      44:  135    1:   31    1:   60
           2       1:   43    1:   37    1:   60
           3      44:  135   32:  108    1:   60
           4       1:   43   38:  108    1:   60
Setting up quadratic distribution...
ExtMesh (bp) on 0 =   208 x   128 x   172 =     4579328
PhiOnMesh: Number of (b)points on node 0 =               149760
PhiOnMesh: nlist on node 0 =              2630840

stepf: Fermi-Dirac step function

siesta: Program's energy decomposition (eV):
siesta: Ebs     =      -612.489639
siesta: Eions   =      3585.165840
siesta: Ena     =       381.728918
siesta: Ekin    =      3365.109617
siesta: Enl     =     -3295.166736
siesta: Eso     =        -0.003453
siesta: Edftu   =         0.000000
siesta: DEna    =       155.210037
siesta: DUscf   =        77.861296
siesta: DUext   =         0.000000
siesta: Exc     =     -1204.160419
siesta: eta*DQ  =         0.000000
siesta: Emadel  =         0.000000
siesta: Emeta   =         0.000000
siesta: Emolmec =         0.000000
siesta: Ekinion =         0.000000
siesta: Eharris =     -4028.003463
siesta: Etot    =     -4104.586579
siesta: FreeEng =     -4104.588020

        iscf     Eharris(eV)        E_KS(eV)     FreeEng(eV)     dDmax    Ef(eV) dHmax(eV)
   scf:    1    -4028.003463    -4104.586579    -4104.588020  0.953813 -4.906987 19.694841
     spin moment: S , {S} =    2.00702  -0.00000  -0.00000   2.00702
timer: Routine,Calls,Time,% = IterSCF        1      11.642  16.31
   scf:    2    -4150.839796    -4138.819550    -4138.821422  0.469912 -4.192347 11.149197
     spin moment: S , {S} =    1.98872  -0.00000  -0.00000   1.98872
   scf:    3    -4112.456159    -4136.077910    -4136.101050  0.431849 -4.254809 11.350604
     spin moment: S , {S} =    2.00010  -0.00000  -0.00000   2.00010
   scf:    4    -4151.556742    -4146.673387    -4146.673387  0.302306 -3.883170  6.046894
     spin moment: S , {S} =    0.00009   0.00000   0.00000   0.00009
   scf:    5    -4147.851684    -4147.356134    -4147.356134  0.038008 -3.686498  4.500807
     spin moment: S , {S} =    0.00006   0.00000   0.00000   0.00006
   scf:    6    -4148.150760    -4147.756243    -4147.756243  0.025981 -3.670723  2.169558
     spin moment: S , {S} =    0.00003  -0.00000   0.00000   0.00003
   scf:    7    -4148.112923    -4147.935626    -4147.935626  0.021054 -3.633582  0.834568
     spin moment: S , {S} =    0.00001  -0.00000   0.00000   0.00001
   scf:    8    -4148.052437    -4147.992647    -4147.992647  0.012311 -3.728047  0.445784
     spin moment: S , {S} =    0.00000  -0.00000   0.00000   0.00000
   scf:    9    -4148.031578    -4148.011549    -4148.011549  0.007111 -3.773878  0.292708
     spin moment: S , {S} =    0.00000   0.00000   0.00000   0.00000
   scf:   10    -4148.056674    -4148.031054    -4148.031054  0.015546 -3.798314  0.134509
     spin moment: S , {S} =    0.00000  -0.00000   0.00000  -0.00000
   scf:   11    -4148.034888    -4148.032851    -4148.032851  0.004999 -3.790890  0.053461
     spin moment: S , {S} =    0.00000   0.00000   0.00000   0.00000
   scf:   12    -4148.033924    -4148.033373    -4148.033373  0.002384 -3.787370  0.033123
     spin moment: S , {S} =    0.00000   0.00000  -0.00000   0.00000
   scf:   13    -4148.034062    -4148.033697    -4148.033697  0.002086 -3.785847  0.027377
     spin moment: S , {S} =    0.00000  -0.00000   0.00000   0.00000
   scf:   14    -4148.034351    -4148.033987    -4148.033987  0.002787 -3.784985  0.017616
     spin moment: S , {S} =    0.00000   0.00000  -0.00000   0.00000
   scf:   15    -4148.034380    -4148.034146    -4148.034146  0.002811 -3.785160  0.009087
     spin moment: S , {S} =    0.00000   0.00000   0.00000   0.00000
   scf:   16    -4148.034234    -4148.034181    -4148.034181  0.001423 -3.785407  0.004711
     spin moment: S , {S} =    0.00000  -0.00000  -0.00000   0.00000
   scf:   17    -4148.034196    -4148.034187    -4148.034187  0.000563 -3.784988  0.002674
     spin moment: S , {S} =    0.00000  -0.00000  -0.00000   0.00000
   scf:   18    -4148.034193    -4148.034190    -4148.034190  0.000290 -3.785061  0.001354
     spin moment: S , {S} =    0.00000   0.00000  -0.00000  -0.00000
   scf:   19    -4148.034192    -4148.034191    -4148.034191  0.000169 -3.785712  0.000700
     spin moment: S , {S} =    0.00000   0.00000  -0.00000  -0.00000
   scf:   20    -4148.034191    -4148.034191    -4148.034191  0.000067 -3.785653  0.000429
     spin moment: S , {S} =    0.00000   0.00000  -0.00000  -0.00000
   scf:   21    -4148.034191    -4148.034191    -4148.034191  0.000095 -3.785604  0.000230
     spin moment: S , {S} =    0.00000   0.00000  -0.00000  -0.00000
   scf:   22    -4148.034191    -4148.034191    -4148.034191  0.000016 -3.785581  0.000096
     spin moment: S , {S} =    0.00000   0.00000  -0.00000  -0.00000
   scf:   23    -4148.034191    -4148.034191    -4148.034191  0.000009 -3.785578  0.000051
     spin moment: S , {S} =    0.00000   0.00000  -0.00000  -0.00000
   scf:   24    -4148.034191    -4148.034191    -4148.034191  0.000007 -3.785574  0.000021
     spin moment: S , {S} =    0.00000   0.00000  -0.00000  -0.00000
mix: Pulay -- resetting history
   scf:   25    -4148.034191    -4148.034191    -4148.034191  0.000002 -3.785573  0.000013
     spin moment: S , {S} =    0.00000   0.00000  -0.00000  -0.00000
   scf:   26    -4148.034191    -4148.034191    -4148.034191  0.000001 -3.785573  0.000009
     spin moment: S , {S} =    0.00000   0.00000  -0.00000   0.00000
   scf:   27    -4148.034191    -4148.034191    -4148.034191  0.000001 -3.785573  0.000005
     spin moment: S , {S} =    0.00000   0.00000  -0.00000   0.00000
   scf:   28    -4148.034191    -4148.034191    -4148.034191  0.000000 -3.785574  0.000002
     spin moment: S , {S} =    0.00000  -0.00000  -0.00000   0.00000
   scf:   29    -4148.034191    -4148.034191    -4148.034191  0.000000 -3.785573  0.000001
     spin moment: S , {S} =    0.00000  -0.00000  -0.00000   0.00000
   scf:   30    -4148.034191    -4148.034191    -4148.034191  0.000000 -3.785573  0.000001
     spin moment: S , {S} =    0.00000   0.00000  -0.00000   0.00000

SCF Convergence by DM+H criterion
max |DM_out - DM_in|         :     0.0000001765
max |H_out - H_in|      (eV) :     0.0000007504
SCF cycle converged after 30 iterations

Using DM_out to compute the final energy and forces
No. of atoms with KB's overlaping orbs in proc 0. Max # of overlaps:      29     214

siesta: E_KS(eV) =            -4148.0342

siesta: E_KS - E_eggbox =     -4148.0342
     spin moment: S , {S} =    0.00000   0.00000  -0.00000   0.00000

siesta: Atomic forces (eV/Ang):
     1   -0.107380   -1.178572   -0.000000
     2   -0.032437    0.039908   -0.000000
     3   -0.043656    0.001206    0.000000
     4   -0.037173    0.013011   -0.000000
     5   -0.003793    0.032480   -0.000000
     6   -0.170358   -0.066025   -0.000000
     7   -0.000187    0.014877   -0.000000
     8    0.015993   -0.015397    0.000000
     9   -0.000750   -0.064174    0.000000
    10    0.032254   -0.023011   -0.000000
    11   -0.001544    0.000835   -0.000000
    12    0.135828   -0.045122    0.000000
    13   -0.021842   -0.020479    0.000000
    14   -0.021582   -0.195168    0.000000
    15    0.064395    0.008618    0.000000
    16   -0.026757    0.047868    0.000000
    17   -0.041341    0.059591    0.000000
    18    0.004954   -0.011404   -0.000000
    19    0.017761    0.065611   -0.000000
    20    0.000787    0.017280    0.000000
    21    0.026606   -0.018867    0.000000
    22    0.198606    0.110204   -0.000000
    23   -0.051942   -0.059977   -0.000000
    24    0.114896   -0.035691   -0.000000
    25    0.145273   -0.074214   -0.000000
    26    0.061299   -0.066923    0.000000
    27   -0.105369   -0.061433   -0.000000
    28    2.178571    2.849995    0.000000
    29    0.000815    0.096795   -0.000000
----------------------------------------
   Tot    2.331927    1.421822    0.000000
----------------------------------------
   Max    2.849995
   Res    0.408617    sqrt( Sum f_i^2 / 3N )
----------------------------------------
   Max    2.849995    constrained

Stress tensor Voigt[x,y,z,yz,xz,xy] (kbar):       -0.99        0.48       -0.12       -0.00        0.00       -0.22
(Free)E + p*V (eV/cell)    -4147.4674
Target enthalpy (eV/cell)    -4148.0342

mulliken: Atomic and Orbital Populations:

Species: O                   

Atom      Orb        Charge      Spin       Svec
----------------------------------------------------------------
    1  1 2s         1.71923   0.00000      0.000   0.000  -0.000
    1  2 2s         0.06616   0.00000     -0.000  -0.000   0.000
    1  3 2py        1.36251   0.00000      0.000   0.000  -0.000
    1  4 2pz        1.62794   0.00000      0.000   0.000   0.000
    1  5 2px        1.63390   0.00000      0.000   0.000  -0.000
    1  6 2py        0.08323   0.00000     -0.000   0.000   0.000
    1  7 2pz       -0.01812   0.00000     -0.000  -0.000   0.000
    1  8 2px        0.00191   0.00000     -0.000  -0.000   0.000
    1  9 3Pdxy      0.00958   0.00000     -0.000   0.000  -0.000
    1 10 3Pdyz      0.00714   0.00000      0.000   0.000   0.000
    1 11 3Pdz2      0.00230   0.00000      0.000  -0.000   0.000
    1 12 3Pdxz      0.00009   0.00000      0.000  -0.000  -0.000
    1 13 3Pdx2-y2   0.00552   0.00000     -0.000  -0.000  -0.000
    1     Total     6.50141   0.00000      0.000   0.000  -0.000

   28  1 2s         1.73707   0.00000     -0.000  -0.000   0.000
   28  2 2s         0.06109   0.00000      0.000   0.000  -0.000
   28  3 2py        1.35414   0.00000     -0.000  -0.000  -0.000
   28  4 2pz        1.61317   0.00000     -0.000  -0.000  -0.000
   28  5 2px        1.66208   0.00000     -0.000   0.000  -0.000
   28  6 2py        0.07680   0.00000     -0.000  -0.000   0.000
   28  7 2pz       -0.01635   0.00000      0.000  -0.000   0.000
   28  8 2px       -0.00429   0.00000      0.000   0.000   0.000
   28  9 3Pdxy      0.00908   0.00000      0.000   0.000   0.000
   28 10 3Pdyz      0.00841   0.00000     -0.000  -0.000   0.000
   28 11 3Pdz2      0.00200   0.00000      0.000  -0.000  -0.000
   28 12 3Pdxz     -0.00001   0.00000     -0.000   0.000  -0.000
   28 13 3Pdx2-y2   0.00739   0.00000     -0.000   0.000   0.000
   28     Total     6.51060   0.00000     -0.000  -0.000  -0.000

----------------------------------------------------------------
Total              13.01201   0.00000     -0.000  -0.000  -0.000


Species: N                   

Atom      Orb        Charge      Spin       Svec
----------------------------------------------------------------
    2  1 2s         1.54804   0.00000     -0.000   0.000   0.000
    2  2 2s         0.08514   0.00000      0.000  -0.000   0.000
    2  3 2py        1.04319   0.00000      0.000   0.000   0.000
    2  4 2pz        1.22488   0.00000     -0.000   0.000   0.000
    2  5 2px        0.99371   0.00000     -0.000  -0.000   0.000
    2  6 2py        0.18811   0.00000     -0.000  -0.000  -0.000
    2  7 2pz        0.05522   0.00000      0.000  -0.000  -0.000
    2  8 2px        0.19561   0.00000      0.000   0.000  -0.000
    2  9 3Pdxy      0.00834   0.00000     -0.000  -0.000   0.000
    2 10 3Pdyz      0.01094   0.00000      0.000  -0.000  -0.000
    2 11 3Pdz2      0.00189   0.00000     -0.000  -0.000  -0.000
    2 12 3Pdxz      0.00755   0.00000      0.000  -0.000  -0.000
    2 13 3Pdx2-y2   0.00908   0.00000     -0.000  -0.000   0.000
    2     Total     5.37171   0.00000     -0.000   0.000   0.000

    3  1 2s         1.38243   0.00000     -0.000   0.000  -0.000
    3  2 2s         0.12381   0.00000      0.000  -0.000   0.000
    3  3 2py        0.93389   0.00000      0.000   0.000  -0.000
    3  4 2pz        1.53575   0.00000      0.000  -0.000  -0.000
    3  5 2px        1.07244   0.00000      0.000   0.000  -0.000
    3  6 2py        0.25597   0.00000     -0.000   0.000   0.000
    3  7 2pz        0.00559   0.00000     -0.000   0.000   0.000
    3  8 2px        0.18802   0.00000     -0.000  -0.000   0.000
    3  9 3Pdxy      0.00404   0.00000     -0.000   0.000   0.000
    3 10 3Pdyz      0.00391   0.00000      0.000  -0.000   0.000
    3 11 3Pdz2      0.00046   0.00000     -0.000  -0.000   0.000
    3 12 3Pdxz      0.00276   0.00000      0.000   0.000   0.000
    3 13 3Pdx2-y2   0.00245   0.00000     -0.000   0.000  -0.000
    3     Total     5.51150   0.00000      0.000   0.000  -0.000

    4  1 2s         1.46206   0.00000     -0.000  -0.000  -0.000
    4  2 2s         0.11926   0.00000      0.000  -0.000   0.000
    4  3 2py        1.12571   0.00000     -0.000   0.000  -0.000
    4  4 2pz        1.28948   0.00000     -0.000   0.000  -0.000
    4  5 2px        0.82713   0.00000      0.000  -0.000  -0.000
    4  6 2py        0.15131   0.00000      0.000  -0.000   0.000
    4  7 2pz        0.05327   0.00000      0.000  -0.000   0.000
    4  8 2px        0.29258   0.00000      0.000   0.000   0.000
    4  9 3Pdxy      0.00869   0.00000      0.000  -0.000  -0.000
    4 10 3Pdyz      0.01048   0.00000      0.000  -0.000   0.000
    4 11 3Pdz2      0.00127   0.00000     -0.000  -0.000  -0.000
    4 12 3Pdxz      0.00476   0.00000      0.000   0.000  -0.000
    4 13 3Pdx2-y2   0.00794   0.00000     -0.000   0.000   0.000
    4     Total     5.35393   0.00000     -0.000  -0.000  -0.000

    5  1 2s         1.37526   0.00000      0.000  -0.000   0.000
    5  2 2s         0.12853   0.00000     -0.000   0.000   0.000
    5  3 2py        1.02618   0.00000      0.000   0.000   0.000
    5  4 2pz        1.50141   0.00000      0.000  -0.000   0.000
    5  5 2px        1.05960   0.00000      0.000   0.000   0.000
    5  6 2py        0.20372   0.00000     -0.000  -0.000   0.000
    5  7 2pz        0.01325   0.00000     -0.000   0.000  -0.000
    5  8 2px        0.20179   0.00000     -0.000   0.000   0.000
    5  9 3Pdxy      0.00386   0.00000      0.000  -0.000  -0.000
    5 10 3Pdyz      0.00246   0.00000      0.000   0.000  -0.000
    5 11 3Pdz2      0.00143   0.00000     -0.000  -0.000  -0.000
    5 12 3Pdxz      0.00650   0.00000     -0.000   0.000  -0.000
    5 13 3Pdx2-y2   0.00563   0.00000      0.000   0.000   0.000
    5     Total     5.52964   0.00000      0.000   0.000   0.000

    6  1 2s         1.26860   0.00000     -0.000  -0.000  -0.000
    6  2 2s         0.18033   0.00000     -0.000   0.000   0.000
    6  3 2py        1.06179   0.00000      0.000  -0.000  -0.000
    6  4 2pz        1.50439   0.00000      0.000  -0.000  -0.000
    6  5 2px        0.97924   0.00000     -0.000  -0.000  -0.000
    6  6 2py        0.19800   0.00000      0.000   0.000   0.000
    6  7 2pz        0.03560   0.00000     -0.000   0.000   0.000
    6  8 2px        0.25762   0.00000      0.000   0.000   0.000
    6  9 3Pdxy      0.00265   0.00000     -0.000   0.000  -0.000
    6 10 3Pdyz      0.00003   0.00000     -0.000  -0.000   0.000
    6 11 3Pdz2      0.00175   0.00000      0.000  -0.000   0.000
    6 12 3Pdxz      0.00404   0.00000      0.000   0.000   0.000
    6 13 3Pdx2-y2   0.00451   0.00000     -0.000  -0.000   0.000
    6     Total     5.49853   0.00000     -0.000  -0.000  -0.000

   21  1 2s         1.41678   0.00000      0.000  -0.000   0.000
   21  2 2s         0.12681   0.00000     -0.000   0.000  -0.000
   21  3 2py        0.88944   0.00000      0.000   0.000  -0.000
   21  4 2pz        1.33143   0.00000     -0.000  -0.000  -0.000
   21  5 2px        1.17065   0.00000      0.000   0.000  -0.000
   21  6 2py        0.27129   0.00000     -0.000  -0.000   0.000
   21  7 2pz        0.04080   0.00000      0.000   0.000   0.000
   21  8 2px        0.15528   0.00000     -0.000   0.000   0.000
   21  9 3Pdxy      0.00649   0.00000     -0.000   0.000   0.000
   21 10 3Pdyz      0.00446   0.00000      0.000   0.000   0.000
   21 11 3Pdz2      0.00004   0.00000      0.000   0.000   0.000
   21 12 3Pdxz      0.00565   0.00000      0.000  -0.000   0.000
   21 13 3Pdx2-y2   0.00561   0.00000      0.000   0.000   0.000
   21     Total     5.42475   0.00000      0.000  -0.000  -0.000

   22  1 2s         1.29475   0.00000      0.000   0.000   0.000
   22  2 2s         0.17026   0.00000     -0.000  -0.000  -0.000
   22  3 2py        1.05197   0.00000      0.000  -0.000  -0.000
   22  4 2pz        1.46127   0.00000     -0.000  -0.000  -0.000
   22  5 2px        1.03011   0.00000      0.000   0.000  -0.000
   22  6 2py        0.20268   0.00000     -0.000  -0.000   0.000
   22  7 2pz        0.03477   0.00000     -0.000   0.000   0.000
   22  8 2px        0.23068   0.00000     -0.000  -0.000   0.000
   22  9 3Pdxy      0.00412   0.00000      0.000  -0.000  -0.000
   22 10 3Pdyz      0.00017   0.00000      0.000   0.000   0.000
   22 11 3Pdz2      0.00248   0.00000     -0.000  -0.000  -0.000
   22 12 3Pdxz      0.00435   0.00000     -0.000   0.000  -0.000
   22 13 3Pdx2-y2   0.00510   0.00000      0.000  -0.000  -0.000
   22     Total     5.49271   0.00000      0.000  -0.000  -0.000

   23  1 2s         1.37238   0.00000     -0.000   0.000   0.000
   23  2 2s         0.13008   0.00000      0.000  -0.000   0.000
   23  3 2py        1.00975   0.00000     -0.000   0.000  -0.000
   23  4 2pz        1.53907   0.00000      0.000  -0.000  -0.000
   23  5 2px        1.04946   0.00000     -0.000   0.000  -0.000
   23  6 2py        0.21365   0.00000      0.000  -0.000   0.000
   23  7 2pz        0.00414   0.00000      0.000  -0.000   0.000
   23  8 2px        0.20289   0.00000      0.000  -0.000   0.000
   23  9 3Pdxy      0.00542   0.00000     -0.000  -0.000   0.000
   23 10 3Pdyz      0.00457   0.00000     -0.000   0.000   0.000
   23 11 3Pdz2      0.00082   0.00000      0.000  -0.000  -0.000
   23 12 3Pdxz      0.00242   0.00000      0.000   0.000  -0.000
   23 13 3Pdx2-y2   0.00145   0.00000     -0.000  -0.000  -0.000
   23     Total     5.53609   0.00000      0.000  -0.000  -0.000

----------------------------------------------------------------
Total              56.73085   0.00000      0.000  -0.000   0.000


Species: Si                  

Atom      Orb        Charge      Spin       Svec
----------------------------------------------------------------
    7  1 3s         0.66220   0.00000      0.000   0.000  -0.000
    7  2 3s         0.36734   0.00000     -0.000  -0.000   0.000
    7  3 3py        0.46329   0.00000      0.000  -0.000  -0.000
    7  4 3pz        0.69996   0.00000     -0.000   0.000  -0.000
    7  5 3px        0.12081   0.00000      0.000   0.000  -0.000
    7  6 3py        0.27894   0.00000     -0.000   0.000  -0.000
    7  7 3pz        0.26170   0.00000      0.000  -0.000  -0.000
    7  8 3px        0.43982   0.00000     -0.000  -0.000  -0.000
    7  9 3Pdxy      0.24618   0.00000     -0.000   0.000  -0.000
    7 10 3Pdyz      0.02837   0.00000      0.000  -0.000  -0.000
    7 11 3Pdz2      0.01133   0.00000      0.000   0.000   0.000
    7 12 3Pdxz      0.14717   0.00000     -0.000   0.000   0.000
    7 13 3Pdx2-y2   0.11390   0.00000     -0.000  -0.000  -0.000
    7     Total     3.84101   0.00000     -0.000   0.000  -0.000

    8  1 3s         0.65338   0.00000     -0.000  -0.000   0.000
    8  2 3s         0.36937   0.00000      0.000   0.000  -0.000
    8  3 3py        0.39436   0.00000      0.000  -0.000  -0.000
    8  4 3pz        0.49903   0.00000      0.000   0.000  -0.000
    8  5 3px       -0.02088   0.00000     -0.000   0.000  -0.000
    8  6 3py        0.30557   0.00000     -0.000  -0.000   0.000
    8  7 3pz        0.20599   0.00000     -0.000  -0.000  -0.000
    8  8 3px        0.51418   0.00000      0.000  -0.000   0.000
    8  9 3Pdxy      0.24951   0.00000      0.000  -0.000   0.000
    8 10 3Pdyz      0.11177   0.00000     -0.000  -0.000  -0.000
    8 11 3Pdz2      0.01354   0.00000     -0.000   0.000  -0.000
    8 12 3Pdxz      0.15753   0.00000     -0.000   0.000  -0.000
    8 13 3Pdx2-y2   0.20366   0.00000      0.000   0.000  -0.000
    8     Total     3.65702   0.00000      0.000  -0.000  -0.000

    9  1 3s         0.60015   0.00000     -0.000  -0.000   0.000
    9  2 3s         0.36964   0.00000      0.000   0.000   0.000
    9  3 3py        0.11737   0.00000      0.000  -0.000   0.000
    9  4 3pz        0.47326   0.00000      0.000  -0.000   0.000
    9  5 3px        0.34263   0.00000     -0.000   0.000   0.000
    9  6 3py        0.39635   0.00000     -0.000   0.000   0.000
    9  7 3pz        0.19190   0.00000     -0.000   0.000   0.000
    9  8 3px        0.29266   0.00000      0.000  -0.000  -0.000
    9  9 3Pdxy      0.27328   0.00000     -0.000  -0.000   0.000
    9 10 3Pdyz      0.18541   0.00000      0.000  -0.000   0.000
    9 11 3Pdz2      0.01016   0.00000      0.000   0.000   0.000
    9 12 3Pdxz      0.10933   0.00000     -0.000   0.000   0.000
    9 13 3Pdx2-y2   0.18043   0.00000     -0.000  -0.000  -0.000
    9     Total     3.54258   0.00000     -0.000  -0.000   0.000

   10  1 3s         0.48710   0.00000      0.000   0.000   0.000
   10  2 3s         0.37588   0.00000     -0.000  -0.000   0.000
   10  3 3py        0.23770   0.00000      0.000  -0.000   0.000
   10  4 3pz        0.42123   0.00000      0.000   0.000   0.000
   10  5 3px        0.10245   0.00000     -0.000  -0.000   0.000
   10  6 3py        0.32412   0.00000     -0.000   0.000   0.000
   10  7 3pz        0.21643   0.00000     -0.000  -0.000   0.000
   10  8 3px        0.44149   0.00000      0.000   0.000   0.000
   10  9 3Pdxy      0.17926   0.00000     -0.000  -0.000   0.000
   10 10 3Pdyz      0.13097   0.00000      0.000  -0.000   0.000
   10 11 3Pdz2      0.00962   0.00000      0.000   0.000   0.000
   10 12 3Pdxz      0.18338   0.00000      0.000  -0.000   0.000
   10 13 3Pdx2-y2   0.30859   0.00000      0.000   0.000   0.000
   10     Total     3.41821   0.00000     -0.000   0.000   0.000

   11  1 3s         0.55380   0.00000      0.000   0.000  -0.000
   11  2 3s         0.38513   0.00000     -0.000  -0.000  -0.000
   11  3 3py        0.32434   0.00000      0.000  -0.000  -0.000
   11  4 3pz        0.53787   0.00000      0.000  -0.000  -0.000
   11  5 3px        0.12641   0.00000     -0.000  -0.000  -0.000
   11  6 3py        0.28623   0.00000      0.000  -0.000  -0.000
   11  7 3pz        0.17749   0.00000      0.000  -0.000  -0.000
   11  8 3px        0.44594   0.00000      0.000   0.000   0.000
   11  9 3Pdxy      0.22612   0.00000      0.000   0.000  -0.000
   11 10 3Pdyz      0.12706   0.00000      0.000  -0.000  -0.000
   11 11 3Pdz2      0.00960   0.00000      0.000  -0.000   0.000
   11 12 3Pdxz      0.05305   0.00000      0.000  -0.000  -0.000
   11 13 3Pdx2-y2   0.20473   0.00000     -0.000  -0.000  -0.000
   11     Total     3.45776   0.00000      0.000  -0.000  -0.000

   17  1 3s         0.63500   0.00000      0.000  -0.000   0.000
   17  2 3s         0.36044   0.00000     -0.000   0.000  -0.000
   17  3 3py        0.21250   0.00000      0.000  -0.000  -0.000
   17  4 3pz        0.42681   0.00000      0.000   0.000   0.000
   17  5 3px        0.23787   0.00000     -0.000  -0.000   0.000
   17  6 3py        0.37974   0.00000     -0.000   0.000   0.000
   17  7 3pz        0.21277   0.00000      0.000   0.000   0.000
   17  8 3px        0.38543   0.00000      0.000  -0.000  -0.000
   17  9 3Pdxy      0.28210   0.00000     -0.000   0.000  -0.000
   17 10 3Pdyz      0.13767   0.00000      0.000   0.000  -0.000
   17 11 3Pdz2      0.00791   0.00000      0.000   0.000  -0.000
   17 12 3Pdxz      0.14478   0.00000      0.000   0.000  -0.000
   17 13 3Pdx2-y2   0.17669   0.00000     -0.000   0.000  -0.000
   17     Total     3.59970   0.00000      0.000   0.000  -0.000

   18  1 3s         0.74286   0.00000     -0.000   0.000  -0.000
   18  2 3s         0.34325   0.00000      0.000  -0.000   0.000
   18  3 3py        0.06185   0.00000      0.000  -0.000  -0.000
   18  4 3pz        0.79808   0.00000     -0.000  -0.000  -0.000
   18  5 3px        0.56105   0.00000     -0.000  -0.000  -0.000
   18  6 3py        0.52902   0.00000     -0.000   0.000   0.000
   18  7 3pz        0.19657   0.00000      0.000   0.000  -0.000
   18  8 3px        0.25136   0.00000      0.000   0.000  -0.000
   18  9 3Pdxy      0.10173   0.00000      0.000   0.000  -0.000
   18 10 3Pdyz      0.02784   0.00000     -0.000   0.000   0.000
   18 11 3Pdz2      0.00824   0.00000     -0.000  -0.000   0.000
   18 12 3Pdxz      0.03317   0.00000      0.000   0.000   0.000
   18 13 3Pdx2-y2   0.10817   0.00000     -0.000   0.000  -0.000
   18     Total     3.76320   0.00000     -0.000  -0.000  -0.000

   19  1 3s         0.46039   0.00000     -0.000  -0.000   0.000
   19  2 3s         0.36413   0.00000      0.000   0.000  -0.000
   19  3 3py        0.07673   0.00000     -0.000  -0.000   0.000
   19  4 3pz        0.40258   0.00000     -0.000  -0.000   0.000
   19  5 3px        0.25989   0.00000      0.000  -0.000  -0.000
   19  6 3py        0.45389   0.00000      0.000  -0.000   0.000
   19  7 3pz        0.19324   0.00000      0.000  -0.000   0.000
   19  8 3px        0.29638   0.00000     -0.000   0.000   0.000
   19  9 3Pdxy      0.31081   0.00000      0.000  -0.000  -0.000
   19 10 3Pdyz      0.18348   0.00000      0.000   0.000   0.000
   19 11 3Pdz2      0.01076   0.00000      0.000   0.000   0.000
   19 12 3Pdxz      0.10135   0.00000     -0.000   0.000  -0.000
   19 13 3Pdx2-y2   0.23894   0.00000      0.000   0.000   0.000
   19     Total     3.35258   0.00000      0.000  -0.000   0.000

   20  1 3s         0.67851   0.00000     -0.000   0.000   0.000
   20  2 3s         0.37561   0.00000      0.000  -0.000   0.000
   20  3 3py        0.33530   0.00000     -0.000   0.000   0.000
   20  4 3pz        0.61376   0.00000      0.000   0.000   0.000
   20  5 3px        0.14361   0.00000      0.000   0.000   0.000
   20  6 3py        0.28444   0.00000      0.000  -0.000   0.000
   20  7 3pz        0.16185   0.00000     -0.000  -0.000   0.000
   20  8 3px        0.49818   0.00000     -0.000  -0.000  -0.000
   20  9 3Pdxy      0.09888   0.00000     -0.000  -0.000   0.000
   20 10 3Pdyz      0.12896   0.00000     -0.000   0.000   0.000
   20 11 3Pdz2      0.00790   0.00000     -0.000  -0.000  -0.000
   20 12 3Pdxz      0.02635   0.00000     -0.000   0.000  -0.000
   20 13 3Pdx2-y2   0.17742   0.00000      0.000  -0.000  -0.000
   20     Total     3.53077   0.00000     -0.000   0.000   0.000

----------------------------------------------------------------
Total              88.89369   0.00000      0.000  -0.000  -0.000


Species: H                   

Atom      Orb        Charge      Spin       Svec
----------------------------------------------------------------
   12  1 1s         0.48254   0.00000     -0.000   0.000   0.000
   12  2 1s         0.17788   0.00000      0.000  -0.000   0.000
   12  3 2Ppy       0.04245   0.00000      0.000  -0.000   0.000
   12  4 2Ppz       0.03161   0.00000     -0.000   0.000  -0.000
   12  5 2Ppx       0.05169   0.00000     -0.000  -0.000   0.000
   12     Total     0.78616   0.00000     -0.000   0.000   0.000

   13  1 1s         1.02014   0.00000     -0.000  -0.000   0.000
   13  2 1s         0.09537   0.00000      0.000   0.000   0.000
   13  3 2Ppy       0.01805   0.00000     -0.000  -0.000  -0.000
   13  4 2Ppz       0.02001   0.00000      0.000   0.000  -0.000
   13  5 2Ppx       0.03504   0.00000     -0.000   0.000   0.000
   13     Total     1.18861   0.00000     -0.000  -0.000   0.000

   14  1 1s         0.48916   0.00000      0.000  -0.000  -0.000
   14  2 1s         0.19558   0.00000     -0.000  -0.000   0.000
   14  3 2Ppy       0.02069   0.00000      0.000  -0.000  -0.000
   14  4 2Ppz       0.04811   0.00000     -0.000   0.000  -0.000
   14  5 2Ppx       0.02129   0.00000     -0.000  -0.000  -0.000
   14     Total     0.77483   0.00000      0.000   0.000  -0.000

   15  1 1s         0.43299   0.00000      0.000   0.000   0.000
   15  2 1s         0.17832   0.00000     -0.000  -0.000   0.000
   15  3 2Ppy       0.04525   0.00000     -0.000  -0.000   0.000
   15  4 2Ppz       0.04673   0.00000     -0.000   0.000  -0.000
   15  5 2Ppx       0.09906   0.00000     -0.000   0.000   0.000
   15     Total     0.80234   0.00000      0.000   0.000   0.000

   16  1 1s         0.50785   0.00000     -0.000  -0.000  -0.000
   16  2 1s         0.18764   0.00000     -0.000   0.000   0.000
   16  3 2Ppy       0.02976   0.00000     -0.000  -0.000  -0.000
   16  4 2Ppz       0.03934   0.00000     -0.000   0.000  -0.000
   16  5 2Ppx       0.02340   0.00000     -0.000   0.000   0.000
   16     Total     0.78799   0.00000     -0.000   0.000  -0.000

   24  1 1s         1.06185   0.00000     -0.000   0.000   0.000
   24  2 1s         0.07381   0.00000      0.000  -0.000   0.000
   24  3 2Ppy       0.03253   0.00000     -0.000  -0.000   0.000
   24  4 2Ppz       0.02982   0.00000     -0.000   0.000  -0.000
   24  5 2Ppx       0.01748   0.00000      0.000   0.000  -0.000
   24     Total     1.21549   0.00000      0.000   0.000   0.000

   25  1 1s         1.04221   0.00000     -0.000  -0.000  -0.000
   25  2 1s         0.08675   0.00000      0.000   0.000   0.000
   25  3 2Ppy       0.01221   0.00000      0.000  -0.000   0.000
   25  4 2Ppz       0.01918   0.00000      0.000   0.000   0.000
   25  5 2Ppx       0.03554   0.00000      0.000  -0.000   0.000
   25     Total     1.19590   0.00000     -0.000  -0.000  -0.000

   26  1 1s         0.49808   0.00000      0.000   0.000   0.000
   26  2 1s         0.19265   0.00000     -0.000   0.000   0.000
   26  3 2Ppy       0.02446   0.00000      0.000  -0.000  -0.000
   26  4 2Ppz       0.04826   0.00000      0.000  -0.000  -0.000
   26  5 2Ppx       0.02096   0.00000     -0.000  -0.000  -0.000
   26     Total     0.78440   0.00000      0.000   0.000  -0.000

   27  1 1s         0.42088   0.00000     -0.000  -0.000   0.000
   27  2 1s         0.17553   0.00000      0.000   0.000   0.000
   27  3 2Ppy       0.05868   0.00000     -0.000   0.000  -0.000
   27  4 2Ppz       0.04593   0.00000     -0.000  -0.000  -0.000
   27  5 2Ppx       0.10460   0.00000     -0.000   0.000  -0.000
   27     Total     0.80563   0.00000     -0.000  -0.000   0.000

   29  1 1s         0.49033   0.00000      0.000   0.000  -0.000
   29  2 1s         0.18734   0.00000      0.000  -0.000   0.000
   29  3 2Ppy       0.02494   0.00000     -0.000  -0.000   0.000
   29  4 2Ppz       0.03521   0.00000      0.000   0.000  -0.000
   29  5 2Ppx       0.02715   0.00000      0.000   0.000  -0.000
   29     Total     0.76497   0.00000      0.000   0.000  -0.000

----------------------------------------------------------------
Total              98.00000   0.00000      0.000  -0.000   0.000


siesta: Eigenvalues (eV):
ik =     1
  -22.9393  -22.9393  -22.5302  -22.5302  -21.4445  -21.4445  -21.2273  -21.2273  -20.9052  -20.9052
  -20.6601  -20.6601  -20.2032  -20.2032  -19.6473  -19.6473  -19.4772  -19.4772  -19.3593  -19.3593
  -14.7965  -14.7965  -13.7986  -13.7986  -13.2664  -13.2664  -13.1126  -13.1126  -12.9888  -12.9888
  -12.6456  -12.6456  -12.5606  -12.5606  -12.1128  -12.1128  -11.8577  -11.8577  -11.7042  -11.7042
  -10.9934  -10.9934  -10.8429  -10.8429  -10.5850  -10.5850  -10.3484  -10.3484  -10.2011  -10.2011
   -9.7041   -9.7041   -9.1065   -9.1065   -8.9834   -8.9834   -8.8349   -8.8349   -8.6949   -8.6949
   -8.4767   -8.4767   -8.4034   -8.4034   -8.3748   -8.3748   -7.9609   -7.9609   -7.8653   -7.8653
   -7.5953   -7.5953   -7.3704   -7.3704   -7.3267   -7.3267   -7.1462   -7.1462   -6.9435   -6.9435
   -6.7385   -6.7385   -6.6286   -6.6286   -6.4252   -6.4252   -6.4215   -6.4215   -6.2643   -6.2643
   -6.0336   -6.0336   -5.9643   -5.9643   -5.5699   -5.5699   -4.3195   -4.3195   -3.2506   -3.2506
   -2.3724   -2.3724   -2.3613   -2.3613   -2.1848   -2.1848   -1.9050   -1.9050   -1.8679   -1.8679
   -1.8613   -1.8613   -1.6294   -1.6294   -1.6131   -1.6131   -1.2724   -1.2724   -1.1132   -1.1132
   -1.0254   -1.0254   -0.5292   -0.5292   -0.5091   -0.5091   -0.2972   -0.2972    0.3772    0.3772
    0.4731    0.4731    0.5074    0.5074    0.6572    0.6572    0.9603    0.9603    1.0947    1.0947
    1.3970    1.3970    1.3993    1.3993    1.4681    1.4681    1.5577    1.5577    2.0033    2.0033
    2.1460    2.1460    2.6578    2.6578    2.7196    2.7196    2.7443    2.7443    2.8686    2.8686
    2.9862    2.9862    3.1638    3.1638    3.3971    3.3971    3.4259    3.4259    3.6849    3.6849
    3.8006    3.8006    4.0173    4.0173    4.1027    4.1027    4.2207    4.2207    4.3813    4.3813
    4.5510    4.5510    4.5992    4.5992    4.7588    4.7588    5.0614    5.0614    5.1812    5.1812
    5.3258    5.3258    5.4634    5.4634    5.6757    5.6757    5.7650    5.7650    5.8837    5.8837
    5.9508    5.9508    6.3959    6.3959    6.4274    6.4274    6.5434    6.5434    6.5842    6.5842
    6.8670    6.8670    6.9877    6.9877    7.0261    7.0261    7.1571    7.1571    7.2018    7.2018
    7.3573    7.3573    7.6910    7.6910    7.7136    7.7136    8.0233    8.0233    8.0757    8.0757
    8.2377    8.2377    8.5175    8.5175    8.6608    8.6608    8.6902    8.6902    8.7801    8.7801
    8.7924    8.7924    8.9267    8.9267    9.1020    9.1020    9.1863    9.1863    9.4689    9.4689
    9.6012    9.6012    9.8851    9.8851    9.9829    9.9829   10.0607   10.0607   10.1170   10.1170
   10.3533   10.3533   10.6597   10.6597   10.8393   10.8393   11.2246   11.2246   11.3384   11.3384
   11.3666   11.3666   11.7292   11.7292   12.3143   12.3143   12.4154   12.4154   12.4237   12.4237
   12.5585   12.5585   12.6957   12.6957   12.9265   12.9265   12.9870   12.9870   13.3371   13.3371
   13.6082   13.6082   13.7359   13.7359   13.9126   13.9126   14.0101   14.0101   14.1237   14.1237
   14.2712   14.2712   14.5733   14.5733   14.8613   14.8613   14.9397   14.9397   15.1558   15.1558
   15.4374   15.4374   16.2538   16.2538   16.6422   16.6422   16.6494   16.6494   16.8814   16.8814
   17.3257   17.3257   17.8163   17.8163   18.3142   18.3142   18.5585   18.5585   19.0567   19.0567
   19.2939   19.2939   20.2183   20.2183   20.2501   20.2501   20.6344   20.6344   20.7682   20.7682
   21.2356   21.2356   22.0088   22.0088   22.2422   22.2422   22.7469   22.7469   23.5769   23.5769
   23.8363   23.8363   23.9939   23.9939   24.2341   24.2341   24.7965   24.7965   25.2261   25.2261
   25.9947   25.9947   26.0778   26.0778   26.5818   26.5818   27.8529   27.8529   28.8185   28.8185
   29.5129   29.5129   29.8070   29.8070   30.0082   30.0082   30.3731   30.3731   30.6911   30.6911
   30.8706   30.8706   30.9934   30.9934   31.3365   31.3365   31.5810   31.5810   31.8051   31.8051
   32.7719   32.7719   33.5597   33.5597   33.7993   33.7993   33.9418   33.9418   34.0541   34.0541
   35.1125   35.1125   35.5204   35.5204   35.9463   35.9463   36.0942   36.0942   36.5757   36.5757
   37.0302   37.0302   37.1392   37.1392   37.2334   37.2334   37.4647   37.4647   38.6945   38.6945
   39.0124   39.0124   39.1577   39.1577   39.7122   39.7122   39.9379   39.9379   40.3763   40.3763
   40.7500   40.7500   40.8675   40.8675   41.5538   41.5538   41.7982   41.7982   41.9937   41.9937
   42.2959   42.2959   42.9343   42.9343   43.1881   43.1881   43.2317   43.2317   44.0408   44.0408
   44.3411   44.3411   44.5253   44.5253   44.6027   44.6027   45.0129   45.0129   45.0782   45.0782
   45.2523   45.2523   45.5423   45.5423   46.3036   46.3036   46.5043   46.5043   46.7773   46.7773
   47.1035   47.1035   47.7654   47.7654   48.4629   48.4629   49.0896   49.0896   49.9360   49.9360
   50.1233   50.1233   50.1914   50.1914   50.4398   50.4398   50.7496   50.7496   51.3457   51.3457
   51.5278   51.5278   51.9670   51.9670   52.6167   52.6167   53.0098   53.0098   54.0512   54.0512
   54.4580   54.4580   54.6444   54.6444   55.5736   55.5736   55.7949   55.7949   56.2677   56.2677
   56.3417   56.3417   56.9633   56.9633   58.5177   58.5177   58.6992   58.6992   59.3664   59.3664
   60.2027   60.2027   60.3075   60.3075   61.2702   61.2702   61.2798   61.2798   62.3317   62.3317
   62.5970   62.5970   63.1611   63.1611   63.3444   63.3444   64.0862   64.0862   66.6020   66.6020
   67.0325   67.0325   68.0163   68.0163   69.5851   69.5851   69.6836   69.6836   70.7161   70.7161
   71.8201   71.8201   72.0101   72.0101   73.1174   73.1174   75.9892   75.9892   88.0038   88.0038
   89.6240   89.6240   90.9678   90.9678   94.6984   94.6984   96.5127   96.5127   97.2688   97.2688
  101.3491  101.3491  102.4966  102.4966  103.2232  103.2232  104.5508  104.5508  106.5908  106.5908
  115.9935  115.9935  118.1722  118.1722  125.0504  125.0504  127.9615  127.9615  139.5119  139.5119
  145.3742  145.3742  147.7143  147.7143
siesta: Fermi energy =      -3.785573 eV

siesta: Program's energy decomposition (eV):
siesta: Ebs     =     -1134.720772
siesta: Eions   =      3585.165840
siesta: Ena     =       381.728918
siesta: Ekin    =      2912.315283
siesta: Enl     =     -2795.945984
siesta: Eso     =        -0.004327
siesta: Edftu   =         0.000000
siesta: DEna    =        48.239106
siesta: DUscf   =        13.674776
siesta: DUext   =         0.000000
siesta: Exc     =     -1122.876123
siesta: eta*DQ  =         0.000000
siesta: Emadel  =         0.000000
siesta: Emeta   =         0.000000
siesta: Emolmec =         0.000000
siesta: Ekinion =         0.000000
siesta: Eharris =     -4148.034191
siesta: Etot    =     -4148.034191
siesta: FreeEng =     -4148.034191

siesta: Final energy (eV):
siesta:  Band Struct. =   -1134.720772
siesta:       Kinetic =    2912.315283
siesta:       Hartree =    9085.196417
siesta:       Edftu   =       0.000000
siesta:       Eso     =      -0.004327
siesta:    Ext. field =       0.000000
siesta:   Exch.-corr. =   -1122.876123
siesta:  Ion-electron =  -20759.576447
siesta:       Ion-ion =    5736.911006
siesta:       Ekinion =       0.000000
siesta:         Total =   -4148.034191
siesta:         Fermi =      -3.785573

siesta: Atomic forces (eV/Ang):
siesta:      1   -0.107380   -1.178572   -0.000000
siesta:      2   -0.032437    0.039908   -0.000000
siesta:      3   -0.043656    0.001206    0.000000
siesta:      4   -0.037173    0.013011   -0.000000
siesta:      5   -0.003793    0.032480   -0.000000
siesta:      6   -0.170358   -0.066025   -0.000000
siesta:      7   -0.000187    0.014877   -0.000000
siesta:      8    0.015993   -0.015397    0.000000
siesta:      9   -0.000750   -0.064174    0.000000
siesta:     10    0.032254   -0.023011   -0.000000
siesta:     11   -0.001544    0.000835   -0.000000
siesta:     12    0.135828   -0.045122    0.000000
siesta:     13   -0.021842   -0.020479    0.000000
siesta:     14   -0.021582   -0.195168    0.000000
siesta:     15    0.064395    0.008618    0.000000
siesta:     16   -0.026757    0.047868    0.000000
siesta:     17   -0.041341    0.059591    0.000000
siesta:     18    0.004954   -0.011404   -0.000000
siesta:     19    0.017761    0.065611   -0.000000
siesta:     20    0.000787    0.017280    0.000000
siesta:     21    0.026606   -0.018867    0.000000
siesta:     22    0.198606    0.110204   -0.000000
siesta:     23   -0.051942   -0.059977   -0.000000
siesta:     24    0.114896   -0.035691   -0.000000
siesta:     25    0.145273   -0.074214   -0.000000
siesta:     26    0.061299   -0.066923    0.000000
siesta:     27   -0.105369   -0.061433   -0.000000
siesta:     28    2.178571    2.849995    0.000000
siesta:     29    0.000815    0.096795   -0.000000
siesta: ----------------------------------------
siesta:    Tot    2.331927    1.421822    0.000000

siesta: Stress tensor (static) (eV/Ang**3):
siesta:    -0.000618   -0.000135    0.000000
siesta:    -0.000135    0.000302    0.000000
siesta:     0.000000   -0.000000   -0.000072

siesta: Cell volume =       4379.982523 Ang**3

siesta: Pressure (static):
siesta:                Solid            Molecule  Units
siesta:           0.00000141         -0.00000081  Ry/Bohr**3
siesta:           0.00012940         -0.00007461  eV/Ang**3
siesta:           0.20732166         -0.11954730  kBar
(Free)E+ p_basis*V_orbitals  =       -4128.183774
(Free)Eharris+ p_basis*V_orbitals  =       -4128.183774
     spin moment: S , {S} =    0.00000   0.00000  -0.00000   0.00000

siesta: Electric dipole (a.u.)  =    1.639041    0.169283   -0.000000
siesta: Electric dipole (Debye) =    4.166030    0.430275   -0.000000

cite: Please see "GC.bib" for an exhaustive BiBTeX file.
cite: Please clearly indicate Siesta version in published work: v4.1.5-1-g384057250
cite: This calculation has made use of the following articles
cite: which are encouraged to be cited in a published work.
        Primary SIESTA paper
          DOI: www.doi.org/10.1088/0953-8984/14/11/302
        Spin-orbit coupling (on-site approximation)
          DOI: www.doi.org/10.1088/0953-8984/19/19/489001


WARNING: alloc-realloc-dealloc name mismatch
         Name: atomlist isa
         Size:              -116. Bytes
         Node:     0
         Subsequent mismatches will not be reported
>> End of run:  28-JUN-2023  18:29:14
Job completed
