<?xml version="1.0" encoding="UTF-8" ?>
<psml version="1.1" energy_unit="hartree" length_unit="bohr"
 uuid="aedb22d0-f020-11ed-560a-ac5fff3d7e2d"
 xmlns="http://esl.cecam.org/PSML/ns/1.1">
<provenance creator="ATM4.2.7" date="11-MAY-23">
<annotation action="semilocal-pseudopotential-generation" />
<input-file name="INP">
<![CDATA[   pg      Hydrogen
        tm2  4.0             # PS flavor, logder R
 n=H  c=pbr                  # Symbol, XC flavor,{ |r|s}
       0.0       0.0       0.0       0.0       0.0       0.0
    0    4                       # norbs_core, norbs_valence
    1    0      0.50      0.50   # 3s2
    2    1      0.00      0.00   # 3p3
    3    2      0.00      0.00   # 3d0
    4    3      0.00      0.00   # 4f0
      0.01      0.60      1.99      2.50      0.00      0.00
]]>
</input-file>
</provenance>
<pseudo-atom-spec atomic-label="H" atomic-number="1" z-pseudo="1"
 flavor="Troullier-Martins" relativity="dirac" spin-dft="no"
 core-corrections="no">
<annotation pseudo-energy="-0.458919715593" />
<exchange-correlation>
<annotation atom-xc-code="pb" siesta-xc-type="GGA" siesta-xc-authors="PBE" />
<libxc-info number-of-functionals="2">
<functional name="XC_GGA_X_PBE" type="XC_EXCHANGE" id="101" />
<functional name="XC_GGA_C_PBE" type="XC_CORRELATION" id="130" />
</libxc-info>
</exchange-correlation>
<valence-configuration total-valence-charge="1">
<shell n="1" l="s" occupation="1" />
</valence-configuration>
</pseudo-atom-spec>
<grid npts="376">
<annotation type="sampled-log-atom"
 recipe="r(i:1..N) = a*(exp(b*(i-1))-1); resampled"
 recipe-cont="a: scale; b: step" scale="0.247875217667E-02"
 step="0.125000000000E-01" delta="0.500000000000E-02" rmax="20" />
<grid-data>
  0.000000000000E+00  5.061497378559E-03  1.010939006577E-02  1.516276895795E-02
  2.017340934922E-02  2.518866038934E-02  3.047994836604E-02  3.581379470968E-02
  4.091238809158E-02  4.607906909334E-02  5.118593973606E-02  5.682990465277E-02
  6.225322253433E-02  6.729481741978E-02  7.272907264199E-02  7.858657021787E-02
  8.381483432270E-02  8.938029249206E-02  9.530469187468E-02  1.003181562586E-01
  1.055886664582E-01  1.111294014941E-01  1.169542160901E-01  1.230776753165E-01
  1.295150910112E-01  1.345588393619E-01  1.397953194098E-01  1.452318958181E-01
  1.508762146683E-01  1.567362142138E-01  1.628201360449E-01  1.691365366793E-01
  1.756942995962E-01  1.825026477306E-01  1.895711564441E-01  1.969097669919E-01
  2.019573113858E-01  2.071326349744E-01  2.124389725035E-01  2.178796406066E-01
  2.234580398784E-01  2.291776570002E-01  2.350420669188E-01  2.410549350813E-01
  2.472200197259E-01  2.535411742315E-01  2.600223495251E-01  2.666675965525E-01
  2.734810688093E-01  2.804670249375E-01  2.876298313870E-01  2.949739651451E-01
  3.025040165344E-01  3.102246920822E-01  3.181408174620E-01  3.262573405099E-01
  3.345793343170E-01  3.431120004003E-01  3.518606719539E-01  3.608308171823E-01
  3.700280427183E-01  3.794580971273E-01  3.891268745001E-01  3.990404181375E-01
  4.040909075639E-01  4.092049243269E-01  4.143832675018E-01  4.196267462155E-01
  4.249361797721E-01  4.303123977813E-01  4.357562402883E-01  4.412685579044E-01
  4.468502119406E-01  4.525020745415E-01  4.582250288223E-01  4.640199690062E-01
  4.698878005643E-01  4.758294403574E-01  4.818458167787E-01  4.879378698992E-01
  4.941065516147E-01  5.003528257943E-01  5.066776684309E-01  5.130820677941E-01
  5.195670245844E-01  5.261335520893E-01  5.327826763423E-01  5.395154362825E-01
  5.463328839174E-01  5.532360844869E-01  5.602261166303E-01  5.673040725543E-01
  5.744710582038E-01  5.817281934351E-01  5.890766121901E-01  5.965174626744E-01
  6.040519075360E-01  6.116811240471E-01  6.194063042884E-01  6.272286553349E-01
  6.351493994451E-01  6.431697742512E-01  6.512910329532E-01  6.595144445142E-01
  6.678412938590E-01  6.762728820747E-01  6.848105266143E-01  6.934555615020E-01
  7.022093375420E-01  7.110732225298E-01  7.200486014654E-01  7.291368767700E-01
  7.383394685051E-01  7.476578145943E-01  7.570933710483E-01  7.666476121919E-01
  7.763220308947E-01  7.861181388044E-01  7.960374665827E-01  8.060815641448E-01
  8.162520009013E-01  8.265503660037E-01  8.369782685925E-01  8.475373380487E-01
  8.582292242484E-01  8.690555978205E-01  8.800181504079E-01  8.911185949318E-01
  9.023586658593E-01  9.137401194742E-01  9.252647341519E-01  9.369343106368E-01
  9.487506723240E-01  9.607156655442E-01  9.728311598517E-01  9.850990483172E-01
  9.975212478233E-01  1.010099699364E+00  1.022836368348E+00  1.035733244905E+00
  1.048792344199E+00  1.062015706741E+00  1.075405398708E+00  1.088963512266E+00
  1.102692165899E+00  1.116593504736E+00  1.130669700890E+00  1.144922953795E+00
  1.159355490552E+00  1.173969566272E+00  1.188767464436E+00  1.203751497244E+00
  1.218924005984E+00  1.234287361389E+00  1.249843964015E+00  1.265596244614E+00
  1.281546664511E+00  1.297697715992E+00  1.314051922691E+00  1.330611839987E+00
  1.347380055399E+00  1.364359188997E+00  1.381551893804E+00  1.398960856215E+00
  1.416588796417E+00  1.434438468809E+00  1.452512662442E+00  1.470814201442E+00
  1.489345945465E+00  1.508110790131E+00  1.527111667487E+00  1.546351546457E+00
  1.565833433314E+00  1.585560372139E+00  1.605535445309E+00  1.625761773969E+00
  1.646242518523E+00  1.666980879131E+00  1.687980096202E+00  1.709243450908E+00
  1.730774265691E+00  1.752575904784E+00  1.774651774737E+00  1.797005324952E+00
  1.819640048214E+00  1.842559481246E+00  1.865767205256E+00  1.889266846497E+00
  1.913062076837E+00  1.937156614329E+00  1.961554223793E+00  1.986258717406E+00
  2.011273955294E+00  2.036603846140E+00  2.062252347790E+00  2.088223467875E+00
  2.114521264436E+00  2.141149846556E+00  2.168113375007E+00  2.195416062893E+00
  2.223062176316E+00  2.251056035037E+00  2.279402013153E+00  2.308104539781E+00
  2.337168099749E+00  2.366597234298E+00  2.396396541790E+00  2.426570678428E+00
  2.457124358980E+00  2.488062357523E+00  2.519389508181E+00  2.551110705886E+00
  2.583230907139E+00  2.615755130787E+00  2.648688458806E+00  2.682036037095E+00
  2.715803076282E+00  2.749994852535E+00  2.784616708389E+00  2.819674053579E+00
  2.855172365886E+00  2.891117191995E+00  2.927514148357E+00  2.964368922071E+00
  3.001687271770E+00  3.039475028522E+00  3.077738096741E+00  3.116482455110E+00
  3.155714157513E+00  3.195439333984E+00  3.235664191661E+00  3.276395015762E+00
  3.317638170560E+00  3.359400100382E+00  3.401687330614E+00  3.444506468723E+00
  3.487864205285E+00  3.531767315036E+00  3.576222657925E+00  3.621237180190E+00
  3.666817915443E+00  3.712971985764E+00  3.759706602823E+00  3.807029068998E+00
  3.854946778520E+00  3.903467218630E+00  3.952597970744E+00  4.002346711643E+00
  4.052721214668E+00  4.103729350939E+00  4.155379090579E+00  4.207678503967E+00
  4.260635762992E+00  4.314259142333E+00  4.368557020753E+00  4.423537882405E+00
  4.479210318161E+00  4.535583026953E+00  4.592664817130E+00  4.650464607839E+00
  4.708991430414E+00  4.768254429791E+00  4.828262865934E+00  4.889026115282E+00
  4.950553672218E+00  5.012855150548E+00  5.075940285003E+00  5.139818932766E+00
  5.204501075003E+00  5.269996818432E+00  5.336316396897E+00  5.403470172965E+00
  5.471468639551E+00  5.540322421553E+00  5.610042277516E+00  5.680639101309E+00
  5.752123923829E+00  5.824507914725E+00  5.897802384142E+00  5.972018784492E+00
  6.047168712236E+00  6.123263909705E+00  6.200316266928E+00  6.278337823493E+00
  6.357340770425E+00  6.437337452097E+00  6.518340368153E+00  6.600362175464E+00
  6.683415690103E+00  6.767513889351E+00  6.852669913723E+00  6.938897069020E+00
  7.026208828413E+00  7.114618834539E+00  7.204140901644E+00  7.294789017731E+00
  7.386577346754E+00  7.479520230825E+00  7.573632192460E+00  7.668927936844E+00
  7.765422354130E+00  7.863130521768E+00  7.962067706858E+00  8.062249368536E+00
  8.163691160391E+00  8.266408932909E+00  8.370418735951E+00  8.475736821260E+00
  8.582379645001E+00  8.690363870333E+00  8.799706370011E+00  8.910424229022E+00
  9.022534747257E+00  9.136055442214E+00  9.251004051730E+00  9.367398536761E+00
  9.485257084182E+00  9.604598109630E+00  9.725440260383E+00  9.847802418274E+00
  9.971703702638E+00  1.009716347330E+01  1.022420133361E+01  1.035283713350E+01
  1.048309097255E+01  1.061498320321E+01  1.074853443390E+01  1.088376553227E+01
  1.102069762846E+01  1.115935211839E+01  1.129975066710E+01  1.144191521215E+01
  1.158586796705E+01  1.173163142469E+01  1.187922836092E+01  1.202868183806E+01
  1.218001520853E+01  1.233325211846E+01  1.248841651143E+01  1.264553263220E+01
  1.280462503049E+01  1.296571856479E+01  1.312883840631E+01  1.329401004286E+01
  1.346125928283E+01  1.363061225925E+01  1.380209543389E+01  1.397573560133E+01
  1.415155989320E+01  1.432959578240E+01  1.450987108741E+01  1.469241397661E+01
  1.487725297270E+01  1.506441695714E+01  1.525393517468E+01  1.544583723795E+01
  1.564015313201E+01  1.583691321913E+01  1.603614824348E+01  1.623788933592E+01
  1.644216801892E+01  1.664901621143E+01  1.685846623391E+01  1.707055081335E+01
  1.728530308839E+01  1.750275661452E+01  1.772294536928E+01  1.794590375763E+01
  1.817166661727E+01  1.840026922409E+01  1.863174729772E+01  1.886613700709E+01
  1.910347497606E+01  1.934379828916E+01  1.958714449742E+01  1.983355162416E+01
</grid-data>
</grid>
<valence-charge total-charge="1" is-unscreening-charge="yes"
 rescaled-to-z-pseudo="no">
<radfunc>
<data>
  3.698263713320E+00  3.655012143223E+00  3.616746764955E+00  3.579617560861E+00
  3.543202745869E+00  3.507131224241E+00  3.469472380915E+00  3.431917324836E+00
  3.396395327201E+00  3.360770256823E+00  3.325921041213E+00  3.287822674242E+00
  3.251620971814E+00  3.218321683758E+00  3.182807449560E+00  3.144962554204E+00
  3.111560661472E+00  3.076391816495E+00  3.039389067752E+00  3.008422122119E+00
  2.976206262565E+00  2.942709382851E+00  2.907900522373E+00  2.871750133578E+00
  2.834230372860E+00  2.805176281533E+00  2.775327303185E+00  2.744674228553E+00
  2.713208769856E+00  2.680923655217E+00  2.647812727316E+00  2.613871046150E+00
  2.579094995699E+00  2.543482394243E+00  2.507032608040E+00  2.469746667958E+00
  2.444426157526E+00  2.418736534179E+00  2.392679489553E+00  2.366257123846E+00
  2.339471962035E+00  2.312326970099E+00  2.284825571153E+00  2.256971661479E+00
  2.228769626355E+00  2.200224355639E+00  2.171341259038E+00  2.142126280977E+00
  2.112585914993E+00  2.082727217584E+00  2.052557821404E+00  2.022085947739E+00
  1.991320418140E+00  1.960270665143E+00  1.928946741952E+00  1.897359330989E+00
  1.865519751207E+00  1.833439964038E+00  1.801132577884E+00  1.768610851025E+00
  1.735888692821E+00  1.702980663111E+00  1.669901969682E+00  1.636668463687E+00
  1.619998783774E+00  1.603296632920E+00  1.586564170097E+00  1.569803592816E+00
  1.553017136713E+00  1.536207075094E+00  1.519375718449E+00  1.502525413916E+00
  1.485658544709E+00  1.468777529502E+00  1.451884821767E+00  1.434982909078E+00
  1.418074312364E+00  1.401161585115E+00  1.384247312554E+00  1.367334110756E+00
  1.350424625721E+00  1.333521532410E+00  1.316627533722E+00  1.299745359439E+00
  1.282877765116E+00  1.266027530926E+00  1.249197460463E+00  1.232390379496E+00
  1.215609134679E+00  1.198856592211E+00  1.182135636459E+00  1.165449168529E+00
  1.148800104797E+00  1.132191375392E+00  1.115625922644E+00  1.099106699480E+00
  1.082636667788E+00  1.066218796731E+00  1.049856061028E+00  1.033551439197E+00
  1.017307911756E+00  1.001128459393E+00  9.850160610967E-01  9.689736922593E-01
  9.530043227431E-01  9.371109149200E-01  9.212964216820E-01  9.055637844253E-01
  8.899159310104E-01  8.743557736996E-01  8.588862070740E-01  8.435101059334E-01
  8.282303231791E-01  8.130496876846E-01  7.979710021542E-01  7.829970409745E-01
  7.681305480588E-01  7.533742346889E-01  7.387307773571E-01  7.242028156094E-01
  7.097929498951E-01  6.955037394237E-01  6.813377000339E-01  6.672973020760E-01
  6.533849683120E-01  6.396030718358E-01  6.259539340173E-01  6.124398224727E-01
  5.990629490650E-01  5.858254679368E-01  5.727294735803E-01  5.597769989458E-01
  5.469700135930E-01  5.343104218881E-01  5.218000612497E-01  5.094407004461E-01
  4.972340379483E-01  4.851817003406E-01  4.732852407918E-01  4.615461375910E-01
  4.499657927494E-01  4.385455306719E-01  4.272865969002E-01  4.161901569315E-01
  4.052572951133E-01  3.944890136183E-01  3.838862315011E-01  3.734497838384E-01
  3.631804209553E-01  3.530788077397E-01  3.431455230454E-01  3.333810591877E-01
  3.237858215300E-01  3.143601281659E-01  3.051042096950E-01  2.960182090958E-01
  2.871021816948E-01  2.783560952338E-01  2.697798300346E-01  2.613731792628E-01
  2.531358492896E-01  2.450674601524E-01  2.371675461140E-01  2.294355563197E-01
  2.218708555517E-01  2.144727250811E-01  2.072403636153E-01  2.001728883410E-01
  1.932693360607E-01  1.865286644225E-01  1.799497532405E-01  1.735314059055E-01
  1.672723508832E-01  1.611712432988E-01  1.552266666059E-01  1.494371343374E-01
  1.438010919364E-01  1.383169186644E-01  1.329829295855E-01  1.277973776227E-01
  1.227584556845E-01  1.178642988589E-01  1.131129866723E-01  1.085025454098E-01
  1.040309504946E-01  9.969612892247E-02  9.549596174937E-02  9.142828662786E-02
  8.749090038930E-02  8.368156166833E-02  7.999799356581E-02  7.643788634662E-02
  7.299890016826E-02  6.967866783610E-02  6.647479758427E-02  6.338487586230E-02
  6.040647015404E-02  5.753713179265E-02  5.477439878270E-02  5.211579862100E-02
  4.955885111098E-02  4.710107116525E-02  4.473997159061E-02  4.247306584997E-02
  4.029787079533E-02  3.821190936593E-02  3.621271324547E-02  3.429782547268E-02
  3.246480299889E-02  3.071121918692E-02  2.903466624521E-02  2.743275759142E-02
  2.590313013998E-02  2.444344650801E-02  2.305139713452E-02  2.172470230790E-02
  2.046111409717E-02  1.925841818280E-02  1.811443558314E-02  1.702702427329E-02
  1.599408069326E-02  1.501354114312E-02  1.408338306326E-02  1.320162619816E-02
  1.236633364299E-02  1.157561277264E-02  1.082761605338E-02  1.012054173780E-02
  9.452634444490E-03  8.822185623994E-03  8.227533913413E-03  7.667065382291E-03
  7.139213672924E-03  6.642460038589E-03  6.175333283588E-03  5.736409609264E-03
  5.324312370484E-03  4.937711747268E-03  4.575324336476E-03  4.235912668581E-03
  3.918284654666E-03  3.621292968872E-03  3.343834371482E-03  3.084848977871E-03
  2.843319478426E-03  2.618270314491E-03  2.408766815230E-03  2.213914300154E-03
  2.032857151864E-03  1.864777863365E-03  1.708896064068E-03  1.564467528375E-03
  1.430783170479E-03  1.307168028778E-03  1.192980243046E-03  1.087610027260E-03
  9.904786407403E-04  9.010373600495E-04  8.187664538652E-04  7.431741628540E-04
  6.737956863892E-04  6.101921777897E-04  5.519497496111E-04  4.986784903865E-04
  4.500114941040E-04  4.056039036039E-04  3.651319689949E-04  3.282921221118E-04
  2.948000679726E-04  2.643898941345E-04  2.368131987966E-04  2.118382384469E-04
  1.892490958060E-04  1.688448687728E-04  1.504388810291E-04  1.338579149124E-04
  1.189414671114E-04  1.055410276840E-04  9.351938283785E-05  8.274994184848E-05
  7.311608842497E-05  6.451055676021E-05  5.683483243101E-05  4.999857823727E-05
  4.391908499247E-05  3.852074720083E-05  3.373456347897E-05  2.949766150432E-05
  2.575284719835E-05  2.244817778190E-05  1.953655827173E-05  1.697536092447E-05
  1.472606707483E-05  1.275393076170E-05  1.102766348734E-05  9.519139412951E-06
  8.203120257320E-06  7.056999135205E-06  6.060562548022E-06  5.195769721149E-06
  4.446548469927E-06  3.798606769670E-06  3.239259203611E-06  2.757267466285E-06
  2.342694108037E-06  1.986768718783E-06  1.681765765393E-06  1.420893316679E-06
  1.198191912575E-06  1.008442859205E-06  8.470852587673E-07  7.101411120975E-07
  5.941478620269E-07  4.960977768643E-07  4.133836051346E-07  3.437499648197E-07
  2.852499624555E-07  2.362065692967E-07  1.951783131275E-07  1.609288749796E-07
  1.324002098394E-07  1.086888392383E-07  8.902499130816E-08  7.275429034743E-08
  5.932172311655E-08  4.825763290567E-08  3.916551487116E-08  3.171140719832E-08
  2.561469232246E-08  2.064014074303E-08  1.659104692244E-08  1.330332241097E-08
  1.064042572554E-08  8.489021686350E-09  6.755274937778E-09  5.361693309501E-09
  4.244446574557E-09  3.351095097116E-09  2.638670900233E-09  2.072060887533E-09
  1.622648386828E-09  1.267174910408E-09  9.867891064970E-10  7.662543666769E-10
  5.932905099417E-10  4.580284370178E-10  3.525596873863E-10  2.705654811812E-10
  2.070121308016E-10  1.579017012764E-10  1.200685195695E-10  9.101361339890E-11
  6.877042905690E-11  5.179626167155E-11  3.888475372648E-11  2.909560029983E-11
  2.169826533941E-11  1.612704576611E-11  1.194536461674E-11  8.817405517659E-12
  6.485750703703E-12  4.753774494253E-12  3.471813626888E-12  2.526353411755E-12
  1.831604920363E-12  1.322968092478E-12  9.519769428851E-13  6.824052279717E-13
  4.872773462179E-13  3.465827149221E-13  2.455347442617E-13  1.732497814675E-13
  1.217486496044E-13  8.520500073151E-14  5.938174662311E-14  4.121022595727E-14
</data>
</radfunc>
</valence-charge>
<semilocal-potentials set="scalar_relativistic">
<slps n="1" l="s" rc="0.995301765142E-02" flavor="Troullier-Martins">
<radfunc>
<data>
 -8.701539626212E+02 -2.392103332643E+02 -9.891817844147E+01 -6.595101255321E+01
 -4.957020147564E+01 -3.970040291784E+01 -3.280845344956E+01 -2.792220081525E+01
 -2.444247366557E+01 -2.170182663994E+01 -1.953661444892E+01 -1.759636896467E+01
 -1.606342499870E+01 -1.485998491398E+01 -1.374965932980E+01 -1.272482015683E+01
 -1.193106186181E+01 -1.118814836966E+01 -1.049266258084E+01 -9.968285023358E+00
 -9.470713179178E+00 -8.998518501380E+00 -8.550354225940E+00 -8.124950147217E+00
 -7.721107778019E+00 -7.431692942771E+00 -7.153315156690E+00 -6.885539652507E+00
 -6.627949806128E+00 -6.380146305504E+00 -6.141746362836E+00 -5.912382967511E+00
 -5.691704177318E+00 -5.479372445688E+00 -5.275063982820E+00 -5.078468148726E+00
 -4.951541358823E+00 -4.827824356943E+00 -4.707234123139E+00 -4.589689875916E+00
 -4.475113007406E+00 -4.363427020638E+00 -4.254557468818E+00 -4.148431896554E+00
 -4.044979782955E+00 -3.944132486521E+00 -3.845823191778E+00 -3.749986857586E+00
 -3.656560167055E+00 -3.565481479026E+00 -3.476690781047E+00 -3.390129643800E+00
 -3.305741176926E+00 -3.223469986198E+00 -3.143262132000E+00 -3.065065089055E+00
 -2.988827707383E+00 -2.914500174413E+00 -2.842033978248E+00 -2.771381872007E+00
 -2.702497839244E+00 -2.635337060372E+00 -2.569855880092E+00 -2.506011775770E+00
 -2.474690640911E+00 -2.443763326741E+00 -2.413224822972E+00 -2.383070184509E+00
 -2.353294530571E+00 -2.323893043816E+00 -2.294860969480E+00 -2.266193614539E+00
 -2.237886346866E+00 -2.209934594414E+00 -2.182333844404E+00 -2.155079642527E+00
 -2.128167592159E+00 -2.101593353582E+00 -2.075352643220E+00 -2.049441232889E+00
 -2.023854949050E+00 -1.998589672080E+00 -1.973641335547E+00 -1.949005925503E+00
 -1.924679479777E+00 -1.900658087290E+00 -1.876937887368E+00 -1.853515069073E+00
 -1.830385870541E+00 -1.807546578327E+00 -1.784993526763E+00 -1.762723097321E+00
 -1.740731717989E+00 -1.719015862654E+00 -1.697572050493E+00 -1.676396845374E+00
 -1.655486855262E+00 -1.634838731640E+00 -1.614449168928E+00 -1.594314903923E+00
 -1.574432715234E+00 -1.554799422735E+00 -1.535411887016E+00 -1.516267008853E+00
 -1.497361728674E+00 -1.478693026041E+00 -1.460257919134E+00 -1.442053464244E+00
 -1.424076755273E+00 -1.406324923242E+00 -1.388795135801E+00 -1.371484596754E+00
 -1.354390545581E+00 -1.337510256974E+00 -1.320841040378E+00 -1.304380239533E+00
 -1.288125232029E+00 -1.272073428862E+00 -1.256222274001E+00 -1.240569243957E+00
 -1.225111847358E+00 -1.209847624532E+00 -1.194774147096E+00 -1.179889017543E+00
 -1.165189868849E+00 -1.150674364071E+00 -1.136340195958E+00 -1.122185086566E+00
 -1.108206786879E+00 -1.094403076432E+00 -1.080771762940E+00 -1.067310681937E+00
 -1.054017696413E+00 -1.040890696459E+00 -1.027927598918E+00 -1.015126347036E+00
 -1.002484910124E+00 -9.900012832224E-01 -9.776734867638E-01 -9.654995662503E-01
 -9.534775919277E-01 -9.416056584676E-01 -9.298818846521E-01 -9.183044130637E-01
 -9.068714097784E-01 -8.955810640642E-01 -8.844315880819E-01 -8.734212165913E-01
 -8.625482066609E-01 -8.518108373808E-01 -8.412074095803E-01 -8.307362455488E-01
 -8.203956887604E-01 -8.101841036023E-01 -8.000998751063E-01 -7.901414086848E-01
 -7.803071298692E-01 -7.705954840527E-01 -7.610049362356E-01 -7.515339707747E-01
 -7.421810911354E-01 -7.329448196478E-01 -7.238236972649E-01 -7.148162833254E-01
 -7.059211553181E-01 -6.971369086505E-01 -6.884621564202E-01 -6.798955291887E-01
 -6.714356747590E-01 -6.630812579554E-01 -6.548309604068E-01 -6.466834803323E-01
 -6.386375323299E-01 -6.306918471680E-01 -6.228451715792E-01 -6.150962680573E-01
 -6.074439146567E-01 -5.998869047944E-01 -5.924240470546E-01 -5.850541649958E-01
 -5.777760969609E-01 -5.705886958885E-01 -5.634908291282E-01 -5.564813782573E-01
 -5.495592389000E-01 -5.427233205496E-01 -5.359725463917E-01 -5.293058531312E-01
 -5.227221908206E-01 -5.162205226905E-01 -5.097998249830E-01 -5.034590867862E-01
 -4.971973098721E-01 -4.910135085352E-01 -4.849067094346E-01 -4.788759514370E-01
 -4.729202854621E-01 -4.670387743305E-01 -4.612304926127E-01 -4.554945264806E-01
 -4.498299735607E-01 -4.442359427895E-01 -4.387115542703E-01 -4.332559391319E-01
 -4.278682393898E-01 -4.225476078081E-01 -4.172932077640E-01 -4.121042131139E-01
 -4.069798080606E-01 -4.019191870233E-01 -3.969215545083E-01 -3.919861249816E-01
 -3.871121227436E-01 -3.822987818048E-01 -3.775453457635E-01 -3.728510676846E-01
 -3.682152099808E-01 -3.636370442940E-01 -3.591158513799E-01 -3.546509209923E-01
 -3.502415517703E-01 -3.458870511264E-01 -3.415867351354E-01 -3.373399284261E-01
 -3.331459640732E-01 -3.290041834909E-01 -3.249139363284E-01 -3.208745803655E-01
 -3.168854814113E-01 -3.129460132023E-01 -3.090555573032E-01 -3.052135030084E-01
 -3.014192472446E-01 -2.976721944749E-01 -2.939717566045E-01 -2.903173528865E-01
 -2.867084098299E-01 -2.831443611086E-01 -2.796246474710E-01 -2.761487166514E-01
 -2.727160232824E-01 -2.693260288077E-01 -2.659782013972E-01 -2.626720158623E-01
 -2.594069535725E-01 -2.561825023731E-01 -2.529981565041E-01 -2.498534165196E-01
 -2.467477892091E-01 -2.436807875186E-01 -2.406519304742E-01 -2.376607431050E-01
 -2.347067563686E-01 -2.317895070761E-01 -2.289085378191E-01 -2.260633968972E-01
 -2.232536382463E-01 -2.204788213682E-01 -2.177385112604E-01 -2.150322783479E-01
 -2.123596984147E-01 -2.097203525366E-01 -2.071138270154E-01 -2.045397133131E-01
 -2.019976079871E-01 -1.994871126270E-01 -1.970078337908E-01 -1.945593829435E-01
 -1.921413763949E-01 -1.897534352397E-01 -1.873951852970E-01 -1.850662570515E-01
 -1.827662855950E-01 -1.804949105687E-01 -1.782517761065E-01 -1.760365307786E-01
 -1.738488275361E-01 -1.716883236560E-01 -1.695546806873E-01 -1.674475643976E-01
 -1.653666447203E-01 -1.633115957023E-01 -1.612820954528E-01 -1.592778260925E-01
 -1.572984737034E-01 -1.553437282792E-01 -1.534132836766E-01 -1.515068375668E-01
 -1.496240913880E-01 -1.477647502983E-01 -1.459285231290E-01 -1.441151223391E-01
 -1.423242639695E-01 -1.405556675988E-01 -1.388090562987E-01 -1.370841565903E-01
 -1.353806984015E-01 -1.336984150238E-01 -1.320370430710E-01 -1.303963224372E-01
 -1.287759962558E-01 -1.271758108595E-01 -1.255955157400E-01 -1.240348635088E-01
 -1.224936098577E-01 -1.209715135213E-01 -1.194683362381E-01 -1.179838427134E-01
 -1.165178005826E-01 -1.150699803737E-01 -1.136401554725E-01 -1.122281020855E-01
 -1.108335992060E-01 -1.094564285785E-01 -1.080963746646E-01 -1.067532246093E-01
 -1.054267682072E-01 -1.041167978697E-01 -1.028231085922E-01 -1.015454979219E-01
 -1.002837659261E-01 -9.903771516070E-02 -9.780715063897E-02 -9.659187980120E-02
 -9.539171248427E-02 -9.420646089178E-02 -9.303593956457E-02 -9.187996535158E-02
 -9.073835738104E-02 -8.961093703207E-02 -8.849752790664E-02 -8.739795580182E-02
 -8.631204868243E-02 -8.523963665406E-02 -8.418055193631E-02 -8.313462883651E-02
 -8.210170372365E-02 -8.108161500271E-02 -8.007420308930E-02 -7.907931038456E-02
 -7.809678125046E-02 -7.712646198533E-02 -7.616820079978E-02 -7.522184779282E-02
 -7.428725492836E-02 -7.336427601197E-02 -7.245276666792E-02 -7.155258431656E-02
 -7.066358815190E-02 -6.978563911956E-02 -6.891859989489E-02 -6.806233486150E-02
 -6.721671008991E-02 -6.638159331658E-02 -6.555685392316E-02 -6.474236291597E-02
 -6.393799290579E-02 -6.314361808788E-02 -6.235911422225E-02 -6.158435861413E-02
 -6.081923009480E-02 -6.006360900251E-02 -5.931737716379E-02 -5.858041787486E-02
 -5.785261588335E-02 -5.713385737025E-02 -5.642402993201E-02 -5.572302256300E-02
 -5.503072563800E-02 -5.434703089512E-02 -5.367183141874E-02 -5.300502162283E-02
 -5.234649723432E-02 -5.169615527682E-02 -5.105389405443E-02 -5.041961313584E-02
</data>
</radfunc>
</slps>
<slps n="2" l="p" rc="0.596517462674" flavor="Troullier-Martins">
<radfunc>
<data>
  1.746818879365E+01  6.120006386710E-01 -2.736582246473E+00 -3.355712634425E+00
 -3.664163894106E+00 -3.850713783278E+00 -3.981613198903E+00 -4.074939488933E+00
 -4.141773587519E+00 -4.194674453490E+00 -4.236626597243E+00 -4.274286141520E+00
 -4.303991248942E+00 -4.327168206279E+00 -4.348290946799E+00 -4.367357431993E+00
 -4.381631135870E+00 -4.394356418189E+00 -4.405412117082E+00 -4.412939523498E+00
 -4.419169903336E+00 -4.423954595670E+00 -4.427109579124E+00 -4.428409932058E+00
 -4.427583644878E+00 -4.425374509635E+00 -4.421627371282E+00 -4.416161378221E+00
 -4.408772725913E+00 -4.399232887215E+00 -4.387286959511E+00 -4.372652227357E+00
 -4.355017066851E+00 -4.334040351751E+00 -4.309351559879E+00 -4.280551822469E+00
 -4.258859264598E+00 -4.235019621975E+00 -4.208897587601E+00 -4.180355062688E+00
 -4.149252297569E+00 -4.115449288804E+00 -4.078807463218E+00 -4.039191679906E+00
 -3.996472580984E+00 -3.950529320241E+00 -3.901252695650E+00 -3.848548706532E+00
 -3.792342548401E+00 -3.732583047532E+00 -3.669247522552E+00 -3.602347040693E+00
 -3.531932011181E+00 -3.458098026373E+00 -3.380991821603E+00 -3.300817176410E+00
 -3.217840521553E+00 -3.132395947361E+00 -3.044889229246E+00 -2.955800395364E+00
 -2.865684261494E+00 -2.775168251799E+00 -2.684946717259E+00 -2.595770866017E+00
 -2.551821702714E+00 -2.508433346794E+00 -2.465707789211E+00 -2.423746502035E+00
 -2.382649349040E+00 -2.342513366403E+00 -2.303431411528E+00 -2.265490680641E+00
 -2.228771099312E+00 -2.193343594404E+00 -2.159268261530E+00 -2.126592449017E+00
 -2.095348787874E+00 -2.065553207764E+00 -2.037202991677E+00 -2.010274937446E+00
 -1.984723712783E+00 -1.960480512768E+00 -1.937452155299E+00 -1.915520781541E+00
 -1.894544365927E+00 -1.874358284434E+00 -1.854778242094E+00 -1.835604922015E+00
 -1.816630790250E+00 -1.797649575314E+00 -1.778469039999E+00 -1.758927778799E+00
 -1.738916909355E+00 -1.718429357202E+00 -1.697492277302E+00 -1.676396859029E+00
 -1.655486666960E+00 -1.634838550429E+00 -1.614448994636E+00 -1.594314736377E+00
 -1.574432554263E+00 -1.554799268167E+00 -1.535411738683E+00 -1.516266866586E+00
 -1.497361592306E+00 -1.478692895405E+00 -1.460257794066E+00 -1.442053344581E+00
 -1.424076640854E+00 -1.406324813906E+00 -1.388795031391E+00 -1.371484497112E+00
 -1.354390450554E+00 -1.337510166410E+00 -1.320840954126E+00 -1.304380157445E+00
 -1.288125153958E+00 -1.272073354666E+00 -1.256222203539E+00 -1.240569177090E+00
 -1.225111783950E+00 -1.209847564450E+00 -1.194774090208E+00 -1.179888963722E+00
 -1.165189817969E+00 -1.150674316010E+00 -1.136340150596E+00 -1.122185043787E+00
 -1.108206746570E+00 -1.094403038481E+00 -1.080771727240E+00 -1.067310648383E+00
 -1.054017664904E+00 -1.040890666897E+00 -1.027927571206E+00 -1.015126321082E+00
 -1.002484885840E+00 -9.900012605204E-01 -9.776734655613E-01 -9.654995464668E-01
 -9.534775734860E-01 -9.416056412934E-01 -9.298818686738E-01 -9.183043982128E-01
 -9.068713959892E-01 -8.955810512737E-01 -8.844315762299E-01 -8.734212056203E-01
 -8.625481965160E-01 -8.518108280096E-01 -8.412074009331E-01 -8.307362375783E-01
 -8.203956814216E-01 -8.101840968524E-01 -8.000998689050E-01 -7.901414029939E-01
 -7.803071246526E-01 -7.705954792763E-01 -7.610049318673E-01 -7.515339667841E-01
 -7.421810874943E-01 -7.329448163293E-01 -7.238236942442E-01 -7.148162805790E-01
 -7.059211528241E-01 -6.971369063885E-01 -6.884621543712E-01 -6.798955273349E-01
 -6.714356730838E-01 -6.630812564436E-01 -6.548309590443E-01 -6.466834791059E-01
 -6.386375312275E-01 -6.306918461783E-01 -6.228451706919E-01 -6.150962672629E-01
 -6.074439139464E-01 -5.998869041602E-01 -5.924240464892E-01 -5.850541644925E-01
 -5.777760965135E-01 -5.705886954914E-01 -5.634908287763E-01 -5.564813779459E-01
 -5.495592386250E-01 -5.427233203070E-01 -5.359725461781E-01 -5.293058529436E-01
 -5.227221906560E-01 -5.162205225464E-01 -5.097998248571E-01 -5.034590866764E-01
 -4.971973097765E-01 -4.910135084522E-01 -4.849067093627E-01 -4.788759513748E-01
 -4.729202854085E-01 -4.670387742844E-01 -4.612304925731E-01 -4.554945264467E-01
 -4.498299735318E-01 -4.442359427649E-01 -4.387115542494E-01 -4.332559391142E-01
 -4.278682393749E-01 -4.225476077955E-01 -4.172932077535E-01 -4.121042131051E-01
 -4.069798080533E-01 -4.019191870172E-01 -3.969215545032E-01 -3.919861249774E-01
 -3.871121227401E-01 -3.822987818020E-01 -3.775453457612E-01 -3.728510676827E-01
 -3.682152099792E-01 -3.636370442928E-01 -3.591158513789E-01 -3.546509209915E-01
 -3.502415517697E-01 -3.458870511258E-01 -3.415867351350E-01 -3.373399284258E-01
 -3.331459640729E-01 -3.290041834907E-01 -3.249139363282E-01 -3.208745803654E-01
 -3.168854814112E-01 -3.129460132022E-01 -3.090555573032E-01 -3.052135030083E-01
 -3.014192472445E-01 -2.976721944749E-01 -2.939717566045E-01 -2.903173528865E-01
 -2.867084098299E-01 -2.831443611086E-01 -2.796246474710E-01 -2.761487166514E-01
 -2.727160232823E-01 -2.693260288076E-01 -2.659782013972E-01 -2.626720158623E-01
 -2.594069535725E-01 -2.561825023731E-01 -2.529981565041E-01 -2.498534165196E-01