Siesta Version  : v4.1.5-1-g384057250
Architecture    : gcc
Compiler version: GNU Fortran (Ubuntu 11.3.0-1ubuntu1~22.04) 11.3.0
Compiler flags  : mpifort -O2 -fPIC -ftree-vectorize -fallow-argument-mismatch
PP flags        : -DFC_HAVE_ABORT -DMPI -DSIESTA__FLOOK -DSIESTA__METIS -DSIESTA__MUMPS -DCDF -DNCDF -DNCDF_4 -DNCDF_PARALLEL -DSIESTA__MRRR -DSIESTA__ELPA
Libraries       : libncdf.a libfdict.a  -lflookall -ldl -lnetcdff -lnetcdf -lhdf5_hl -lhdf5 -lhdf5_fortran -lz -lscalapack-openmpi -lopenblas -lmetis -lzmumps -lcmumps -ldmumps -lmumps_common -lpord -lsmumps -lesmumps -lscotch -lscotcherr -fopenmp -lelpa
PARALLEL version
NetCDF support
NetCDF-4 support
NetCDF-4 MPI-IO support
METIS ordering support
Lua support

* Running on 4 nodes in parallel
>> Start of run:  22-MAY-2023  16:46:19

                           ***********************       
                           *  WELCOME TO SIESTA  *       
                           ***********************       

reinit: Reading from standard input
reinit: Dumped input in INPUT_TMP.31972
************************** Dump of input data file ****************************
SystemLabel      GC
NumberOfAtoms    29
NumberOfSpecies  4
%block ChemicalSpeciesLabel
    1    8  O
    2    7  N
    3   14  Si
    4    1  H
%endblock ChemicalSpeciesLabel
# Single point calculation
MD.TypeOfRun                CG
MD.Steps                    0
SCF.MustConverge            F # In case it does not. There can be 2 very close atoms
AtomicCoordinatesFormat NotScaledCartesianAng
%block AtomicCoordinatesAndAtomicSpecies
0.854927710    3.902811360    0.000000000       1
-3.151486600   0.823854130    0.000000000       2
1.928518680    1.174000900    0.000000000       2
0.979899500    -1.830275890   0.000000000       2
-2.159258930   -2.028004800   0.000000000       2
3.785319770    -1.112700660   0.000000000       2
-1.345933810   0.976250250    0.000000000       3
-0.599439880   -1.096077170   0.000000000       3
0.453182890    2.350510230    0.000000000       3
2.133302030    -0.576510800   0.000000000       3
-3.516065660   -0.842056510   0.000000000       3
2.824527830    1.754723110    0.000000000       4
-4.877551690   -1.469214660   0.000000000       4
3.994952020    -2.143204000   0.000000000       4
4.620903610    -0.483666060   0.000000000       4
-2.279085180   -3.081514090   0.000000000       4
4.632630209    4.881497899    -0.000000000      3
6.501589699    6.141141529    -0.000000000      3
6.042657319    2.139759679    -0.000000000      3
8.110250039    4.646350899    -0.000000000      3
4.692160159    3.196545439    -0.000000000      2
3.002631009    5.511558129    -0.000000000      2
7.686546189    2.930850089    -0.000000000      2
6.781953399    7.611364049    -0.000000000      4
9.605661419    4.865203439    -0.000000000      4
2.758172019    6.530024079    -0.000000000      4
2.175889829    4.854709999    -0.000000000      4
6.101933079    0.557317649    -0.000000000      1
8.458201779    2.203882729    -0.000000000      4
%endblock AtomicCoordinatesAndAtomicSpecies
%include ../../../Defaults.fdf
************************** End of input data file *****************************

reinit: -----------------------------------------------------------------------
reinit: System Name: 
reinit: -----------------------------------------------------------------------
reinit: System Label: GC
reinit: -----------------------------------------------------------------------

initatom: Reading input for the pseudopotentials and atomic orbitals ----------
Species number:   1 Atomic number:    8 Label: O
Species number:   2 Atomic number:    7 Label: N
Species number:   3 Atomic number:   14 Label: Si
Species number:   4 Atomic number:    1 Label: H

Ground state valence configuration:   2s02  2p04
Reading pseudopotential information in formatted form from O.psf

Pseudopotential generated from a relativistic atomic calculation

Valence configuration for pseudopotential generation:
2s( 2.00) rc: 0.45
2p( 4.00) rc: 0.92
3d( 0.00) rc: 2.24
4f( 0.00) rc: 0.25
Ground state valence configuration:   2s02  2p03
Reading pseudopotential information in formatted form from N.psf

Pseudopotential generated from a relativistic atomic calculation

Valence configuration for pseudopotential generation:
2s( 2.00) rc: 0.94
2p( 3.00) rc: 0.59
3d( 0.00) rc: 3.46
4f( 0.00) rc: 2.47
Ground state valence configuration:   3s02  3p02
Reading pseudopotential information in formatted form from Si.psf

Pseudopotential generated from a relativistic atomic calculation

Valence configuration for pseudopotential generation:
3s( 2.00) rc: 1.67
3p( 2.00) rc: 2.04
3d( 0.00) rc: 2.89
4f( 0.00) rc: 2.49
Ground state valence configuration:   1s01
Reading pseudopotential information in formatted form from H.psf

Pseudopotential generated from a relativistic atomic calculation

Valence configuration for pseudopotential generation:
1s( 1.00) rc: 0.01
2p( 0.00) rc: 0.60
3d( 0.00) rc: 1.99
4f( 0.00) rc: 2.49
For O, standard SIESTA heuristics set lmxkb to 3
 (one more than the basis l, including polarization orbitals).
Use PS.lmax or PS.KBprojectors blocks to override.
For N, standard SIESTA heuristics set lmxkb to 3
 (one more than the basis l, including polarization orbitals).
Use PS.lmax or PS.KBprojectors blocks to override.
For Si, standard SIESTA heuristics set lmxkb to 3
 (one more than the basis l, including polarization orbitals).
Use PS.lmax or PS.KBprojectors blocks to override.
For H, standard SIESTA heuristics set lmxkb to 2
 (one more than the basis l, including polarization orbitals).
Use PS.lmax or PS.KBprojectors blocks to override.

<basis_specs>
===============================================================================
O                    Z=   8    Mass=  16.000        Charge= 0.17977+309
Lmxo=1 Lmxkb= 3    BasisType=split      Semic=F
L=0  Nsemic=0  Cnfigmx=2
          i=1  nzeta=2  polorb=0  (2s)
            splnorm:   0.28000    
               vcte:    0.0000    
               rinn:    0.0000    
               qcoe:    0.0000    
               qyuk:    0.0000    
               qwid:   0.10000E-01
                rcs:    0.0000      0.0000    
            lambdas:    1.0000      1.0000    
L=1  Nsemic=0  Cnfigmx=2
          i=1  nzeta=2  polorb=1  (2p)
            splnorm:   0.28000    
               vcte:    0.0000    
               rinn:    0.0000    
               qcoe:    0.0000    
               qyuk:    0.0000    
               qwid:   0.10000E-01
                rcs:    0.0000      0.0000    
            lambdas:    1.0000      1.0000    
-------------------------------------------------------------------------------
L=0  Nkbl=1  erefs: 0.17977+309
L=1  Nkbl=1  erefs: 0.17977+309
L=2  Nkbl=1  erefs: 0.17977+309
L=3  Nkbl=1  erefs: 0.17977+309
===============================================================================
</basis_specs>

atom: Called for O                     (Z =   8)

read_vps: Pseudopotential generation method:
read_vps: ATM4.2.7  Troullier-Martins                       
Valence charge for ps generation:    6.00000

xc_check: Exchange-correlation functional:
xc_check: GGA Perdew, Burke & Ernzerhof 1996
V l=0 = -2*Zval/r beyond r=  1.1000
V l=1 = -2*Zval/r beyond r=  1.1000
V l=2 = -2*Zval/r beyond r=  2.2154
V l=3 = -2*Zval/r beyond r=  1.1000
All V_l potentials equal beyond r=  2.2154
This should be close to max(r_c) in ps generation
All pots = -2*Zval/r beyond r=  2.2154

VLOCAL1: 99.0% of the norm of Vloc inside      8.845 Ry
VLOCAL1: 99.9% of the norm of Vloc inside     20.157 Ry
atom: Maximum radius for 4*pi*r*r*local-pseudopot. charge    2.67231
atom: Maximum radius for r*vlocal+2*Zval:    2.32897
GHOST: No ghost state for L =  0
GHOST: No ghost state for L =  1
GHOST: No ghost state for L =  2
GHOST: No ghost state for L =  3

KBgen: Kleinman-Bylander projectors: 
   l= 0   rc=  2.243238   el= -1.759686   Ekb=**********   kbcos= -0.171774
   l= 1   rc=  2.328968   el= -0.663873   Ekb=-14.506792   kbcos= -0.519897
   l= 2   rc=  2.573941   el=  0.002031   Ekb= -1.137373   kbcos= -0.019581
   l= 3   rc=  2.606321   el=  0.003153   Ekb= -1.013546   kbcos= -0.003122

KBgen: Total number of Kleinman-Bylander projectors:   16
atom: -------------------------------------------------------------------------

atom: SANKEY-TYPE ORBITALS:
atom: Selected multiple-zeta basis: split     

SPLIT: Orbitals with angular momentum L= 0

SPLIT: Basis orbitals for state 2s

SPLIT: PAO cut-off radius determined from an
SPLIT: energy shift=  0.002000 Ry

   izeta = 1
                 lambda =    1.000000
                     rc =    4.243912
                 energy =   -1.758270
                kinetic =    3.286084
    potential(screened) =   -5.044353
       potential(ionic) =  -12.921184

   izeta = 2
                 rmatch =    2.187845
              splitnorm =    0.280000
                 energy =   -0.885018
                kinetic =    8.134434
    potential(screened) =   -9.019452
       potential(ionic) =  -17.710645

SPLIT: Orbitals with angular momentum L= 1

SPLIT: Basis orbitals for state 2p

SPLIT: PAO cut-off radius determined from an
SPLIT: energy shift=  0.002000 Ry

   izeta = 1
                 lambda =    1.000000
                     rc =    5.314825
                 energy =   -0.661986
                kinetic =    4.917472
    potential(screened) =   -5.579458
       potential(ionic) =  -13.236259

   izeta = 2
                 rmatch =    2.160663
              splitnorm =    0.280000
                 energy =   -0.068760
                kinetic =    9.183374
    potential(screened) =   -9.252135
       potential(ionic) =  -18.274251

POLgen: Perturbative polarization orbital with L=  2

POLgen: Polarization orbital for state 2p

   izeta = 1
                     rc =    5.314825
                 energy =    1.970580
                kinetic =    3.886128
    potential(screened) =   -1.915547
       potential(ionic) =   -7.749584
atom: Total number of Sankey-type orbitals: 13

atm_pop: Valence configuration (for local Pseudopot. screening):
 2s( 2.00)                                                            
 2p( 4.00)                                                            
Vna: chval, zval:    6.00000   6.00000

Vna:  Cut-off radius for the neutral-atom potential:   5.314825

atom: _________________________________________________________________________

<basis_specs>
===============================================================================
N                    Z=   7    Mass=  14.010        Charge= 0.17977+309
Lmxo=1 Lmxkb= 3    BasisType=split      Semic=F
L=0  Nsemic=0  Cnfigmx=2
          i=1  nzeta=2  polorb=0  (2s)
            splnorm:   0.28000    
               vcte:    0.0000    
               rinn:    0.0000    
               qcoe:    0.0000    
               qyuk:    0.0000    
               qwid:   0.10000E-01
                rcs:    0.0000      0.0000    
            lambdas:    1.0000      1.0000    
L=1  Nsemic=0  Cnfigmx=2
          i=1  nzeta=2  polorb=1  (2p)
            splnorm:   0.28000    
               vcte:    0.0000    
               rinn:    0.0000    
               qcoe:    0.0000    
               qyuk:    0.0000    
               qwid:   0.10000E-01
                rcs:    0.0000      0.0000    
            lambdas:    1.0000      1.0000    
-------------------------------------------------------------------------------
L=0  Nkbl=1  erefs: 0.17977+309
L=1  Nkbl=1  erefs: 0.17977+309
L=2  Nkbl=1  erefs: 0.17977+309
L=3  Nkbl=1  erefs: 0.17977+309
===============================================================================
</basis_specs>

atom: Called for N                     (Z =   7)

read_vps: Pseudopotential generation method:
read_vps: ATM4.2.7  Troullier-Martins                       
Valence charge for ps generation:    5.00000

xc_check: Exchange-correlation functional:
xc_check: GGA Perdew, Burke & Ernzerhof 1996
V l=0 = -2*Zval/r beyond r=  1.2889
V l=1 = -2*Zval/r beyond r=  1.2889
V l=2 = -2*Zval/r beyond r=  3.4178
V l=3 = -2*Zval/r beyond r=  2.4084
All V_l potentials equal beyond r=  3.3753
This should be close to max(r_c) in ps generation
All pots = -2*Zval/r beyond r=  3.4178

VLOCAL1: 99.0% of the norm of Vloc inside      3.810 Ry
VLOCAL1: 99.9% of the norm of Vloc inside      8.683 Ry
atom: Maximum radius for 4*pi*r*r*local-pseudopot. charge    4.02088
atom: Maximum radius for r*vlocal+2*Zval:    3.54838
GHOST: No ghost state for L =  0
GHOST: No ghost state for L =  1
GHOST: No ghost state for L =  2
GHOST: No ghost state for L =  3

KBgen: Kleinman-Bylander projectors: 
   l= 0   rc=  3.417763   el= -1.365098   Ekb= -4.433130   kbcos= -0.707855
   l= 1   rc=  3.375302   el= -0.521201   Ekb=-13.264039   kbcos= -0.535594
   l= 2   rc=  3.872880   el=  0.001991   Ekb= -0.641094   kbcos= -0.062456
   l= 3   rc=  3.970931   el=  0.003093   Ekb= -0.474517   kbcos= -0.018236

KBgen: Total number of Kleinman-Bylander projectors:   16
atom: -------------------------------------------------------------------------

atom: SANKEY-TYPE ORBITALS:
atom: Selected multiple-zeta basis: split     

SPLIT: Orbitals with angular momentum L= 0

SPLIT: Basis orbitals for state 2s

SPLIT: PAO cut-off radius determined from an
SPLIT: energy shift=  0.002000 Ry

   izeta = 1
                 lambda =    1.000000
                     rc =    4.730425
                 energy =   -1.363399
                kinetic =    1.245246
    potential(screened) =   -2.608645
       potential(ionic) =   -8.121105

   izeta = 2
                 rmatch =    2.531849
              splitnorm =    0.280000
                 energy =   -0.959908
                kinetic =    2.409435
    potential(screened) =   -3.369343
       potential(ionic) =   -9.427975

SPLIT: Orbitals with angular momentum L= 1

SPLIT: Basis orbitals for state 2p

SPLIT: PAO cut-off radius determined from an
SPLIT: energy shift=  0.002000 Ry

   izeta = 1
                 lambda =    1.000000
                     rc =    5.924108
                 energy =   -0.519262
                kinetic =    3.672940
    potential(screened) =   -4.192202
       potential(ionic) =   -9.518354

   izeta = 2
                 rmatch =    2.531849
              splitnorm =    0.280000
                 energy =   -0.104258
                kinetic =    6.807538
    potential(screened) =   -6.911796
       potential(ionic) =  -13.149920

POLgen: Perturbative polarization orbital with L=  2

POLgen: Polarization orbital for state 2p

   izeta = 1
                     rc =    5.924108
                 energy =    1.427508
                kinetic =    2.872379
    potential(screened) =   -1.444871
       potential(ionic) =   -5.563644
atom: Total number of Sankey-type orbitals: 13

atm_pop: Valence configuration (for local Pseudopot. screening):
 2s( 2.00)                                                            
 2p( 3.00)                                                            
Vna: chval, zval:    5.00000   5.00000

Vna:  Cut-off radius for the neutral-atom potential:   5.924108

atom: _________________________________________________________________________

<basis_specs>
===============================================================================
Si                   Z=  14    Mass=  28.090        Charge= 0.17977+309
Lmxo=1 Lmxkb= 3    BasisType=split      Semic=F
L=0  Nsemic=0  Cnfigmx=3
          i=1  nzeta=2  polorb=0  (3s)
            splnorm:   0.28000    
               vcte:    0.0000    
               rinn:    0.0000    
               qcoe:    0.0000    
               qyuk:    0.0000    
               qwid:   0.10000E-01
                rcs:    0.0000      0.0000    
            lambdas:    1.0000      1.0000    
L=1  Nsemic=0  Cnfigmx=3
          i=1  nzeta=2  polorb=1  (3p)
            splnorm:   0.28000    
               vcte:    0.0000    
               rinn:    0.0000    
               qcoe:    0.0000    
               qyuk:    0.0000    
               qwid:   0.10000E-01
                rcs:    0.0000      0.0000    
            lambdas:    1.0000      1.0000    
-------------------------------------------------------------------------------
L=0  Nkbl=1  erefs: 0.17977+309
L=1  Nkbl=1  erefs: 0.17977+309
L=2  Nkbl=1  erefs: 0.17977+309
L=3  Nkbl=1  erefs: 0.17977+309
===============================================================================
</basis_specs>

atom: Called for Si                    (Z =  14)

read_vps: Pseudopotential generation method:
read_vps: ATM4.2.7  Troullier-Martins                       
Valence charge for ps generation:    4.00000

xc_check: Exchange-correlation functional:
xc_check: GGA Perdew, Burke & Ernzerhof 1996
V l=0 = -2*Zval/r beyond r=  2.7826
V l=1 = -2*Zval/r beyond r=  2.7826
V l=2 = -2*Zval/r beyond r=  2.9253
V l=3 = -2*Zval/r beyond r=  2.7826
All V_l potentials equal beyond r=  2.8530
This should be close to max(r_c) in ps generation
All pots = -2*Zval/r beyond r=  2.9253

VLOCAL1: 99.0% of the norm of Vloc inside      5.333 Ry
VLOCAL1: 99.9% of the norm of Vloc inside     12.154 Ry
atom: Maximum radius for 4*pi*r*r*local-pseudopot. charge    3.39869
atom: Maximum radius for r*vlocal+2*Zval:    2.96205
GHOST: No ghost state for L =  0
GHOST: No ghost state for L =  1
GHOST: No ghost state for L =  2
GHOST: No ghost state for L =  3

KBgen: Kleinman-Bylander projectors: 
   l= 0   rc=  3.075247   el= -0.794092   Ekb=  5.879390   kbcos=  0.167461
   l= 1   rc=  3.153101   el= -0.300068   Ekb=  2.642817   kbcos=  0.058301
   l= 2   rc=  3.273594   el=  0.001958   Ekb= -1.185135   kbcos= -0.104411
   l= 3   rc=  3.232927   el=  0.003046   Ekb= -0.497174   kbcos= -0.015889

KBgen: Total number of Kleinman-Bylander projectors:   16
atom: -------------------------------------------------------------------------

atom: SANKEY-TYPE ORBITALS:
atom: Selected multiple-zeta basis: split     

SPLIT: Orbitals with angular momentum L= 0

SPLIT: Basis orbitals for state 3s

SPLIT: PAO cut-off radius determined from an
SPLIT: energy shift=  0.002000 Ry

   izeta = 1
                 lambda =    1.000000
                     rc =    6.429618
                 energy =   -0.792283
                kinetic =    0.525293
    potential(screened) =   -1.317576
       potential(ionic) =   -3.744923

   izeta = 2
                 rmatch =    3.998416
              splitnorm =    0.280000
                 energy =   -0.583081
                kinetic =    1.069570
    potential(screened) =   -1.652651
       potential(ionic) =   -4.235185

SPLIT: Orbitals with angular momentum L= 1

SPLIT: Basis orbitals for state 3p

SPLIT: PAO cut-off radius determined from an
SPLIT: energy shift=  0.002000 Ry

   izeta = 1
                 lambda =    1.000000
                     rc =    8.464845
                 energy =   -0.298236
                kinetic =    0.785360
    potential(screened) =   -1.083596
       potential(ionic) =   -3.273779

   izeta = 2
                 rmatch =    4.587816
              splitnorm =    0.280000
                 energy =   -0.131871
                kinetic =    1.403687
    potential(screened) =   -1.535557
       potential(ionic) =   -4.015310

POLgen: Perturbative polarization orbital with L=  2

POLgen: Polarization orbital for state 3p

   izeta = 1
                     rc =    8.464845
                 energy =    0.321949
                kinetic =    1.055677
    potential(screened) =   -0.733728
       potential(ionic) =   -2.672950
atom: Total number of Sankey-type orbitals: 13

atm_pop: Valence configuration (for local Pseudopot. screening):
 3s( 2.00)                                                            
 3p( 2.00)                                                            
Vna: chval, zval:    4.00000   4.00000

Vna:  Cut-off radius for the neutral-atom potential:   8.464845

atom: _________________________________________________________________________

<basis_specs>
===============================================================================
H                    Z=   1    Mass=  1.0100        Charge= 0.17977+309
Lmxo=0 Lmxkb= 2    BasisType=split      Semic=F
L=0  Nsemic=0  Cnfigmx=1
          i=1  nzeta=2  polorb=1  (1s)
            splnorm:   0.62000    
               vcte:    0.0000    
               rinn:    0.0000    
               qcoe:    0.0000    
               qyuk:    0.0000    
               qwid:   0.10000E-01
                rcs:    0.0000      0.0000    
            lambdas:    1.0000      1.0000    
-------------------------------------------------------------------------------
L=0  Nkbl=1  erefs: 0.17977+309
L=1  Nkbl=1  erefs: 0.17977+309
L=2  Nkbl=1  erefs: 0.17977+309
===============================================================================
</basis_specs>

atom: Called for H                     (Z =   1)

read_vps: Pseudopotential generation method:
read_vps: ATM4.2.7  Troullier-Martins                       
Valence charge for ps generation:    1.00000

xc_check: Exchange-correlation functional:
xc_check: GGA Perdew, Burke & Ernzerhof 1996
V l=0 = -2*Zval/r beyond r=  0.0098
V l=1 = -2*Zval/r beyond r=  0.5817
V l=2 = -2*Zval/r beyond r=  1.9372
All V_l potentials equal beyond r=  1.9372
This should be close to max(r_c) in ps generation
All pots = -2*Zval/r beyond r=  1.9372

VLOCAL1: 99.0% of the norm of Vloc inside     11.567 Ry
VLOCAL1: 99.9% of the norm of Vloc inside     26.362 Ry
atom: Maximum radius for 4*pi*r*r*local-pseudopot. charge    2.25106
atom: Maximum radius for r*vlocal+2*Zval:    1.91306
GHOST: No ghost state for L =  0
GHOST: No ghost state for L =  1
GHOST: No ghost state for L =  2

KBgen: Kleinman-Bylander projectors: 
   l= 0   rc=  2.036604   el= -0.477180   Ekb= -6.081590   kbcos= -0.277285
   l= 1   rc=  2.195416   el=  0.001076   Ekb= -0.926943   kbcos= -0.034643
   l= 2   rc=  2.251056   el=  0.002010   Ekb= -0.130941   kbcos= -0.009788

KBgen: Total number of Kleinman-Bylander projectors:    9
atom: -------------------------------------------------------------------------

atom: SANKEY-TYPE ORBITALS:
atom: Selected multiple-zeta basis: split     

SPLIT: Orbitals with angular momentum L= 0

SPLIT: Basis orbitals for state 1s

SPLIT: PAO cut-off radius determined from an
SPLIT: energy shift=  0.002000 Ry

   izeta = 1
                 lambda =    1.000000
                     rc =    6.518340
                 energy =   -0.475305
                kinetic =    0.912139
    potential(screened) =   -1.387444
       potential(ionic) =   -1.907295

   izeta = 2
                 rmatch =    2.141150
              splitnorm =    0.620000
                 energy =    0.566467
                kinetic =    3.772856
    potential(screened) =   -3.206389
       potential(ionic) =   -3.759093

POLgen: Perturbative polarization orbital with L=  1

POLgen: Polarization orbital for state 1s

   izeta = 1
                     rc =    6.518340
                 energy =    0.533861
                kinetic =    1.121086
    potential(screened) =   -0.587225
       potential(ionic) =   -1.053027
atom: Total number of Sankey-type orbitals:  5

atm_pop: Valence configuration (for local Pseudopot. screening):
 1s( 1.00)                                                            
Vna: chval, zval:    1.00000   1.00000

Vna:  Cut-off radius for the neutral-atom potential:   6.518340

atom: _________________________________________________________________________

prinput: Basis input ----------------------------------------------------------

PAO.BasisType split     

%block ChemicalSpeciesLabel
    1    8 O                       # Species index, atomic number, species label
    2    7 N                       # Species index, atomic number, species label
    3   14 Si                      # Species index, atomic number, species label
    4    1 H                       # Species index, atomic number, species label
%endblock ChemicalSpeciesLabel

%block PAO.Basis                 # Define Basis set
O                     2                    # Species label, number of l-shells
 n=2   0   2                         # n, l, Nzeta 
   4.244      2.188   
   1.000      1.000   
 n=2   1   2 P   1                   # n, l, Nzeta, Polarization, NzetaPol
   5.315      2.161   
   1.000      1.000   
N                     2                    # Species label, number of l-shells
 n=2   0   2                         # n, l, Nzeta 
   4.730      2.532   
   1.000      1.000   
 n=2   1   2 P   1                   # n, l, Nzeta, Polarization, NzetaPol
   5.924      2.532   
   1.000      1.000   
Si                    2                    # Species label, number of l-shells
 n=3   0   2                         # n, l, Nzeta 
   6.430      3.998   
   1.000      1.000   
 n=3   1   2 P   1                   # n, l, Nzeta, Polarization, NzetaPol
   8.465      4.588   
   1.000      1.000   
H                     1                    # Species label, number of l-shells
 n=1   0   2 P   1                   # n, l, Nzeta, Polarization, NzetaPol
   6.518      2.141   
   1.000      1.000   
%endblock PAO.Basis

prinput: ----------------------------------------------------------------------

Dumping basis to NetCDF file O.ion.nc
Dumping basis to NetCDF file N.ion.nc
Dumping basis to NetCDF file Si.ion.nc
Dumping basis to NetCDF file H.ion.nc
coor:   Atomic-coordinates input format  =     Cartesian coordinates
coor:                                          (in Angstroms)

siesta: Atomic coordinates (Bohr) and species
siesta:      1.61558   7.37525   0.00000  1        1
siesta:     -5.95545   1.55686   0.00000  2        2
siesta:      3.64437   2.21854   0.00000  2        3
siesta:      1.85174  -3.45872   0.00000  2        4
siesta:     -4.08041  -3.83238   0.00000  2        5
siesta:      7.15322  -2.10270   0.00000  2        6
siesta:     -2.54345   1.84485   0.00000  3        7
siesta:     -1.13278  -2.07129   0.00000  3        8
siesta:      0.85639   4.44182   0.00000  3        9
siesta:      4.03136  -1.08945   0.00000  3       10
siesta:     -6.64440  -1.59126   0.00000  3       11
siesta:      5.33759   3.31595   0.00000  4       12
siesta:     -9.21724  -2.77641   0.00000  4       13
siesta:      7.54937  -4.05007   0.00000  4       14
siesta:      8.73225  -0.91400   0.00000  4       15
siesta:     -4.30685  -5.82322   0.00000  4       16
siesta:      8.75441   9.22470  -0.00000  3       17
siesta:     12.28623  11.60508  -0.00000  3       18
siesta:     11.41897   4.04356  -0.00000  3       19
siesta:     15.32616   8.78033  -0.00000  3       20
siesta:      8.86690   6.04060  -0.00000  2       21
siesta:      5.67415  10.41534  -0.00000  2       22
siesta:     14.52547   5.53851  -0.00000  2       23
siesta:     12.81604  14.38340  -0.00000  4       24
siesta:     18.15208   9.19391  -0.00000  4       25
siesta:      5.21219  12.33996  -0.00000  4       26
siesta:      4.11184   9.17408  -0.00000  4       27
siesta:     11.53099   1.05318  -0.00000  1       28
siesta:     15.98369   4.16474  -0.00000  4       29

siesta: Automatic unit cell vectors (Ang):
siesta:   23.520117    0.000000    0.000000
siesta:    0.000000   19.350749    0.000000
siesta:    0.000000    0.000000    9.854683

siesta: System type = molecule  

initatomlists: Number of atoms, orbitals, and projectors:     29   297   394

siesta: ******************** Simulation parameters ****************************
siesta:
siesta: The following are some of the parameters of the simulation.
siesta: A complete list of the parameters used, including default values,
siesta: can be found in file out.fdf
siesta:
redata: Spin configuration                          = spin-orbit
redata: Number of spin components                   = 8
redata: Time-Reversal Symmetry                      = F
redata: Spin spiral                                 = F
############################################################
This spin-orbit implementation uses a local approximation.
From 4.2 and onwards the full non-local approximation is implemented
You are strongly advised to use >=4.2 versions!
############################################################
redata: Long output                                 =   F
redata: Number of Atomic Species                    =        4
redata: Charge density info will appear in .RHO file
redata: Write Mulliken Pop.                         = Atomic and Orbital charges
redata: Matel table size (NRTAB)                    =     1024
redata: Mesh Cutoff                                 =   340.0000 Ry
redata: Net charge of the system                    =     0.0000 |e|
redata: Min. number of SCF Iter                     =        1
redata: Max. number of SCF Iter                     =      200
redata: SCF mix quantity                            = Hamiltonian
redata: Mix DM or H after convergence               =   F
redata: Recompute H after scf cycle                 =   F
redata: Mix DM in first SCF step                    =   T
redata: Write Pulay info on disk                    =   F
redata: New DM Occupancy tolerance                  = 0.000000000001
redata: No kicks to SCF
redata: DM Mixing Weight for Kicks                  =     0.5000
redata: Require Harris convergence for SCF          =   F
redata: Harris energy tolerance for SCF             =     0.000100 eV
redata: Require DM convergence for SCF              =   T
redata: DM tolerance for SCF                        =     0.000008
redata: Require EDM convergence for SCF             =   F
redata: EDM tolerance for SCF                       =     0.001000 eV
redata: Require H convergence for SCF               =   T
redata: Hamiltonian tolerance for SCF               =     0.000001 eV
redata: Require (free) Energy convergence for SCF   =   F
redata: (free) Energy tolerance for SCF             =     0.000100 eV
redata: Using Saved Data (generic)                  =   F
redata: Use continuation files for DM               =   F
redata: Neglect nonoverlap interactions             =   F
redata: Method of Calculation                       = Diagonalization
redata: Electronic Temperature                      =   299.9978 K
redata: Fix the spin of the system                  =   F
redata: Dynamics option                             = Single-point calculation
mix.SCF: Pulay mixing                            = Pulay
mix.SCF:    Variant                              = stable
mix.SCF:    History steps                        = 6
mix.SCF:    Linear mixing weight                 =     0.250000
mix.SCF:    Mixing weight                        =     0.250000
mix.SCF:    SVD condition                        = 0.1000E-07
mix.SCF:    Restart steps                        = 24
mix.SCF:    Restart save steps                   = 3
mix.SCF: Spin-component mixing                   all
redata: Save all siesta data in one NC              =   F
redata: ***********************************************************************

%block SCF.Mixers
  Pulay
%endblock SCF.Mixers

%block SCF.Mixer.Pulay
  # Mixing method
  method pulay
  variant stable

  # Mixing options
  weight 0.2500
  weight.linear 0.2500
  history 6
  restart 24
  restart.save 3
%endblock SCF.Mixer.Pulay

DM_history_depth set to one: no extrapolation allowed by default for geometry relaxation
Size of DM history Fstack: 1
Total number of electrons:    98.000000
Total ionic charge:    98.000000

* ProcessorY, Blocksize:    2  24


* Orbital distribution balance (max,min):    81    72


Time-reversal symmetry not used.

siesta: k-grid: Number of k-points =     1
siesta: k-grid: Cutoff (effective) =     4.927 Ang
siesta: k-grid: Supercell and displacements
siesta: k-grid:    1   0   0      0.000
siesta: k-grid:    0   1   0      0.000
siesta: k-grid:    0   0   1      0.000

diag: Algorithm                                     = ELPA-1stage
diag: Parallel over k                               =   F
diag: Use parallel 2D distribution                  =   T
diag: Parallel block-size                           = 24
diag: Parallel distribution                         =     2 x     2
diag: Used triangular part                          = Lower
diag: Absolute tolerance                            =  0.100E-15
diag: Orthogonalization factor                      =  0.100E-05
diag: Memory factor                                 =  1.0000


ts: **************************************************************
ts: Save H and S matrices                           =    F
ts: Save DM and EDM matrices                        =    F
ts: Only save the overlap matrix S                  =    F
ts: **************************************************************

************************ Begin: TS CHECKS AND WARNINGS ************************
************************ End: TS CHECKS AND WARNINGS **************************


                     ====================================
                        Single-point calculation
                     ====================================

outcoor: Atomic coordinates (Ang):                          
    0.85492771    3.90281136    0.00000000   1       1  O
   -3.15148660    0.82385413    0.00000000   2       2  N
    1.92851868    1.17400090    0.00000000   2       3  N
    0.97989950   -1.83027589    0.00000000   2       4  N
   -2.15925893   -2.02800480    0.00000000   2       5  N
    3.78531977   -1.11270066    0.00000000   2       6  N
   -1.34593381    0.97625025    0.00000000   3       7  Si
   -0.59943988   -1.09607717    0.00000000   3       8  Si
    0.45318289    2.35051023    0.00000000   3       9  Si
    2.13330203   -0.57651080    0.00000000   3      10  Si
   -3.51606566   -0.84205651    0.00000000   3      11  Si
    2.82452783    1.75472311    0.00000000   4      12  H
   -4.87755169   -1.46921466    0.00000000   4      13  H
    3.99495202   -2.14320400    0.00000000   4      14  H
    4.62090361   -0.48366606    0.00000000   4      15  H
   -2.27908518   -3.08151409    0.00000000   4      16  H
    4.63263021    4.88149790    0.00000000   3      17  Si
    6.50158970    6.14114153    0.00000000   3      18  Si
    6.04265732    2.13975968    0.00000000   3      19  Si
    8.11025004    4.64635090    0.00000000   3      20  Si
    4.69216016    3.19654544    0.00000000   2      21  N
    3.00263101    5.51155813    0.00000000   2      22  N
    7.68654619    2.93085009    0.00000000   2      23  N
    6.78195340    7.61136405    0.00000000   4      24  H
    9.60566142    4.86520344    0.00000000   4      25  H
    2.75817202    6.53002408    0.00000000   4      26  H
    2.17588983    4.85471000    0.00000000   4      27  H
    6.10193308    0.55731765    0.00000000   1      28  O
    8.45820178    2.20388273    0.00000000   4      29  H

outcell: Unit cell vectors (Ang):
       23.520117    0.000000    0.000000
        0.000000   19.350749    0.000000
        0.000000    0.000000    9.854683

outcell: Cell vector modules (Ang)   :   23.520117   19.350749    9.854683
outcell: Cell angles (23,13,12) (deg):     90.0000     90.0000     90.0000
outcell: Cell volume (Ang**3)        :   4485.1805
<dSpData1D:S at geom step 0
  <sparsity:sparsity for geom step 0
    nrows_g=297 nrows=81 sparsity=.2281 nnzs=20118, refcount: 8>
  <dData1D:(new from dSpData1D) n=20118, refcount: 1>
refcount: 1>
new_DM -- step:     1
Initializing Density Matrix...
DM filled with atomic data:
<dSpData2D:DM initialized from atoms
  <sparsity:sparsity for geom step 0
    nrows_g=297 nrows=81 sparsity=.2281 nnzs=20118, refcount: 9>
  <dData2D:DM n=20118 m=8, refcount: 1>
refcount: 1>
     spin moment: S , {S} =   56.00000   0.00000   0.00000  56.00000
No. of atoms with KB's overlaping orbs in proc 0. Max # of overlaps:      29     202

Initializing spin-orbit part of the Hamiltonian
  Adding spin-orbit effects for O 
  Adding spin-orbit effects for N 
  Adding spin-orbit effects for Si
  Adding spin-orbit effects for H 


New grid distribution:   1
           1       1:  135    1:   54    1:   30
           2       1:  135    1:   54   31:   60
           3       1:  135   55:  108    1:   30
           4       1:  135   55:  108   31:   60

InitMesh: MESH =   270 x   216 x   120 =     6998400
InitMesh: (bp) =   135 x   108 x    60 =      874800
InitMesh: Mesh cutoff (required, used) =   340.000   344.361 Ry
ExtMesh (bp) on 0 =   239 x   158 x   142 =     5362204
New grid distribution:   2
           1      33:  135    1:   25    1:   60
           2       1:   32    1:   23    1:   60
           3      33:  135   26:  108    1:   60
           4       1:   32   24:  108    1:   60
New grid distribution:   3
           1      45:  135    1:   33    1:   60
           2       1:   44    1:   37    1:   60
           3      45:  135   34:  108    1:   60
           4       1:   44   38:  108    1:   60
Setting up quadratic distribution...
ExtMesh (bp) on 0 =   207 x   129 x   172 =     4592916
PhiOnMesh: Number of (b)points on node 0 =               154500
PhiOnMesh: nlist on node 0 =              2526619

stepf: Fermi-Dirac step function

siesta: Program's energy decomposition (eV):
siesta: Ebs     =      -606.788488
siesta: Eions   =      3585.165840
siesta: Ena     =       384.581022
siesta: Ekin    =      3370.693960
siesta: Enl     =     -3303.461027
siesta: Eso     =        -0.003413
siesta: Edftu   =         0.000000
siesta: DEna    =       155.443060
siesta: DUscf   =        79.176821
siesta: DUext   =         0.000000
siesta: Exc     =     -1204.754859
siesta: eta*DQ  =         0.000000
siesta: Emadel  =         0.000000
siesta: Emeta   =         0.000000
siesta: Emolmec =         0.000000
siesta: Ekinion =         0.000000
siesta: Eharris =     -4026.505027
siesta: Etot    =     -4103.490276
siesta: FreeEng =     -4103.491756

        iscf     Eharris(eV)        E_KS(eV)     FreeEng(eV)     dDmax    Ef(eV) dHmax(eV)
   scf:    1    -4026.505027    -4103.490276    -4103.491756  0.954779 -4.891326 20.132155
     spin moment: S , {S} =    2.00778   0.00000   0.00000   2.00778
timer: Routine,Calls,Time,% = IterSCF        1      11.500  15.50
   scf:    2    -4151.116380    -4138.652441    -4138.657982  0.469745 -4.200201 11.090834
     spin moment: S , {S} =    1.95683  -0.00000  -0.00000   1.95683
   scf:    3    -4113.735928    -4136.274297    -4136.302740  0.437194 -4.282199 11.086698
     spin moment: S , {S} =    2.00206  -0.00000  -0.00000   2.00206
   scf:    4    -4151.057631    -4146.446869    -4146.446870  0.278422 -3.927640  5.607164
     spin moment: S , {S} =    0.00010   0.00000   0.00000   0.00010
   scf:    5    -4147.650317    -4147.144587    -4147.144587  0.038478 -3.730274  4.229059
     spin moment: S , {S} =    0.00006  -0.00000   0.00000   0.00006
   scf:    6    -4147.914624    -4147.532452    -4147.532452  0.026220 -3.754480  2.095094
     spin moment: S , {S} =    0.00003   0.00000  -0.00000   0.00003
   scf:    7    -4147.890264    -4147.712283    -4147.712283  0.021961 -3.660941  0.853361
     spin moment: S , {S} =    0.00001  -0.00000  -0.00000   0.00001
   scf:    8    -4147.829306    -4147.769489    -4147.769489  0.012604 -3.841219  0.452987
     spin moment: S , {S} =    0.00000  -0.00000  -0.00000   0.00000
   scf:    9    -4147.809539    -4147.788907    -4147.788907  0.007247 -3.786398  0.287694
     spin moment: S , {S} =    0.00000   0.00000  -0.00000   0.00000
   scf:   10    -4147.835207    -4147.808725    -4147.808725  0.015819 -3.806157  0.142439
     spin moment: S , {S} =    0.00000  -0.00000   0.00000  -0.00000
   scf:   11    -4147.812703    -4147.810580    -4147.810580  0.005281 -3.801733  0.053311
     spin moment: S , {S} =    0.00000   0.00000   0.00000   0.00000
   scf:   12    -4147.811505    -4147.811036    -4147.811036  0.002126 -3.795934  0.033486
     spin moment: S , {S} =    0.00000  -0.00000   0.00000   0.00000
   scf:   13    -4147.811710    -4147.811352    -4147.811352  0.002117 -3.793481  0.027510
     spin moment: S , {S} =    0.00000  -0.00000   0.00000   0.00000
   scf:   14    -4147.811981    -4147.811631    -4147.811631  0.002776 -3.796434  0.018240
     spin moment: S , {S} =    0.00000  -0.00000   0.00000   0.00000
   scf:   15    -4147.811982    -4147.811777    -4147.811777  0.002533 -3.795484  0.010993
     spin moment: S , {S} =    0.00000  -0.00000   0.00000   0.00000
   scf:   16    -4147.811892    -4147.811822    -4147.811822  0.001673 -3.795457  0.005370
     spin moment: S , {S} =    0.00000  -0.00000   0.00000   0.00000
   scf:   17    -4147.811840    -4147.811830    -4147.811830  0.000612 -3.795698  0.003000
     spin moment: S , {S} =    0.00000  -0.00000   0.00000   0.00000
   scf:   18    -4147.811837    -4147.811833    -4147.811833  0.000353 -3.795779  0.001314
     spin moment: S , {S} =    0.00000  -0.00000   0.00000  -0.00000
   scf:   19    -4147.811835    -4147.811834    -4147.811834  0.000178 -3.795779  0.000671
     spin moment: S , {S} =    0.00000  -0.00000   0.00000  -0.00000
   scf:   20    -4147.811834    -4147.811834    -4147.811834  0.000069 -3.795742  0.000443
     spin moment: S , {S} =    0.00000  -0.00000   0.00000  -0.00000
   scf:   21    -4147.811834    -4147.811834    -4147.811834  0.000065 -3.795702  0.000184
     spin moment: S , {S} =    0.00000  -0.00000   0.00000  -0.00000
   scf:   22    -4147.811834    -4147.811834    -4147.811834  0.000019 -3.795689  0.000088
     spin moment: S , {S} =    0.00000  -0.00000   0.00000  -0.00000
   scf:   23    -4147.811834    -4147.811834    -4147.811834  0.000003 -3.795685  0.000063
     spin moment: S , {S} =    0.00000  -0.00000   0.00000  -0.00000
   scf:   24    -4147.811834    -4147.811834    -4147.811834  0.000004 -3.795679  0.000053
     spin moment: S , {S} =    0.00000  -0.00000   0.00000  -0.00000
mix: Pulay -- resetting history
   scf:   25    -4147.811834    -4147.811834    -4147.811834  0.000003 -3.795674  0.000039
     spin moment: S , {S} =    0.00000  -0.00000   0.00000  -0.00000
   scf:   26    -4147.811834    -4147.811834    -4147.811834  0.000002 -3.795671  0.000029
     spin moment: S , {S} =    0.00000  -0.00000   0.00000  -0.00000
   scf:   27    -4147.811834    -4147.811834    -4147.811834  0.000002 -3.795670  0.000020
     spin moment: S , {S} =    0.00000  -0.00000   0.00000  -0.00000
   scf:   28    -4147.811834    -4147.811834    -4147.811834  0.000002 -3.795670  0.000010
     spin moment: S , {S} =    0.00000  -0.00000   0.00000  -0.00000
   scf:   29    -4147.811834    -4147.811834    -4147.811834  0.000001 -3.795670  0.000007
     spin moment: S , {S} =    0.00000  -0.00000   0.00000  -0.00000
   scf:   30    -4147.811834    -4147.811834    -4147.811834  0.000001 -3.795670  0.000002
     spin moment: S , {S} =    0.00000  -0.00000   0.00000  -0.00000
   scf:   31    -4147.811834    -4147.811834    -4147.811834  0.000000 -3.795670  0.000001
     spin moment: S , {S} =    0.00000  -0.00000   0.00000  -0.00000
   scf:   32    -4147.811834    -4147.811834    -4147.811834  0.000000 -3.795670  0.000001
     spin moment: S , {S} =    0.00000  -0.00000   0.00000  -0.00000

SCF Convergence by DM+H criterion
max |DM_out - DM_in|         :     0.0000001570
max |H_out - H_in|      (eV) :     0.0000009201
SCF cycle converged after 32 iterations

Using DM_out to compute the final energy and forces
No. of atoms with KB's overlaping orbs in proc 0. Max # of overlaps:      29     202

siesta: E_KS(eV) =            -4147.8118

siesta: E_KS - E_eggbox =     -4147.8118
     spin moment: S , {S} =    0.00000  -0.00000   0.00000  -0.00000

siesta: Atomic forces (eV/Ang):
     1    3.146054    1.525986    0.000000
     2   -0.058003    0.003394    0.000000
     3   -0.575051    0.356912   -0.000000
     4   -0.604708   -0.053932    0.000000
     5   -0.038355    0.059252   -0.000000
     6   -1.075863   -0.331913   -0.000000
     7   -0.049222    0.205477   -0.000000
     8    0.367606   -0.187175    0.000000
     9    0.245327   -0.980547   -0.000000
    10    0.949355   -0.154253   -0.000000
    11   -0.012166    0.042537   -0.000000
    12    0.215519    0.101380    0.000000
    13    0.012806    0.140678   -0.000000
    14    0.005919   -0.088785    0.000000
    15    0.951225    0.701273    0.000000
    16    0.084205    0.185512    0.000000
    17   -0.965510    0.836191   -0.000000
    18    0.188596   -0.157906    0.000000
    19    0.148524    1.020662    0.000000
    20   -0.014011    0.329573    0.000000
    21    0.254409   -0.929858    0.000000
    22    1.703220    0.582241   -0.000000
    23   -0.203560   -0.467460   -0.000000
    24    0.076541    0.114347    0.000000
    25   -0.129772   -0.091798   -0.000000
    26    0.146893    0.251152    0.000000
    27   -1.007887   -0.889101   -0.000000
    28   -1.045091   -3.704167    0.000000
    29    0.070163    0.090856    0.000000
----------------------------------------
   Tot    2.787163   -1.489474    0.000000
----------------------------------------
   Max    3.704167
   Res    0.695391    sqrt( Sum f_i^2 / 3N )
----------------------------------------
   Max    3.704167    constrained

Stress tensor Voigt[x,y,z,yz,xz,xy] (kbar):        0.06       -0.46       -0.10       -0.00       -0.00       -0.49
(Free)E + p*V (eV/cell)    -4147.3423
Target enthalpy (eV/cell)    -4147.8118

mulliken: Atomic and Orbital Populations:

Species: O                   

Atom      Orb        Charge      Spin       Svec
----------------------------------------------------------------
    1  1 2s         1.74133   0.00000     -0.000  -0.000   0.000
    1  2 2s         0.05812   0.00000      0.000   0.000  -0.000
    1  3 2py        1.38571   0.00000     -0.000  -0.000   0.000
    1  4 2pz        1.60413   0.00000      0.000   0.000   0.000
    1  5 2px        1.62885   0.00000      0.000   0.000   0.000
    1  6 2py        0.07258   0.00000      0.000  -0.000   0.000
    1  7 2pz       -0.01469   0.00000     -0.000  -0.000  -0.000
    1  8 2px        0.00165   0.00000     -0.000  -0.000   0.000
    1  9 3Pdxy      0.00917   0.00000      0.000  -0.000   0.000
    1 10 3Pdyz      0.00801   0.00000      0.000   0.000  -0.000
    1 11 3Pdz2      0.00220   0.00000     -0.000   0.000  -0.000
    1 12 3Pdxz      0.00015   0.00000     -0.000   0.000   0.000
    1 13 3Pdx2-y2   0.00615   0.00000      0.000  -0.000   0.000
    1     Total     6.50335   0.00000     -0.000   0.000   0.000

   28  1 2s         1.73913   0.00000     -0.000   0.000   0.000
   28  2 2s         0.06380   0.00000      0.000  -0.000   0.000
   28  3 2py        1.38519   0.00000      0.000  -0.000   0.000
   28  4 2pz        1.58562   0.00000      0.000   0.000   0.000
   28  5 2px        1.64860   0.00000      0.000  -0.000   0.000
   28  6 2py        0.06834   0.00000     -0.000   0.000   0.000
   28  7 2pz       -0.00985   0.00000     -0.000  -0.000   0.000
   28  8 2px        0.00224   0.00000     -0.000   0.000   0.000
   28  9 3Pdxy      0.00832   0.00000      0.000  -0.000  -0.000
   28 10 3Pdyz      0.00935   0.00000      0.000  -0.000  -0.000
   28 11 3Pdz2      0.00151   0.00000     -0.000   0.000  -0.000
   28 12 3Pdxz     -0.00006   0.00000     -0.000  -0.000   0.000
   28 13 3Pdx2-y2   0.00725   0.00000     -0.000  -0.000  -0.000
   28     Total     6.50945   0.00000      0.000   0.000   0.000

----------------------------------------------------------------
Total              13.01280   0.00000      0.000   0.000   0.000


Species: N                   

Atom      Orb        Charge      Spin       Svec
----------------------------------------------------------------
    2  1 2s         1.54739   0.00000      0.000  -0.000  -0.000
    2  2 2s         0.08506   0.00000     -0.000   0.000   0.000
    2  3 2py        1.03117   0.00000     -0.000  -0.000  -0.000
    2  4 2pz        1.22437   0.00000     -0.000   0.000  -0.000
    2  5 2px        1.00831   0.00000     -0.000  -0.000  -0.000
    2  6 2py        0.19264   0.00000     -0.000   0.000   0.000
    2  7 2pz        0.05445   0.00000     -0.000  -0.000   0.000
    2  8 2px        0.19060   0.00000      0.000   0.000   0.000
    2  9 3Pdxy      0.00839   0.00000     -0.000   0.000   0.000
    2 10 3Pdyz      0.01079   0.00000     -0.000  -0.000   0.000
    2 11 3Pdz2      0.00192   0.00000     -0.000  -0.000   0.000
    2 12 3Pdxz      0.00752   0.00000      0.000  -0.000   0.000
    2 13 3Pdx2-y2   0.00892   0.00000      0.000  -0.000  -0.000
    2     Total     5.37152   0.00000     -0.000   0.000  -0.000

    3  1 2s         1.39289   0.00000     -0.000   0.000   0.000
    3  2 2s         0.12049   0.00000      0.000  -0.000   0.000
    3  3 2py        0.93459   0.00000     -0.000  -0.000   0.000
    3  4 2pz        1.53548   0.00000     -0.000  -0.000   0.000
    3  5 2px        1.09152   0.00000      0.000  -0.000   0.000
    3  6 2py        0.25351   0.00000      0.000   0.000   0.000
    3  7 2pz        0.00668   0.00000      0.000   0.000   0.000
    3  8 2px        0.17559   0.00000     -0.000   0.000  -0.000
    3  9 3Pdxy      0.00435   0.00000      0.000  -0.000  -0.000
    3 10 3Pdyz      0.00396   0.00000      0.000  -0.000  -0.000
    3 11 3Pdz2      0.00065   0.00000     -0.000   0.000  -0.000
    3 12 3Pdxz      0.00259   0.00000     -0.000  -0.000  -0.000
    3 13 3Pdx2-y2   0.00273   0.00000      0.000  -0.000   0.000
    3     Total     5.52504   0.00000     -0.000   0.000   0.000

    4  1 2s         1.47044   0.00000     -0.000   0.000   0.000
    4  2 2s         0.11696   0.00000      0.000  -0.000   0.000
    4  3 2py        1.10221   0.00000      0.000  -0.000   0.000
    4  4 2pz        1.28989   0.00000      0.000  -0.000   0.000
    4  5 2px        0.84056   0.00000     -0.000  -0.000   0.000
    4  6 2py        0.15707   0.00000     -0.000   0.000   0.000
    4  7 2pz        0.05326   0.00000     -0.000   0.000   0.000
    4  8 2px        0.28694   0.00000     -0.000  -0.000   0.000
    4  9 3Pdxy      0.00857   0.00000     -0.000   0.000   0.000
    4 10 3Pdyz      0.01077   0.00000      0.000   0.000  -0.000
    4 11 3Pdz2      0.00133   0.00000      0.000  -0.000   0.000
    4 12 3Pdxz      0.00484   0.00000     -0.000   0.000   0.000
    4 13 3Pdx2-y2   0.00852   0.00000      0.000  -0.000  -0.000
    4     Total     5.35135   0.00000     -0.000  -0.000   0.000

    5  1 2s         1.37313   0.00000      0.000  -0.000  -0.000
    5  2 2s         0.12921   0.00000     -0.000   0.000   0.000
    5  3 2py        1.02725   0.00000      0.000   0.000  -0.000
    5  4 2pz        1.50137   0.00000     -0.000   0.000  -0.000
    5  5 2px        1.05882   0.00000      0.000  -0.000  -0.000
    5  6 2py        0.20319   0.00000     -0.000  -0.000   0.000
    5  7 2pz        0.01342   0.00000      0.000  -0.000   0.000
    5  8 2px        0.20296   0.00000     -0.000   0.000   0.000
    5  9 3Pdxy      0.00365   0.00000      0.000  -0.000   0.000
    5 10 3Pdyz      0.00252   0.00000      0.000   0.000   0.000
    5 11 3Pdz2      0.00139   0.00000     -0.000   0.000   0.000
    5 12 3Pdxz      0.00662   0.00000     -0.000   0.000   0.000
    5 13 3Pdx2-y2   0.00574   0.00000      0.000  -0.000  -0.000
    5     Total     5.52928   0.00000     -0.000   0.000  -0.000

    6  1 2s         1.26215   0.00000     -0.000  -0.000  -0.000
    6  2 2s         0.18174   0.00000      0.000   0.000   0.000
    6  3 2py        1.06669   0.00000     -0.000  -0.000  -0.000
    6  4 2pz        1.53393   0.00000      0.000   0.000  -0.000
    6  5 2px        0.97666   0.00000     -0.000  -0.000  -0.000
    6  6 2py        0.19790   0.00000      0.000   0.000   0.000
    6  7 2pz        0.03240   0.00000     -0.000  -0.000   0.000
    6  8 2px        0.25671   0.00000      0.000   0.000   0.000
    6  9 3Pdxy      0.00215   0.00000      0.000   0.000   0.000
    6 10 3Pdyz      0.00003   0.00000      0.000  -0.000  -0.000
    6 11 3Pdz2      0.00139   0.00000      0.000   0.000  -0.000
    6 12 3Pdxz      0.00334   0.00000      0.000  -0.000  -0.000
    6 13 3Pdx2-y2   0.00335   0.00000      0.000  -0.000   0.000
    6     Total     5.51844   0.00000     -0.000  -0.000  -0.000

   21  1 2s         1.40230   0.00000      0.000  -0.000  -0.000
   21  2 2s         0.13385   0.00000     -0.000   0.000   0.000
   21  3 2py        0.88093   0.00000      0.000   0.000   0.000
   21  4 2pz        1.32012   0.00000      0.000   0.000   0.000
   21  5 2px        1.16818   0.00000      0.000   0.000   0.000
   21  6 2py        0.27886   0.00000     -0.000  -0.000   0.000
   21  7 2pz        0.04431   0.00000     -0.000  -0.000   0.000
   21  8 2px        0.15885   0.00000     -0.000  -0.000  -0.000
   21  9 3Pdxy      0.00639   0.00000      0.000  -0.000  -0.000
   21 10 3Pdyz      0.00472   0.00000     -0.000  -0.000  -0.000
   21 11 3Pdz2     -0.00018   0.00000     -0.000  -0.000  -0.000
   21 12 3Pdxz      0.00578   0.00000      0.000  -0.000  -0.000
   21 13 3Pdx2-y2   0.00572   0.00000     -0.000   0.000  -0.000
   21     Total     5.40984   0.00000      0.000   0.000   0.000

   22  1 2s         1.28424   0.00000      0.000   0.000   0.000
   22  2 2s         0.17305   0.00000     -0.000  -0.000  -0.000
   22  3 2py        1.06907   0.00000      0.000   0.000  -0.000
   22  4 2pz        1.49387   0.00000      0.000  -0.000  -0.000
   22  5 2px        1.01050   0.00000      0.000   0.000  -0.000
   22  6 2py        0.20063   0.00000     -0.000  -0.000   0.000
   22  7 2pz        0.03197   0.00000     -0.000   0.000   0.000
   22  8 2px        0.23582   0.00000     -0.000  -0.000   0.000
   22  9 3Pdxy      0.00331   0.00000     -0.000   0.000  -0.000
   22 10 3Pdyz      0.00002   0.00000     -0.000   0.000  -0.000
   22 11 3Pdz2      0.00223   0.00000     -0.000   0.000  -0.000
   22 12 3Pdxz      0.00355   0.00000     -0.000  -0.000  -0.000
   22 13 3Pdx2-y2   0.00361   0.00000      0.000  -0.000   0.000
   22     Total     5.51186   0.00000      0.000  -0.000  -0.000

   23  1 2s         1.37684   0.00000     -0.000  -0.000   0.000
   23  2 2s         0.12770   0.00000      0.000  -0.000   0.000
   23  3 2py        0.99534   0.00000     -0.000   0.000  -0.000
   23  4 2pz        1.53008   0.00000     -0.000  -0.000  -0.000
   23  5 2px        1.06495   0.00000     -0.000   0.000  -0.000
   23  6 2py        0.22408   0.00000      0.000  -0.000   0.000
   23  7 2pz        0.00480   0.00000      0.000  -0.000   0.000
   23  8 2px        0.19536   0.00000      0.000  -0.000   0.000
   23  9 3Pdxy      0.00537   0.00000      0.000   0.000  -0.000
   23 10 3Pdyz      0.00458   0.00000      0.000   0.000   0.000
   23 11 3Pdz2      0.00070   0.00000      0.000   0.000  -0.000
   23 12 3Pdxz      0.00229   0.00000     -0.000   0.000  -0.000
   23 13 3Pdx2-y2   0.00124   0.00000     -0.000  -0.000   0.000
   23     Total     5.53332   0.00000     -0.000  -0.000  -0.000

----------------------------------------------------------------
Total              56.76346   0.00000      0.000   0.000   0.000


Species: Si                  

Atom      Orb        Charge      Spin       Svec
----------------------------------------------------------------
    7  1 3s         0.68493   0.00000     -0.000  -0.000   0.000
    7  2 3s         0.35966   0.00000      0.000  -0.000   0.000
    7  3 3py        0.45220   0.00000     -0.000   0.000   0.000
    7  4 3pz        0.70656   0.00000     -0.000  -0.000   0.000
    7  5 3px        0.13265   0.00000      0.000   0.000  -0.000
    7  6 3py        0.28520   0.00000      0.000  -0.000   0.000
    7  7 3pz        0.25961   0.00000      0.000  -0.000   0.000
    7  8 3px        0.42396   0.00000     -0.000   0.000   0.000
    7  9 3Pdxy      0.24315   0.00000      0.000  -0.000   0.000
    7 10 3Pdyz      0.02983   0.00000      0.000   0.000  -0.000
    7 11 3Pdz2      0.01176   0.00000     -0.000  -0.000  -0.000
    7 12 3Pdxz      0.13930   0.00000      0.000   0.000  -0.000
    7 13 3Pdx2-y2   0.11437   0.00000      0.000   0.000  -0.000
    7     Total     3.84318   0.00000     -0.000  -0.000   0.000

    8  1 3s         0.64692   0.00000      0.000   0.000  -0.000
    8  2 3s         0.37142   0.00000     -0.000  -0.000   0.000
    8  3 3py        0.39086   0.00000      0.000   0.000   0.000
    8  4 3pz        0.50707   0.00000      0.000   0.000   0.000
    8  5 3px       -0.02456   0.00000      0.000   0.000  -0.000
    8  6 3py        0.30213   0.00000     -0.000   0.000  -0.000
    8  7 3pz        0.20544   0.00000     -0.000  -0.000   0.000
    8  8 3px        0.51993   0.00000     -0.000  -0.000  -0.000
    8  9 3Pdxy      0.26179   0.00000     -0.000   0.000  -0.000
    8 10 3Pdyz      0.10986   0.00000     -0.000   0.000   0.000
    8 11 3Pdz2      0.01270   0.00000      0.000  -0.000   0.000
    8 12 3Pdxz      0.15891   0.00000      0.000   0.000  -0.000
    8 13 3Pdx2-y2   0.18980   0.00000      0.000  -0.000   0.000
    8     Total     3.65229   0.00000      0.000   0.000   0.000

    9  1 3s         0.62690   0.00000     -0.000   0.000  -0.000
    9  2 3s         0.35867   0.00000      0.000   0.000  -0.000
    9  3 3py        0.11749   0.00000      0.000  -0.000  -0.000
    9  4 3pz        0.47514   0.00000      0.000  -0.000  -0.000
    9  5 3px        0.34245   0.00000     -0.000   0.000  -0.000
    9  6 3py        0.40296   0.00000     -0.000   0.000  -0.000
    9  7 3pz        0.18640   0.00000     -0.000   0.000  -0.000
    9  8 3px        0.28188   0.00000      0.000   0.000  -0.000
    9  9 3Pdxy      0.28457   0.00000      0.000   0.000  -0.000
    9 10 3Pdyz      0.19005   0.00000     -0.000   0.000  -0.000
    9 11 3Pdz2      0.01069   0.00000     -0.000  -0.000  -0.000
    9 12 3Pdxz      0.09583   0.00000     -0.000   0.000  -0.000
    9 13 3Pdx2-y2   0.16017   0.00000      0.000  -0.000  -0.000
    9     Total     3.53319   0.00000      0.000   0.000  -0.000

   10  1 3s         0.48474   0.00000     -0.000   0.000  -0.000
   10  2 3s         0.37923   0.00000      0.000  -0.000   0.000
   10  3 3py        0.23714   0.00000      0.000   0.000  -0.000
   10  4 3pz        0.41661   0.00000      0.000   0.000  -0.000
   10  5 3px        0.10452   0.00000     -0.000  -0.000  -0.000
   10  6 3py        0.33327   0.00000     -0.000  -0.000  -0.000
   10  7 3pz        0.21738   0.00000      0.000  -0.000  -0.000
   10  8 3px        0.43048   0.00000      0.000   0.000  -0.000
   10  9 3Pdxy      0.16891   0.00000     -0.000  -0.000  -0.000
   10 10 3Pdyz      0.14234   0.00000      0.000  -0.000  -0.000
   10 11 3Pdz2      0.01067   0.00000     -0.000  -0.000  -0.000
   10 12 3Pdxz      0.17586   0.00000     -0.000  -0.000  -0.000
   10 13 3Pdx2-y2   0.31945   0.00000      0.000  -0.000  -0.000
   10     Total     3.42061   0.00000     -0.000  -0.000  -0.000

   11  1 3s         0.55936   0.00000      0.000  -0.000   0.000
   11  2 3s         0.38181   0.00000     -0.000  -0.000   0.000
   11  3 3py        0.30594   0.00000     -0.000   0.000   0.000
   11  4 3pz        0.54193   0.00000     -0.000   0.000   0.000
   11  5 3px        0.14016   0.00000      0.000  -0.000   0.000
   11  6 3py        0.30244   0.00000      0.000  -0.000  -0.000
   11  7 3pz        0.17682   0.00000      0.000  -0.000   0.000
   11  8 3px        0.43157   0.00000     -0.000   0.000  -0.000
   11  9 3Pdxy      0.24444   0.00000     -0.000   0.000   0.000
   11 10 3Pdyz      0.12526   0.00000     -0.000  -0.000   0.000
   11 11 3Pdz2      0.00939   0.00000      0.000  -0.000  -0.000
   11 12 3Pdxz      0.05295   0.00000      0.000  -0.000   0.000
   11 13 3Pdx2-y2   0.18430   0.00000      0.000  -0.000   0.000
   11     Total     3.45637   0.00000      0.000  -0.000   0.000

   17  1 3s         0.64696   0.00000      0.000   0.000  -0.000
   17  2 3s         0.35707   0.00000      0.000  -0.000   0.000
   17  3 3py        0.24320   0.00000     -0.000  -0.000  -0.000
   17  4 3pz        0.42886   0.00000     -0.000  -0.000  -0.000
   17  5 3px        0.22716   0.00000      0.000  -0.000  -0.000
   17  6 3py        0.36345   0.00000     -0.000   0.000   0.000
   17  7 3pz        0.21328   0.00000     -0.000   0.000  -0.000
   17  8 3px        0.38723   0.00000      0.000   0.000   0.000
   17  9 3Pdxy      0.28599   0.00000      0.000  -0.000  -0.000
   17 10 3Pdyz      0.13560   0.00000     -0.000   0.000  -0.000
   17 11 3Pdz2      0.00875   0.00000      0.000  -0.000   0.000
   17 12 3Pdxz      0.14993   0.00000      0.000  -0.000  -0.000
   17 13 3Pdx2-y2   0.17438   0.00000     -0.000   0.000  -0.000
   17     Total     3.62187   0.00000     -0.000   0.000  -0.000

   18  1 3s         0.74464   0.00000     -0.000  -0.000   0.000
   18  2 3s         0.34091   0.00000      0.000   0.000   0.000
   18  3 3py        0.07663   0.00000      0.000  -0.000   0.000
   18  4 3pz        0.81570   0.00000      0.000  -0.000   0.000
   18  5 3px        0.54753   0.00000      0.000  -0.000   0.000
   18  6 3py        0.52091   0.00000     -0.000   0.000   0.000
   18  7 3pz        0.19669   0.00000      0.000  -0.000   0.000
   18  8 3px        0.25444   0.00000     -0.000   0.000   0.000
   18  9 3Pdxy      0.10723   0.00000      0.000   0.000  -0.000
   18 10 3Pdyz      0.02790   0.00000     -0.000  -0.000  -0.000
   18 11 3Pdz2      0.00900   0.00000     -0.000   0.000  -0.000
   18 12 3Pdxz      0.03095   0.00000      0.000  -0.000   0.000
   18 13 3Pdx2-y2   0.10324   0.00000     -0.000   0.000   0.000
   18     Total     3.77577   0.00000      0.000  -0.000   0.000

   19  1 3s         0.45964   0.00000     -0.000  -0.000  -0.000
   19  2 3s         0.36267   0.00000      0.000   0.000  -0.000
   19  3 3py        0.07224   0.00000     -0.000   0.000  -0.000
   19  4 3pz        0.40450   0.00000      0.000  -0.000  -0.000
   19  5 3px        0.27843   0.00000     -0.000  -0.000  -0.000
   19  6 3py        0.46181   0.00000      0.000  -0.000  -0.000
   19  7 3pz        0.19208   0.00000     -0.000  -0.000  -0.000
   19  8 3px        0.28431   0.00000     -0.000  -0.000  -0.000
   19  9 3Pdxy      0.33447   0.00000      0.000   0.000  -0.000
   19 10 3Pdyz      0.18841   0.00000     -0.000  -0.000  -0.000
   19 11 3Pdz2      0.01227   0.00000     -0.000  -0.000  -0.000
   19 12 3Pdxz      0.09420   0.00000      0.000   0.000  -0.000
   19 13 3Pdx2-y2   0.23168   0.00000      0.000  -0.000  -0.000
   19     Total     3.37671   0.00000     -0.000  -0.000  -0.000

   20  1 3s         0.67663   0.00000     -0.000  -0.000   0.000
   20  2 3s         0.37830   0.00000      0.000   0.000   0.000
   20  3 3py        0.34300   0.00000     -0.000   0.000  -0.000
   20  4 3pz        0.59534   0.00000     -0.000   0.000   0.000
   20  5 3px        0.14218   0.00000      0.000   0.000   0.000
   20  6 3py        0.28477   0.00000      0.000  -0.000   0.000
   20  7 3pz        0.16180   0.00000      0.000   0.000   0.000
   20  8 3px        0.49820   0.00000     -0.000  -0.000   0.000
   20  9 3Pdxy      0.10231   0.00000     -0.000  -0.000  -0.000
   20 10 3Pdyz      0.13243   0.00000     -0.000   0.000   0.000
   20 11 3Pdz2      0.00772   0.00000     -0.000   0.000  -0.000
   20 12 3Pdxz      0.02648   0.00000      0.000   0.000  -0.000
   20 13 3Pdx2-y2   0.17450   0.00000      0.000   0.000   0.000
   20     Total     3.52365   0.00000     -0.000   0.000   0.000

----------------------------------------------------------------
Total              88.96708   0.00000     -0.000   0.000   0.000


Species: H                   

Atom      Orb        Charge      Spin       Svec
----------------------------------------------------------------
   12  1 1s         0.47478   0.00000      0.000   0.000   0.000
   12  2 1s         0.18444   0.00000      0.000  -0.000   0.000
   12  3 2Ppy       0.03775   0.00000      0.000   0.000  -0.000
   12  4 2Ppz       0.03216   0.00000      0.000   0.000   0.000
   12  5 2Ppx       0.04131   0.00000      0.000  -0.000  -0.000
   12     Total     0.77043   0.00000      0.000   0.000   0.000

   13  1 1s         1.02116   0.00000     -0.000  -0.000  -0.000
   13  2 1s         0.09457   0.00000     -0.000   0.000   0.000
   13  3 2Ppy       0.01981   0.00000     -0.000  -0.000  -0.000
   13  4 2Ppz       0.02011   0.00000      0.000  -0.000   0.000
   13  5 2Ppx       0.03314   0.00000     -0.000   0.000  -0.000
   13     Total     1.18880   0.00000     -0.000  -0.000  -0.000

   14  1 1s         0.48510   0.00000      0.000   0.000   0.000
   14  2 1s         0.19659   0.00000     -0.000  -0.000   0.000
   14  3 2Ppy       0.01983   0.00000      0.000  -0.000  -0.000
   14  4 2Ppz       0.04884   0.00000     -0.000   0.000   0.000
   14  5 2Ppx       0.01956   0.00000     -0.000   0.000   0.000
   14     Total     0.76993   0.00000      0.000   0.000   0.000

   15  1 1s         0.43823   0.00000      0.000   0.000   0.000
   15  2 1s         0.19438   0.00000     -0.000   0.000   0.000
   15  3 2Ppy       0.03000   0.00000      0.000  -0.000  -0.000
   15  4 2Ppz       0.04526   0.00000      0.000  -0.000  -0.000
   15  5 2Ppx       0.06937   0.00000     -0.000   0.000  -0.000
   15     Total     0.77725   0.00000      0.000   0.000   0.000

   16  1 1s         0.50664   0.00000     -0.000   0.000   0.000
   16  2 1s         0.18766   0.00000      0.000   0.000   0.000
   16  3 2Ppy       0.03001   0.00000     -0.000  -0.000  -0.000
   16  4 2Ppz       0.03920   0.00000      0.000   0.000   0.000
   16  5 2Ppx       0.02307   0.00000     -0.000   0.000   0.000
   16     Total     0.78659   0.00000     -0.000   0.000   0.000

   24  1 1s         1.05690   0.00000     -0.000  -0.000  -0.000
   24  2 1s         0.07605   0.00000      0.000   0.000   0.000
   24  3 2Ppy       0.03163   0.00000     -0.000  -0.000   0.000
   24  4 2Ppz       0.03085   0.00000      0.000   0.000  -0.000
   24  5 2Ppx       0.01774   0.00000      0.000   0.000  -0.000
   24     Total     1.21316   0.00000     -0.000  -0.000  -0.000

   25  1 1s         1.04742   0.00000      0.000  -0.000  -0.000
   25  2 1s         0.08413   0.00000      0.000   0.000   0.000
   25  3 2Ppy       0.01168   0.00000     -0.000   0.000  -0.000
   25  4 2Ppz       0.01832   0.00000      0.000  -0.000  -0.000
   25  5 2Ppx       0.03633   0.00000      0.000  -0.000   0.000
   25     Total     1.19788   0.00000      0.000  -0.000  -0.000

   26  1 1s         0.49249   0.00000      0.000  -0.000   0.000
   26  2 1s         0.19620   0.00000      0.000   0.000   0.000
   26  3 2Ppy       0.02112   0.00000      0.000   0.000  -0.000
   26  4 2Ppz       0.05091   0.00000      0.000   0.000   0.000
   26  5 2Ppx       0.01901   0.00000     -0.000  -0.000   0.000
   26     Total     0.77972   0.00000      0.000   0.000   0.000

   27  1 1s         0.41846   0.00000     -0.000  -0.000   0.000
   27  2 1s         0.19524   0.00000      0.000   0.000   0.000
   27  3 2Ppy       0.04192   0.00000     -0.000   0.000   0.000
   27  4 2Ppz       0.04510   0.00000     -0.000  -0.000  -0.000
   27  5 2Ppx       0.08473   0.00000      0.000   0.000   0.000
   27     Total     0.78545   0.00000     -0.000  -0.000   0.000

   29  1 1s         0.48910   0.00000     -0.000   0.000   0.000
   29  2 1s         0.18795   0.00000      0.000  -0.000   0.000
   29  3 2Ppy       0.02513   0.00000      0.000   0.000   0.000
   29  4 2Ppz       0.03496   0.00000     -0.000   0.000   0.000
   29  5 2Ppx       0.02657   0.00000      0.000   0.000   0.000
   29     Total     0.76371   0.00000     -0.000   0.000   0.000

----------------------------------------------------------------
Total              98.00000   0.00000     -0.000   0.000  -0.000


siesta: Eigenvalues (eV):
ik =     1
  -22.7665  -22.7665  -22.4643  -22.4643  -21.3469  -21.3469  -21.3033  -21.3033  -21.0111  -21.0111
  -20.7693  -20.7693  -20.3093  -20.3093  -19.6484  -19.6484  -19.5906  -19.5906  -19.3721  -19.3721
  -14.7443  -14.7443  -13.8290  -13.8290  -13.2373  -13.2373  -13.1516  -13.1516  -12.8493  -12.8493
  -12.6517  -12.6517  -12.6054  -12.6054  -11.9986  -11.9986  -11.8623  -11.8623  -11.7535  -11.7535
  -11.0634  -11.0634  -10.7924  -10.7924  -10.6214  -10.6214  -10.3931  -10.3931  -10.1376  -10.1376
   -9.6734   -9.6734   -9.0147   -9.0147   -8.9897   -8.9897   -8.8661   -8.8661   -8.6104   -8.6104
   -8.5281   -8.5281   -8.4598   -8.4598   -8.3703   -8.3703   -7.9895   -7.9895   -7.9841   -7.9841
   -7.5516   -7.5516   -7.4277   -7.4277   -7.2750   -7.2750   -7.1179   -7.1179   -6.8906   -6.8906
   -6.6862   -6.6862   -6.6553   -6.6553   -6.4530   -6.4530   -6.4099   -6.4099   -6.2450   -6.2450
   -6.0782   -6.0782   -6.0493   -6.0493   -5.5077   -5.5077   -4.3736   -4.3736   -3.2152   -3.2152
   -2.4334   -2.4334   -2.2916   -2.2916   -2.2301   -2.2301   -1.9809   -1.9809   -1.8895   -1.8895
   -1.8333   -1.8333   -1.7291   -1.7291   -1.6571   -1.6571   -1.2674   -1.2674   -1.1770   -1.1770
   -1.1293   -1.1293   -0.5732   -0.5732   -0.4160   -0.4160   -0.4090   -0.4090    0.3391    0.3391
    0.3636    0.3636    0.5426    0.5426    0.7484    0.7484    0.8431    0.8431    1.2335    1.2335
    1.3505    1.3505    1.4316    1.4316    1.4373    1.4373    1.5080    1.5080    1.9424    1.9424
    2.1507    2.1507    2.5991    2.5991    2.7008    2.7008    2.7207    2.7207    2.8785    2.8785
    2.9753    2.9753    3.0932    3.0932    3.2556    3.2556    3.3561    3.3561    3.6751    3.6751
    3.7837    3.7837    4.0744    4.0744    4.1072    4.1072    4.1172    4.1172    4.3110    4.3110
    4.6018    4.6018    4.6214    4.6214    4.7203    4.7203    5.0796    5.0796    5.2005    5.2005
    5.2833    5.2833    5.4372    5.4372    5.5935    5.5935    5.6029    5.6029    5.8874    5.8874
    6.0069    6.0069    6.3500    6.3500    6.4366    6.4366    6.5620    6.5620    6.6159    6.6159
    6.6915    6.6915    6.7505    6.7505    6.8437    6.8437    7.1145    7.1145    7.1285    7.1285
    7.3215    7.3215    7.5916    7.5916    7.7486    7.7486    7.9248    7.9248    8.0627    8.0627
    8.1189    8.1189    8.3350    8.3350    8.4132    8.4132    8.6419    8.6419    8.6565    8.6565
    8.7048    8.7048    8.9180    8.9180    9.0589    9.0589    9.2092    9.2092    9.3845    9.3845
    9.4829    9.4829    9.8027    9.8027    9.8554    9.8554    9.9122    9.9122   10.0821   10.0821
   10.3038   10.3038   10.6149   10.6149   10.6417   10.6417   11.1198   11.1198   11.1553   11.1553
   11.3651   11.3651   11.5587   11.5587   12.3111   12.3111   12.3259   12.3259   12.3792   12.3792
   12.4334   12.4334   12.4876   12.4876   12.8963   12.8963   13.0403   13.0403   13.2667   13.2667
   13.6235   13.6235   13.6693   13.6693   13.9260   13.9260   13.9766   13.9766   14.1057   14.1057
   14.3126   14.3126   14.4433   14.4433   14.4666   14.4666   14.6968   14.6968   14.8882   14.8882
   15.4092   15.4092   16.0568   16.0569   16.4858   16.4858   16.7127   16.7127   16.7499   16.7499
   17.2155   17.2155   17.7923   17.7923   17.9536   17.9536   18.4807   18.4807   18.9062   18.9062
   19.5927   19.5927   20.0153   20.0153   20.2071   20.2071   20.5176   20.5176   20.9007   20.9007
   21.3074   21.3074   21.9432   21.9432   22.1397   22.1397   22.7595   22.7595   22.8973   22.8973
   23.6826   23.6826   23.7262   23.7262   24.0349   24.0349   24.3990   24.3990   25.0083   25.0083
   25.4579   25.4579   25.8316   25.8316   26.6377   26.6377   27.6781   27.6781   28.7188   28.7188
   29.1787   29.1787   29.6639   29.6639   29.9190   29.9190   30.2273   30.2273   30.6809   30.6809
   30.7137   30.7137   30.9517   30.9517   31.2259   31.2259   31.5580   31.5580   31.7269   31.7269
   32.1518   32.1518   32.8789   32.8789   33.5425   33.5425   34.0202   34.0202   34.1745   34.1745
   34.6619   34.6619   35.3561   35.3561   35.5820   35.5820   36.2253   36.2253   36.3147   36.3147
   36.6487   36.6487   36.7649   36.7649   36.9954   36.9954   37.0232   37.0232   38.2869   38.2869
   38.5638   38.5638   39.0563   39.0563   39.3743   39.3743   39.4342   39.4342   40.0675   40.0675
   40.2910   40.2910   40.6116   40.6116   41.1915   41.1915   41.4189   41.4189   41.6283   41.6283
   41.7718   41.7718   42.3432   42.3432   42.4879   42.4879   43.1466   43.1466   43.4407   43.4407
   43.9302   43.9302   44.0611   44.0611   44.2749   44.2749   44.6566   44.6566   44.9602   44.9602
   45.0218   45.0218   45.3755   45.3755   45.7257   45.7257   45.8979   45.8979   45.9498   45.9498
   46.5358   46.5358   47.0511   47.0511   47.8168   47.8168   48.5692   48.5692   49.4548   49.4548
   49.6806   49.6806   49.8573   49.8573   50.5920   50.5920   50.7996   50.7996   50.9129   50.9129
   51.6760   51.6760   51.9341   51.9341   52.3089   52.3089   53.5110   53.5110   54.0444   54.0444
   54.1971   54.1971   54.3169   54.3169   55.4589   55.4589   55.7830   55.7830   55.9341   55.9341
   56.0906   56.0906   56.9324   56.9324   57.5693   57.5693   58.3035   58.3035   58.3137   58.3137
   59.7824   59.7824   60.1990   60.1990   60.5289   60.5289   60.6435   60.6435   61.3421   61.3421
   61.8420   61.8420   62.1213   62.1213   63.2470   63.2470   64.1086   64.1086   66.0536   66.0536
   66.6163   66.6163   68.0141   68.0141   68.1925   68.1925   68.4606   68.4606   69.2698   69.2698
   70.3966   70.3966   70.9606   70.9606   71.5612   71.5612   75.0324   75.0324   85.0821   85.0821
   87.5204   87.5204   89.5562   89.5562   93.1367   93.1367   94.4425   94.4425   95.6029   95.6029
   99.8497   99.8497  100.0973  100.0973  103.2831  103.2831  104.0226  104.0226  105.4890  105.4890
  114.5632  114.5632  116.7893  116.7893  124.7041  124.7041  127.6495  127.6495  138.0634  138.0634
  148.6589  148.6589  148.9643  148.9643
siesta: Fermi energy =      -3.795670 eV

siesta: Program's energy decomposition (eV):
siesta: Ebs     =     -1134.959436
siesta: Eions   =      3585.165840
siesta: Ena     =       384.581022
siesta: Ekin    =      2912.541053
siesta: Enl     =     -2799.299162
siesta: Eso     =        -0.004298
siesta: Edftu   =         0.000000
siesta: DEna    =        48.235067
siesta: DUscf   =        13.800113
siesta: DUext   =         0.000000
siesta: Exc     =     -1122.499788
siesta: eta*DQ  =         0.000000
siesta: Emadel  =         0.000000
siesta: Emeta   =         0.000000
siesta: Emolmec =         0.000000
siesta: Ekinion =         0.000000
siesta: Eharris =     -4147.811834
siesta: Etot    =     -4147.811834
siesta: FreeEng =     -4147.811834

siesta: Final energy (eV):
siesta:  Band Struct. =   -1134.959436
siesta:       Kinetic =    2912.541053
siesta:       Hartree =    9015.793806
siesta:       Edftu   =       0.000000
siesta:       Eso     =      -0.004298
siesta:    Ext. field =       0.000000
siesta:   Exch.-corr. =   -1122.499788
siesta:  Ion-electron =  -20621.812690
siesta:       Ion-ion =    5668.170084
siesta:       Ekinion =       0.000000
siesta:         Total =   -4147.811834
siesta:         Fermi =      -3.795670

siesta: Atomic forces (eV/Ang):
siesta:      1    3.146054    1.525986    0.000000
siesta:      2   -0.058003    0.003394    0.000000
siesta:      3   -0.575051    0.356912   -0.000000
siesta:      4   -0.604708   -0.053932    0.000000
siesta:      5   -0.038355    0.059252   -0.000000
siesta:      6   -1.075863   -0.331913   -0.000000
siesta:      7   -0.049222    0.205477   -0.000000
siesta:      8    0.367606   -0.187175    0.000000
siesta:      9    0.245327   -0.980547   -0.000000
siesta:     10    0.949355   -0.154253   -0.000000
siesta:     11   -0.012166    0.042537   -0.000000
siesta:     12    0.215519    0.101380    0.000000
siesta:     13    0.012806    0.140678   -0.000000
siesta:     14    0.005919   -0.088785    0.000000
siesta:     15    0.951225    0.701273    0.000000
siesta:     16    0.084205    0.185512    0.000000
siesta:     17   -0.965510    0.836191   -0.000000
siesta:     18    0.188596   -0.157906    0.000000
siesta:     19    0.148524    1.020662    0.000000
siesta:     20   -0.014011    0.329573    0.000000
siesta:     21    0.254409   -0.929858    0.000000
siesta:     22    1.703220    0.582241   -0.000000
siesta:     23   -0.203560   -0.467460   -0.000000
siesta:     24    0.076541    0.114347    0.000000
siesta:     25   -0.129772   -0.091798   -0.000000
siesta:     26    0.146893    0.251152    0.000000
siesta:     27   -1.007887   -0.889101   -0.000000
siesta:     28   -1.045091   -3.704167    0.000000
siesta:     29    0.070163    0.090856    0.000000
siesta: ----------------------------------------
siesta:    Tot    2.787163   -1.489474    0.000000

siesta: Stress tensor (static) (eV/Ang**3):
siesta:     0.000035   -0.000303    0.000000
siesta:    -0.000303   -0.000284    0.000000
siesta:    -0.000000   -0.000000   -0.000064

siesta: Cell volume =       4485.180515 Ang**3

siesta: Pressure (static):
siesta:                Solid            Molecule  Units
siesta:           0.00000114          0.00000223  Ry/Bohr**3
siesta:           0.00010470          0.00020489  eV/Ang**3
siesta:           0.16774208          0.32828061  kBar
(Free)E+ p_basis*V_orbitals  =       -4127.961417
(Free)Eharris+ p_basis*V_orbitals  =       -4127.961417
     spin moment: S , {S} =    0.00000  -0.00000   0.00000  -0.00000

siesta: Electric dipole (a.u.)  =    1.426172    0.080262   -0.000000
siesta: Electric dipole (Debye) =    3.624969    0.204005   -0.000000

cite: Please see "GC.bib" for an exhaustive BiBTeX file.
cite: Please clearly indicate Siesta version in published work: v4.1.5-1-g384057250
cite: This calculation has made use of the following articles
cite: which are encouraged to be cited in a published work.
        Primary SIESTA paper
          DOI: www.doi.org/10.1088/0953-8984/14/11/302
        Spin-orbit coupling (on-site approximation)
          DOI: www.doi.org/10.1088/0953-8984/19/19/489001


WARNING: alloc-realloc-dealloc name mismatch
         Name: atomlist isa
         Size:              -116. Bytes
         Node:     0
         Subsequent mismatches will not be reported
>> End of run:  22-MAY-2023  16:50:53
Job completed
