Siesta Version  : v4.1.5-1-g384057250
Architecture    : gcc
Compiler version: GNU Fortran (Ubuntu 11.4.0-1ubuntu1~22.04) 11.4.0
Compiler flags  : mpifort -O2 -fPIC -ftree-vectorize -fallow-argument-mismatch
PP flags        : -DFC_HAVE_ABORT -DMPI -DSIESTA__FLOOK -DSIESTA__METIS -DSIESTA__MUMPS -DCDF -DNCDF -DNCDF_4 -DNCDF_PARALLEL -DSIESTA__MRRR -DSIESTA__ELPA
Libraries       : libncdf.a libfdict.a  -lflookall -ldl -lnetcdff -lnetcdf -lhdf5_hl -lhdf5 -lhdf5_fortran -lz -lscalapack-openmpi -lopenblas -lmetis -lzmumps -lcmumps -ldmumps -lmumps_common -lpord -lsmumps -lesmumps -lscotch -lscotcherr -fopenmp -lelpa
PARALLEL version
NetCDF support
NetCDF-4 support
NetCDF-4 MPI-IO support
METIS ordering support
Lua support

* Running on 8 nodes in parallel
>> Start of run:   1-FEB-2024  21:16:37

                           ***********************       
                           *  WELCOME TO SIESTA  *       
                           ***********************       

reinit: Reading from standard input
reinit: Dumped input in INPUT_TMP.67694
************************** Dump of input data file ****************************
# mpirun -np 4 siesta-4.1.5 < GC.fdf > GC.out &
SystemLabel      GC
NumberOfAtoms    29
NumberOfSpecies  4
%block ChemicalSpeciesLabel
    1    1  H
    2    7  N
    3   14  Si
    4    8  O
%endblock ChemicalSpeciesLabel
############################################
# This overrides Defaults.fdf configuration
############################################
MD.TypeOfRun                Verlet # CG, Verlet
MD.Steps                    0
MaxSCFIterations            200
SCF.MustConverge            F
AtomicCoordinatesFormat NotScaledCartesianAng
%block AtomicCoordinatesAndAtomicSpecies
    1.1361001291728532 3.4461336286505544 -0.0  1  1  H
    0.4296133991728532 2.6560974486505544 -0.0  2  2  N
    -1.3006735108271468 3.097461358650554 0.0  3  3  Si
    -1.4564531908271467 4.587453618650555 0.0  1  4  H
    -2.823995130827147 1.5385538386505542 -0.0  3  5  Si
    -4.307182760827147 1.7813841986505543 -0.0  1  6  H
    -1.6256042708271468 -0.37472232134944566 -0.0  3  7  Si
    -2.391629730827147 -1.9074390613494456 -0.0  2  8  N
    -1.8013831808271468 -2.8646520913494458 0.0  1  9  H
    -3.4432520508271467 -1.9878992913494455 -0.0  1  10  H
    0.09059578917285319 -0.31954801134944566 0.0  2  11  N
    1.1656184091728532 1.0107908286505545 -0.0  3  12  Si
    2.774291729172853 0.9919805686505544 -0.0  4  13  O
    5.6164483 -7.44953905 0.0  1  14  H
    4.58206954 -7.2320376 0.0  2  15  N
    3.29666389 -8.492636 0.0  3  16  Si
    3.80117524 -9.90371886 -0.0  1  17  H
    1.65934232 -8.01362137 0.0  2  18  N
    1.68097912 -6.20463398 -0.0  3  19  Si
    0.54543521 -4.28636135 0.0  3  20  Si
    -1.03431493 -3.94450034 0.0  4  21  O
    1.73226934 -2.87719605 0.0  2  22  N
    1.20957366 -1.92961761 -0.0  1  23  H
    3.50853448 -2.77677601 0.0  3  24  Si
    4.13684451 -1.17938608 0.0  2  25  N
    3.54296161 -0.26248101 0.0  1  26  H
    5.18364407 -1.05231197 -0.0  1  27  H
    4.63288658 -4.07521596 -0.0  2  28  N
    3.79410501 -5.58634043 0.0  3  29  Si
%endblock AtomicCoordinatesAndAtomicSpecies
#############
# Unit Cell
#############
LatticeConstant 1.0 Ang
%block LatticeVectors
    30.00000    0.000000    0.000000
    0.000000    45.00000    0.000000
    0.000000    0.000000    10.00000
%endblock LatticeVectors
%include ../../../../Defaults.fdf
************************** End of input data file *****************************

reinit: -----------------------------------------------------------------------
reinit: System Name: 
reinit: -----------------------------------------------------------------------
reinit: System Label: GC
reinit: -----------------------------------------------------------------------

initatom: Reading input for the pseudopotentials and atomic orbitals ----------
Species number:   1 Atomic number:    1 Label: H
Species number:   2 Atomic number:    7 Label: N
Species number:   3 Atomic number:   14 Label: Si
Species number:   4 Atomic number:    8 Label: O

Ground state valence configuration:   1s01
Reading pseudopotential information in formatted form from H.psf

Pseudopotential generated from a relativistic atomic calculation

Valence configuration for pseudopotential generation:
1s( 1.00) rc: 0.01
2p( 0.00) rc: 0.60
3d( 0.00) rc: 1.99
4f( 0.00) rc: 2.49
Ground state valence configuration:   2s02  2p03
Reading pseudopotential information in formatted form from N.psf

Pseudopotential generated from a relativistic atomic calculation

Valence configuration for pseudopotential generation:
2s( 2.00) rc: 0.94
2p( 3.00) rc: 0.59
3d( 0.00) rc: 3.46
4f( 0.00) rc: 2.47
Ground state valence configuration:   3s02  3p02
Reading pseudopotential information in formatted form from Si.psf

Pseudopotential generated from a relativistic atomic calculation

Valence configuration for pseudopotential generation:
3s( 2.00) rc: 1.67
3p( 2.00) rc: 2.04
3d( 0.00) rc: 2.89
4f( 0.00) rc: 2.49
Ground state valence configuration:   2s02  2p04
Reading pseudopotential information in formatted form from O.psf

Pseudopotential generated from a relativistic atomic calculation

Valence configuration for pseudopotential generation:
2s( 2.00) rc: 0.45
2p( 4.00) rc: 0.92
3d( 0.00) rc: 2.24
4f( 0.00) rc: 0.25
For H, standard SIESTA heuristics set lmxkb to 2
 (one more than the basis l, including polarization orbitals).
Use PS.lmax or PS.KBprojectors blocks to override.
For N, standard SIESTA heuristics set lmxkb to 3
 (one more than the basis l, including polarization orbitals).
Use PS.lmax or PS.KBprojectors blocks to override.
For Si, standard SIESTA heuristics set lmxkb to 3
 (one more than the basis l, including polarization orbitals).
Use PS.lmax or PS.KBprojectors blocks to override.
For O, standard SIESTA heuristics set lmxkb to 3
 (one more than the basis l, including polarization orbitals).
Use PS.lmax or PS.KBprojectors blocks to override.

<basis_specs>
===============================================================================
H                    Z=   1    Mass=  1.0100        Charge= 0.17977+309
Lmxo=0 Lmxkb= 2    BasisType=split      Semic=F
L=0  Nsemic=0  Cnfigmx=1
          i=1  nzeta=2  polorb=1  (1s)
            splnorm:   0.62000    
               vcte:    0.0000    
               rinn:    0.0000    
               qcoe:    0.0000    
               qyuk:    0.0000    
               qwid:   0.10000E-01
                rcs:    0.0000      0.0000    
            lambdas:    1.0000      1.0000    
-------------------------------------------------------------------------------
L=0  Nkbl=1  erefs: 0.17977+309
L=1  Nkbl=1  erefs: 0.17977+309
L=2  Nkbl=1  erefs: 0.17977+309
===============================================================================
</basis_specs>

atom: Called for H                     (Z =   1)

read_vps: Pseudopotential generation method:
read_vps: ATM4.2.7  Troullier-Martins                       
Valence charge for ps generation:    1.00000

xc_check: Exchange-correlation functional:
xc_check: GGA Perdew, Burke & Ernzerhof 1996
V l=0 = -2*Zval/r beyond r=  0.0098
V l=1 = -2*Zval/r beyond r=  0.5817
V l=2 = -2*Zval/r beyond r=  1.9372
All V_l potentials equal beyond r=  1.9372
This should be close to max(r_c) in ps generation
All pots = -2*Zval/r beyond r=  1.9372

VLOCAL1: 99.0% of the norm of Vloc inside     11.567 Ry
VLOCAL1: 99.9% of the norm of Vloc inside     26.362 Ry
atom: Maximum radius for 4*pi*r*r*local-pseudopot. charge    2.25106
atom: Maximum radius for r*vlocal+2*Zval:    1.91306
GHOST: No ghost state for L =  0
GHOST: No ghost state for L =  1
GHOST: No ghost state for L =  2

KBgen: Kleinman-Bylander projectors: 
   l= 0   rc=  2.036604   el= -0.477180   Ekb= -6.081590   kbcos= -0.277285
   l= 1   rc=  2.195416   el=  0.001076   Ekb= -0.926943   kbcos= -0.034643
   l= 2   rc=  2.251056   el=  0.002010   Ekb= -0.130941   kbcos= -0.009788

KBgen: Total number of Kleinman-Bylander projectors:    9
atom: -------------------------------------------------------------------------

atom: SANKEY-TYPE ORBITALS:
atom: Selected multiple-zeta basis: split     

SPLIT: Orbitals with angular momentum L= 0

SPLIT: Basis orbitals for state 1s

SPLIT: PAO cut-off radius determined from an
SPLIT: energy shift=  0.002000 Ry

   izeta = 1
                 lambda =    1.000000
                     rc =    6.518340
                 energy =   -0.475305
                kinetic =    0.912139
    potential(screened) =   -1.387444
       potential(ionic) =   -1.907295

   izeta = 2
                 rmatch =    2.141150
              splitnorm =    0.620000
                 energy =    0.566467
                kinetic =    3.772856
    potential(screened) =   -3.206389
       potential(ionic) =   -3.759093

POLgen: Perturbative polarization orbital with L=  1

POLgen: Polarization orbital for state 1s

   izeta = 1
                     rc =    6.518340
                 energy =    0.533861
                kinetic =    1.121086
    potential(screened) =   -0.587225
       potential(ionic) =   -1.053027
atom: Total number of Sankey-type orbitals:  5

atm_pop: Valence configuration (for local Pseudopot. screening):
 1s( 1.00)                                                            
Vna: chval, zval:    1.00000   1.00000

Vna:  Cut-off radius for the neutral-atom potential:   6.518340

atom: _________________________________________________________________________

<basis_specs>
===============================================================================
N                    Z=   7    Mass=  14.010        Charge= 0.17977+309
Lmxo=1 Lmxkb= 3    BasisType=split      Semic=F
L=0  Nsemic=0  Cnfigmx=2
          i=1  nzeta=2  polorb=0  (2s)
            splnorm:   0.28000    
               vcte:    0.0000    
               rinn:    0.0000    
               qcoe:    0.0000    
               qyuk:    0.0000    
               qwid:   0.10000E-01
                rcs:    0.0000      0.0000    
            lambdas:    1.0000      1.0000    
L=1  Nsemic=0  Cnfigmx=2
          i=1  nzeta=2  polorb=1  (2p)
            splnorm:   0.28000    
               vcte:    0.0000    
               rinn:    0.0000    
               qcoe:    0.0000    
               qyuk:    0.0000    
               qwid:   0.10000E-01
                rcs:    0.0000      0.0000    
            lambdas:    1.0000      1.0000    
-------------------------------------------------------------------------------
L=0  Nkbl=1  erefs: 0.17977+309
L=1  Nkbl=1  erefs: 0.17977+309
L=2  Nkbl=1  erefs: 0.17977+309
L=3  Nkbl=1  erefs: 0.17977+309
===============================================================================
</basis_specs>

atom: Called for N                     (Z =   7)

read_vps: Pseudopotential generation method:
read_vps: ATM4.2.7  Troullier-Martins                       
Valence charge for ps generation:    5.00000

xc_check: Exchange-correlation functional:
xc_check: GGA Perdew, Burke & Ernzerhof 1996
V l=0 = -2*Zval/r beyond r=  1.2889
V l=1 = -2*Zval/r beyond r=  1.2889
V l=2 = -2*Zval/r beyond r=  3.4178
V l=3 = -2*Zval/r beyond r=  2.4084
All V_l potentials equal beyond r=  3.3753
This should be close to max(r_c) in ps generation
All pots = -2*Zval/r beyond r=  3.4178

VLOCAL1: 99.0% of the norm of Vloc inside      3.810 Ry
VLOCAL1: 99.9% of the norm of Vloc inside      8.683 Ry
atom: Maximum radius for 4*pi*r*r*local-pseudopot. charge    4.02088
atom: Maximum radius for r*vlocal+2*Zval:    3.54838
GHOST: No ghost state for L =  0
GHOST: No ghost state for L =  1
GHOST: No ghost state for L =  2
GHOST: No ghost state for L =  3

KBgen: Kleinman-Bylander projectors: 
   l= 0   rc=  3.417763   el= -1.365098   Ekb= -4.433130   kbcos= -0.707855
   l= 1   rc=  3.375302   el= -0.521201   Ekb=-13.264039   kbcos= -0.535594
   l= 2   rc=  3.872880   el=  0.001991   Ekb= -0.641094   kbcos= -0.062456
   l= 3   rc=  3.970931   el=  0.003093   Ekb= -0.474517   kbcos= -0.018236

KBgen: Total number of Kleinman-Bylander projectors:   16
atom: -------------------------------------------------------------------------

atom: SANKEY-TYPE ORBITALS:
atom: Selected multiple-zeta basis: split     

SPLIT: Orbitals with angular momentum L= 0

SPLIT: Basis orbitals for state 2s

SPLIT: PAO cut-off radius determined from an
SPLIT: energy shift=  0.002000 Ry

   izeta = 1
                 lambda =    1.000000
                     rc =    4.730425
                 energy =   -1.363399
                kinetic =    1.245246
    potential(screened) =   -2.608645
       potential(ionic) =   -8.121105

   izeta = 2
                 rmatch =    2.531849
              splitnorm =    0.280000
                 energy =   -0.959908
                kinetic =    2.409435
    potential(screened) =   -3.369343
       potential(ionic) =   -9.427975

SPLIT: Orbitals with angular momentum L= 1

SPLIT: Basis orbitals for state 2p

SPLIT: PAO cut-off radius determined from an
SPLIT: energy shift=  0.002000 Ry

   izeta = 1
                 lambda =    1.000000
                     rc =    5.924108
                 energy =   -0.519262
                kinetic =    3.672940
    potential(screened) =   -4.192202
       potential(ionic) =   -9.518354

   izeta = 2
                 rmatch =    2.531849
              splitnorm =    0.280000
                 energy =   -0.104258
                kinetic =    6.807538
    potential(screened) =   -6.911796
       potential(ionic) =  -13.149920

POLgen: Perturbative polarization orbital with L=  2

POLgen: Polarization orbital for state 2p

   izeta = 1
                     rc =    5.924108
                 energy =    1.427508
                kinetic =    2.872379
    potential(screened) =   -1.444871
       potential(ionic) =   -5.563644
atom: Total number of Sankey-type orbitals: 13

atm_pop: Valence configuration (for local Pseudopot. screening):
 2s( 2.00)                                                            
 2p( 3.00)                                                            
Vna: chval, zval:    5.00000   5.00000

Vna:  Cut-off radius for the neutral-atom potential:   5.924108

atom: _________________________________________________________________________

<basis_specs>
===============================================================================
Si                   Z=  14    Mass=  28.090        Charge= 0.17977+309
Lmxo=1 Lmxkb= 3    BasisType=split      Semic=F
L=0  Nsemic=0  Cnfigmx=3
          i=1  nzeta=2  polorb=0  (3s)
            splnorm:   0.28000    
               vcte:    0.0000    
               rinn:    0.0000    
               qcoe:    0.0000    
               qyuk:    0.0000    
               qwid:   0.10000E-01
                rcs:    0.0000      0.0000    
            lambdas:    1.0000      1.0000    
L=1  Nsemic=0  Cnfigmx=3
          i=1  nzeta=2  polorb=1  (3p)
            splnorm:   0.28000    
               vcte:    0.0000    
               rinn:    0.0000    
               qcoe:    0.0000    
               qyuk:    0.0000    
               qwid:   0.10000E-01
                rcs:    0.0000      0.0000    
            lambdas:    1.0000      1.0000    
-------------------------------------------------------------------------------
L=0  Nkbl=1  erefs: 0.17977+309
L=1  Nkbl=1  erefs: 0.17977+309
L=2  Nkbl=1  erefs: 0.17977+309
L=3  Nkbl=1  erefs: 0.17977+309
===============================================================================
</basis_specs>

atom: Called for Si                    (Z =  14)

read_vps: Pseudopotential generation method:
read_vps: ATM4.2.7  Troullier-Martins                       
Valence charge for ps generation:    4.00000

xc_check: Exchange-correlation functional:
xc_check: GGA Perdew, Burke & Ernzerhof 1996
V l=0 = -2*Zval/r beyond r=  2.7826
V l=1 = -2*Zval/r beyond r=  2.7826
V l=2 = -2*Zval/r beyond r=  2.9253
V l=3 = -2*Zval/r beyond r=  2.7826
All V_l potentials equal beyond r=  2.8530
This should be close to max(r_c) in ps generation
All pots = -2*Zval/r beyond r=  2.9253

VLOCAL1: 99.0% of the norm of Vloc inside      5.333 Ry
VLOCAL1: 99.9% of the norm of Vloc inside     12.154 Ry
atom: Maximum radius for 4*pi*r*r*local-pseudopot. charge    3.39869
atom: Maximum radius for r*vlocal+2*Zval:    2.96205
GHOST: No ghost state for L =  0
GHOST: No ghost state for L =  1
GHOST: No ghost state for L =  2
GHOST: No ghost state for L =  3

KBgen: Kleinman-Bylander projectors: 
   l= 0   rc=  3.075247   el= -0.794092   Ekb=  5.879390   kbcos=  0.167461
   l= 1   rc=  3.153101   el= -0.300068   Ekb=  2.642817   kbcos=  0.058301
   l= 2   rc=  3.273594   el=  0.001958   Ekb= -1.185135   kbcos= -0.104411
   l= 3   rc=  3.232927   el=  0.003046   Ekb= -0.497174   kbcos= -0.015889

KBgen: Total number of Kleinman-Bylander projectors:   16
atom: -------------------------------------------------------------------------

atom: SANKEY-TYPE ORBITALS:
atom: Selected multiple-zeta basis: split     

SPLIT: Orbitals with angular momentum L= 0

SPLIT: Basis orbitals for state 3s

SPLIT: PAO cut-off radius determined from an
SPLIT: energy shift=  0.002000 Ry

   izeta = 1
                 lambda =    1.000000
                     rc =    6.429618
                 energy =   -0.792283
                kinetic =    0.525293
    potential(screened) =   -1.317576
       potential(ionic) =   -3.744923

   izeta = 2
                 rmatch =    3.998416
              splitnorm =    0.280000
                 energy =   -0.583081
                kinetic =    1.069570
    potential(screened) =   -1.652651
       potential(ionic) =   -4.235185

SPLIT: Orbitals with angular momentum L= 1

SPLIT: Basis orbitals for state 3p

SPLIT: PAO cut-off radius determined from an
SPLIT: energy shift=  0.002000 Ry

   izeta = 1
                 lambda =    1.000000
                     rc =    8.464845
                 energy =   -0.298236
                kinetic =    0.785360
    potential(screened) =   -1.083596
       potential(ionic) =   -3.273779

   izeta = 2
                 rmatch =    4.587816
              splitnorm =    0.280000
                 energy =   -0.131871
                kinetic =    1.403687
    potential(screened) =   -1.535557
       potential(ionic) =   -4.015310

POLgen: Perturbative polarization orbital with L=  2

POLgen: Polarization orbital for state 3p

   izeta = 1
                     rc =    8.464845
                 energy =    0.321949
                kinetic =    1.055677
    potential(screened) =   -0.733728
       potential(ionic) =   -2.672950
atom: Total number of Sankey-type orbitals: 13

atm_pop: Valence configuration (for local Pseudopot. screening):
 3s( 2.00)                                                            
 3p( 2.00)                                                            
Vna: chval, zval:    4.00000   4.00000

Vna:  Cut-off radius for the neutral-atom potential:   8.464845

atom: _________________________________________________________________________

<basis_specs>
===============================================================================
O                    Z=   8    Mass=  16.000        Charge= 0.17977+309
Lmxo=1 Lmxkb= 3    BasisType=split      Semic=F
L=0  Nsemic=0  Cnfigmx=2
          i=1  nzeta=2  polorb=0  (2s)
            splnorm:   0.28000    
               vcte:    0.0000    
               rinn:    0.0000    
               qcoe:    0.0000    
               qyuk:    0.0000    
               qwid:   0.10000E-01
                rcs:    0.0000      0.0000    
            lambdas:    1.0000      1.0000    
L=1  Nsemic=0  Cnfigmx=2
          i=1  nzeta=2  polorb=1  (2p)
            splnorm:   0.28000    
               vcte:    0.0000    
               rinn:    0.0000    
               qcoe:    0.0000    
               qyuk:    0.0000    
               qwid:   0.10000E-01
                rcs:    0.0000      0.0000    
            lambdas:    1.0000      1.0000    
-------------------------------------------------------------------------------
L=0  Nkbl=1  erefs: 0.17977+309
L=1  Nkbl=1  erefs: 0.17977+309
L=2  Nkbl=1  erefs: 0.17977+309
L=3  Nkbl=1  erefs: 0.17977+309
===============================================================================
</basis_specs>

atom: Called for O                     (Z =   8)

read_vps: Pseudopotential generation method:
read_vps: ATM4.2.7  Troullier-Martins                       
Valence charge for ps generation:    6.00000

xc_check: Exchange-correlation functional:
xc_check: GGA Perdew, Burke & Ernzerhof 1996
V l=0 = -2*Zval/r beyond r=  1.1000
V l=1 = -2*Zval/r beyond r=  1.1000
V l=2 = -2*Zval/r beyond r=  2.2154
V l=3 = -2*Zval/r beyond r=  1.1000
All V_l potentials equal beyond r=  2.2154
This should be close to max(r_c) in ps generation
All pots = -2*Zval/r beyond r=  2.2154

VLOCAL1: 99.0% of the norm of Vloc inside      8.845 Ry
VLOCAL1: 99.9% of the norm of Vloc inside     20.157 Ry
atom: Maximum radius for 4*pi*r*r*local-pseudopot. charge    2.67231
atom: Maximum radius for r*vlocal+2*Zval:    2.32897
GHOST: No ghost state for L =  0
GHOST: No ghost state for L =  1
GHOST: No ghost state for L =  2
GHOST: No ghost state for L =  3

KBgen: Kleinman-Bylander projectors: 
   l= 0   rc=  2.243238   el= -1.759686   Ekb=**********   kbcos= -0.171774
   l= 1   rc=  2.328968   el= -0.663873   Ekb=-14.506792   kbcos= -0.519897
   l= 2   rc=  2.573941   el=  0.002031   Ekb= -1.137373   kbcos= -0.019581
   l= 3   rc=  2.606321   el=  0.003153   Ekb= -1.013546   kbcos= -0.003122

KBgen: Total number of Kleinman-Bylander projectors:   16
atom: -------------------------------------------------------------------------

atom: SANKEY-TYPE ORBITALS:
atom: Selected multiple-zeta basis: split     

SPLIT: Orbitals with angular momentum L= 0

SPLIT: Basis orbitals for state 2s

SPLIT: PAO cut-off radius determined from an
SPLIT: energy shift=  0.002000 Ry

   izeta = 1
                 lambda =    1.000000
                     rc =    4.243912
                 energy =   -1.758270
                kinetic =    3.286084
    potential(screened) =   -5.044353
       potential(ionic) =  -12.921184

   izeta = 2
                 rmatch =    2.187845
              splitnorm =    0.280000
                 energy =   -0.885018
                kinetic =    8.134434
    potential(screened) =   -9.019452
       potential(ionic) =  -17.710645

SPLIT: Orbitals with angular momentum L= 1

SPLIT: Basis orbitals for state 2p

SPLIT: PAO cut-off radius determined from an
SPLIT: energy shift=  0.002000 Ry

   izeta = 1
                 lambda =    1.000000
                     rc =    5.314825
                 energy =   -0.661986
                kinetic =    4.917472
    potential(screened) =   -5.579458
       potential(ionic) =  -13.236259

   izeta = 2
                 rmatch =    2.160663
              splitnorm =    0.280000
                 energy =   -0.068760
                kinetic =    9.183374
    potential(screened) =   -9.252135
       potential(ionic) =  -18.274251

POLgen: Perturbative polarization orbital with L=  2

POLgen: Polarization orbital for state 2p

   izeta = 1
                     rc =    5.314825
                 energy =    1.970580
                kinetic =    3.886128
    potential(screened) =   -1.915547
       potential(ionic) =   -7.749584
atom: Total number of Sankey-type orbitals: 13

atm_pop: Valence configuration (for local Pseudopot. screening):
 2s( 2.00)                                                            
 2p( 4.00)                                                            
Vna: chval, zval:    6.00000   6.00000

Vna:  Cut-off radius for the neutral-atom potential:   5.314825

atom: _________________________________________________________________________

prinput: Basis input ----------------------------------------------------------

PAO.BasisType split     

%block ChemicalSpeciesLabel
    1    1 H                       # Species index, atomic number, species label
    2    7 N                       # Species index, atomic number, species label
    3   14 Si                      # Species index, atomic number, species label
    4    8 O                       # Species index, atomic number, species label
%endblock ChemicalSpeciesLabel

%block PAO.Basis                 # Define Basis set
H                     1                    # Species label, number of l-shells
 n=1   0   2 P   1                   # n, l, Nzeta, Polarization, NzetaPol
   6.518      2.141   
   1.000      1.000   
N                     2                    # Species label, number of l-shells
 n=2   0   2                         # n, l, Nzeta 
   4.730      2.532   
   1.000      1.000   
 n=2   1   2 P   1                   # n, l, Nzeta, Polarization, NzetaPol
   5.924      2.532   
   1.000      1.000   
Si                    2                    # Species label, number of l-shells
 n=3   0   2                         # n, l, Nzeta 
   6.430      3.998   
   1.000      1.000   
 n=3   1   2 P   1                   # n, l, Nzeta, Polarization, NzetaPol
   8.465      4.588   
   1.000      1.000   
O                     2                    # Species label, number of l-shells
 n=2   0   2                         # n, l, Nzeta 
   4.244      2.188   
   1.000      1.000   
 n=2   1   2 P   1                   # n, l, Nzeta, Polarization, NzetaPol
   5.315      2.161   
   1.000      1.000   
%endblock PAO.Basis

prinput: ----------------------------------------------------------------------

Dumping basis to NetCDF file H.ion.nc
Dumping basis to NetCDF file N.ion.nc
Dumping basis to NetCDF file Si.ion.nc
Dumping basis to NetCDF file O.ion.nc
coor:   Atomic-coordinates input format  =     Cartesian coordinates
coor:                                          (in Angstroms)

siesta: Atomic coordinates (Bohr) and species
siesta:      2.14692   6.51225  -0.00000  1        1
siesta:      0.81185   5.01930  -0.00000  2        2
siesta:     -2.45792   5.85336   0.00000  3        3
siesta:     -2.75230   8.66903   0.00000  1        4
siesta:     -5.33658   2.90745  -0.00000  3        5
siesta:     -8.13940   3.36633  -0.00000  1        6
siesta:     -3.07195  -0.70812  -0.00000  3        7
siesta:     -4.51953  -3.60454  -0.00000  2        8
siesta:     -3.40412  -5.41341   0.00000  1        9
siesta:     -6.50681  -3.75659  -0.00000  1       10
siesta:      0.17120  -0.60386   0.00000  2       11
siesta:      2.20270   1.91012  -0.00000  3       12
siesta:      5.24265   1.87457  -0.00000  4       13
siesta:     10.61355 -14.07759   0.00000  1       14
siesta:      8.65886 -13.66658   0.00000  2       15
siesta:      6.22979 -16.04876   0.00000  3       16
siesta:      7.18318 -18.71532  -0.00000  1       17
siesta:      3.13570 -15.14356   0.00000  2       18
siesta:      3.17659 -11.72506  -0.00000  3       19
siesta:      1.03072  -8.10005   0.00000  3       20
siesta:     -1.95457  -7.45403   0.00000  4       21
siesta:      3.27352  -5.43711   0.00000  2       22
siesta:      2.28576  -3.64645  -0.00000  1       23
siesta:      6.63017  -5.24735   0.00000  3       24
siesta:      7.81751  -2.22872   0.00000  2       25
siesta:      6.69523  -0.49602   0.00000  1       26
siesta:      9.79567  -1.98858  -0.00000  1       27
siesta:      8.75489  -7.70105  -0.00000  2       28
siesta:      7.16982 -10.55666   0.00000  3       29

siesta: System type = molecule  

initatomlists: Number of atoms, orbitals, and projectors:     29   297   394

siesta: ******************** Simulation parameters ****************************
siesta:
siesta: The following are some of the parameters of the simulation.
siesta: A complete list of the parameters used, including default values,
siesta: can be found in file out.fdf
siesta:
redata: Spin configuration                          = spin-orbit
redata: Number of spin components                   = 8
redata: Time-Reversal Symmetry                      = F
redata: Spin spiral                                 = F
############################################################
This spin-orbit implementation uses a local approximation.
From 4.2 and onwards the full non-local approximation is implemented
You are strongly advised to use >=4.2 versions!
############################################################
redata: Long output                                 =   F
redata: Number of Atomic Species                    =        4
redata: Charge density info will appear in .RHO file
redata: Write Mulliken Pop.                         = NO
redata: Matel table size (NRTAB)                    =     1024
redata: Mesh Cutoff                                 =   340.0000 Ry
redata: Net charge of the system                    =     0.0000 |e|
redata: Min. number of SCF Iter                     =        1
redata: Max. number of SCF Iter                     =      200
redata: SCF mix quantity                            = Hamiltonian
redata: Mix DM or H after convergence               =   F
redata: Recompute H after scf cycle                 =   F
redata: Mix DM in first SCF step                    =   T
redata: Write Pulay info on disk                    =   F
redata: New DM Occupancy tolerance                  = 0.000000000001
redata: No kicks to SCF
redata: DM Mixing Weight for Kicks                  =     0.5000
redata: Require Harris convergence for SCF          =   F
redata: Harris energy tolerance for SCF             =     0.000100 eV
redata: Require DM convergence for SCF              =   T
redata: DM tolerance for SCF                        =     0.000008
redata: Require EDM convergence for SCF             =   F
redata: EDM tolerance for SCF                       =     0.001000 eV
redata: Require H convergence for SCF               =   T
redata: Hamiltonian tolerance for SCF               =     0.000001 eV
redata: Require (free) Energy convergence for SCF   =   F
redata: (free) Energy tolerance for SCF             =     0.000100 eV
redata: Using Saved Data (generic)                  =   F
redata: Use continuation files for DM               =   T
redata: Neglect nonoverlap interactions             =   F
redata: Method of Calculation                       = Diagonalization
redata: Electronic Temperature                      =   299.9978 K
redata: Fix the spin of the system                  =   F
redata: Dynamics option                             = Verlet MD run
redata: Initial MD time step                        =        1
redata:   Final MD time step                        =        1
redata: Length of MD time step                      =     0.5000 fs
redata: Initial Temperature of MD run               =     0.0000 K
redata: Perform a MD quench                         =   F
mix.SCF: Pulay mixing                            = Pulay
mix.SCF:    Variant                              = stable
mix.SCF:    History steps                        = 6
mix.SCF:    Linear mixing weight                 =     0.250000
mix.SCF:    Mixing weight                        =     0.250000
mix.SCF:    SVD condition                        = 0.1000E-07
mix.SCF:    Restart steps                        = 24
mix.SCF:    Restart save steps                   = 3
mix.SCF: Spin-component mixing                   all
redata: Save all siesta data in one NC              =   F
redata: ***********************************************************************

%block SCF.Mixers
  Pulay
%endblock SCF.Mixers

%block SCF.Mixer.Pulay
  # Mixing method
  method pulay
  variant stable

  # Mixing options
  weight 0.2500
  weight.linear 0.2500
  history 6
  restart 24
  restart.save 3
%endblock SCF.Mixer.Pulay

Size of DM history Fstack: 3
Total number of electrons:    98.000000
Total ionic charge:    98.000000

* ProcessorY, Blocksize:    2  24


* Orbital distribution balance (max,min):    48    24


Time-reversal symmetry not used.

siesta: k-grid: Number of k-points =     1
siesta: k-grid: Cutoff (effective) =     5.000 Ang
siesta: k-grid: Supercell and displacements
siesta: k-grid:    1   0   0      0.000
siesta: k-grid:    0   1   0      0.000
siesta: k-grid:    0   0   1      0.000

diag: Algorithm                                     = ELPA-1stage
diag: Parallel over k                               =   F
diag: Use parallel 2D distribution                  =   T
diag: Parallel block-size                           = 24
diag: Parallel distribution                         =     2 x     4
diag: Used triangular part                          = Lower
diag: Absolute tolerance                            =  0.100E-15
diag: Orthogonalization factor                      =  0.100E-05
diag: Memory factor                                 =  1.0000


ts: **************************************************************
ts: Save H and S matrices                           =    F
ts: Save DM and EDM matrices                        =    F
ts: Only save the overlap matrix S                  =    F
ts: **************************************************************

************************ Begin: TS CHECKS AND WARNINGS ************************
************************ End: TS CHECKS AND WARNINGS **************************


                     ====================================
                        Begin MD step =      1
                     ====================================

outcoor: Atomic coordinates (Ang):                          
    1.13610013    3.44613363    0.00000000   1       1  H
    0.42961340    2.65609745    0.00000000   2       2  N
   -1.30067351    3.09746136    0.00000000   3       3  Si
   -1.45645319    4.58745362    0.00000000   1       4  H
   -2.82399513    1.53855384    0.00000000   3       5  Si
   -4.30718276    1.78138420    0.00000000   1       6  H
   -1.62560427   -0.37472232    0.00000000   3       7  Si
   -2.39162973   -1.90743906    0.00000000   2       8  N
   -1.80138318   -2.86465209    0.00000000   1       9  H
   -3.44325205   -1.98789929    0.00000000   1      10  H
    0.09059579   -0.31954801    0.00000000   2      11  N
    1.16561841    1.01079083    0.00000000   3      12  Si
    2.77429173    0.99198057    0.00000000   4      13  O
    5.61644830   -7.44953905    0.00000000   1      14  H
    4.58206954   -7.23203760    0.00000000   2      15  N
    3.29666389   -8.49263600    0.00000000   3      16  Si
    3.80117524   -9.90371886    0.00000000   1      17  H
    1.65934232   -8.01362137    0.00000000   2      18  N
    1.68097912   -6.20463398    0.00000000   3      19  Si
    0.54543521   -4.28636135    0.00000000   3      20  Si
   -1.03431493   -3.94450034    0.00000000   4      21  O
    1.73226934   -2.87719605    0.00000000   2      22  N
    1.20957366   -1.92961761    0.00000000   1      23  H
    3.50853448   -2.77677601    0.00000000   3      24  Si
    4.13684451   -1.17938608    0.00000000   2      25  N
    3.54296161   -0.26248101    0.00000000   1      26  H
    5.18364407   -1.05231197    0.00000000   1      27  H
    4.63288658   -4.07521596    0.00000000   2      28  N
    3.79410501   -5.58634043    0.00000000   3      29  Si

outcell: Unit cell vectors (Ang):
       30.000000    0.000000    0.000000
        0.000000   45.000000    0.000000
        0.000000    0.000000   10.000000

outcell: Cell vector modules (Ang)   :   30.000000   45.000000   10.000000
outcell: Cell angles (23,13,12) (deg):     90.0000     90.0000     90.0000
outcell: Cell volume (Ang**3)        :  13500.0000
<dSpData1D:S at geom step 1
  <sparsity:sparsity for geom step 1
    nrows_g=297 nrows=48 sparsity=.1385 nnzs=12214, refcount: 8>
  <dData1D:(new from dSpData1D) n=12214, refcount: 1>
refcount: 1>
new_DM -- step:     1
Initializing Density Matrix...

Attempting to read DM from file... Failed...
DM filled with atomic data:
<dSpData2D:DM initialized from atoms
  <sparsity:sparsity for geom step 1
    nrows_g=297 nrows=48 sparsity=.1385 nnzs=12214, refcount: 9>
  <dData2D:DM n=12214 m=8, refcount: 1>
refcount: 1>
     spin moment: S , {S} =   56.00000   0.00000   0.00000  56.00000
No. of atoms with KB's overlaping orbs in proc 0. Max # of overlaps:      27     215

Initializing spin-orbit part of the Hamiltonian
  Adding spin-orbit effects for H 
  Adding spin-orbit effects for N 
  Adding spin-orbit effects for Si
  Adding spin-orbit effects for O 


New grid distribution:   1
           1       1:  180    1:  125    1:   15
           2       1:  180    1:  125   16:   30
           3       1:  180    1:  125   31:   45
           4       1:  180    1:  125   46:   60
           5       1:  180  126:  250    1:   15
           6       1:  180  126:  250   16:   30
           7       1:  180  126:  250   31:   45
           8       1:  180  126:  250   46:   60

InitMesh: MESH =   360 x   500 x   120 =    21600000
InitMesh: (bp) =   180 x   250 x    60 =     2700000
InitMesh: Mesh cutoff (required, used) =   340.000   341.206 Ry
ExtMesh (bp) on 0 =   288 x   225 x   123 =     7970400
New grid distribution:   2
           1      25:  180   19:  220    1:   60
           2      25:  180    1:   18    1:   60
           3       1:   24  197:  220    1:   60
           4       1:   23  237:  250    1:   60
           5       1:   24    1:  196    1:   60
           6      24:  180  221:  237    1:   60
           7      24:  180  238:  250    1:   60
           8       1:   23  221:  236    1:   60
New grid distribution:   3
           1      38:  180   20:  204    1:   60
           2      38:  180    1:   19    1:   60
           3       1:   37    1:   31    1:   60
           4       1:   35  228:  250    1:   60
           5       1:   37   32:  204    1:   60
           6      36:  180  205:  232    1:   60
           7      36:  180  233:  250    1:   60
           8       1:   35  205:  227    1:   60
Setting up quadratic distribution...
ExtMesh (bp) on 0 =   264 x   302 x   168 =    13394304
PhiOnMesh: Number of (b)points on node 0 =              1890720
PhiOnMesh: nlist on node 0 =              1790815

stepf: Fermi-Dirac step function

siesta: Program's energy decomposition (eV):
siesta: Ebs     =      -585.438726
siesta: Eions   =      3585.165840
siesta: Ena     =       381.866389
siesta: Ekin    =      3367.867153
siesta: Enl     =     -3297.621106
siesta: Eso     =        -0.003461
siesta: Edftu   =         0.000000
siesta: DEna    =       155.617510
siesta: DUscf   =        78.034092
siesta: DUext   =         0.000000
siesta: Exc     =     -1204.960074
siesta: eta*DQ  =         0.000000
siesta: Emadel  =         0.000000
siesta: Emeta   =         0.000000
siesta: Emolmec =         0.000000
siesta: Ekinion =         0.000000
siesta: Eharris =     -4026.228957
siesta: Etot    =     -4104.365337
siesta: FreeEng =     -4104.366388

        iscf     Eharris(eV)        E_KS(eV)     FreeEng(eV)     dDmax    Ef(eV) dHmax(eV)
   scf:    1    -4026.228957    -4104.365337    -4104.366388  0.954460 -4.907839 19.772546
     spin moment: S , {S} =    2.00582   0.00000  -0.00000   2.00582
timer: Routine,Calls,Time,% = IterSCF        1      21.184  21.85
   scf:    2    -4149.348528    -4138.228723    -4138.230137  0.474555 -4.118164 11.473697
     spin moment: S , {S} =    1.99278   0.00000  -0.00000   1.99278
   scf:    3    -4109.499946    -4135.248582    -4135.272087  0.439281 -4.257729 12.265639
     spin moment: S , {S} =    2.00216  -0.00000  -0.00000   2.00216
   scf:    4    -4151.524349    -4146.447542    -4146.447543  0.299621 -3.796456  5.825712
     spin moment: S , {S} =    0.00010   0.00000  -0.00000   0.00010
   scf:    5    -4147.660310    -4147.149834    -4147.149834  0.038988 -3.569461  4.470946
     spin moment: S , {S} =    0.00006  -0.00000   0.00000   0.00006
   scf:    6    -4147.948383    -4147.551319    -4147.551319  0.025612 -3.555189  2.221793
     spin moment: S , {S} =    0.00003   0.00000  -0.00000   0.00003
   scf:    7    -4147.914453    -4147.734014    -4147.734014  0.021003 -3.635493  0.876185
     spin moment: S , {S} =    0.00001  -0.00000  -0.00000   0.00001
   scf:    8    -4147.857997    -4147.794514    -4147.794514  0.012840 -3.645076  0.456634
     spin moment: S , {S} =    0.00000   0.00000  -0.00000   0.00000
   scf:    9    -4147.832235    -4147.812918    -4147.812918  0.007056 -3.648274  0.306059
     spin moment: S , {S} =    0.00000   0.00000  -0.00000   0.00000
   scf:   10    -4147.858263    -4147.832687    -4147.832687  0.015173 -3.665631  0.139384
     spin moment: S , {S} =    0.00000  -0.00000   0.00000  -0.00000
   scf:   11    -4147.836733    -4147.834584    -4147.834584  0.004965 -3.658400  0.056931
     spin moment: S , {S} =    0.00000  -0.00000   0.00000   0.00000
   scf:   12    -4147.835809    -4147.835178    -4147.835178  0.002612 -3.652835  0.032937
     spin moment: S , {S} =    0.00000  -0.00000  -0.00000   0.00000
   scf:   13    -4147.835872    -4147.835505    -4147.835505  0.002009 -3.651640  0.028389
     spin moment: S , {S} =    0.00000  -0.00000   0.00000   0.00000
   scf:   14    -4147.836255    -4147.835835    -4147.835835  0.003036 -3.650735  0.017802
     spin moment: S , {S} =    0.00000  -0.00000   0.00000   0.00000
   scf:   15    -4147.836216    -4147.835990    -4147.835990  0.002690 -3.651013  0.009605
     spin moment: S , {S} =    0.00000   0.00000   0.00000   0.00000
   scf:   16    -4147.836079    -4147.836026    -4147.836026  0.001378 -3.651156  0.005245
     spin moment: S , {S} =    0.00000   0.00000   0.00000   0.00000
   scf:   17    -4147.836045    -4147.836034    -4147.836034  0.000628 -3.651451  0.002897
     spin moment: S , {S} =    0.00000   0.00000  -0.00000  -0.00000
   scf:   18    -4147.836040    -4147.836036    -4147.836036  0.000302 -3.651533  0.001449
     spin moment: S , {S} =    0.00000   0.00000  -0.00000  -0.00000
   scf:   19    -4147.836039    -4147.836038    -4147.836038  0.000187 -3.651532  0.000760
     spin moment: S , {S} =    0.00000   0.00000   0.00000  -0.00000
   scf:   20    -4147.836038    -4147.836038    -4147.836038  0.000083 -3.651474  0.000470
     spin moment: S , {S} =    0.00000   0.00000   0.00000  -0.00000
   scf:   21    -4147.836038    -4147.836038    -4147.836038  0.000108 -3.651424  0.000267
     spin moment: S , {S} =    0.00000   0.00000   0.00000  -0.00000
   scf:   22    -4147.836038    -4147.836038    -4147.836038  0.000020 -3.651398  0.000110
     spin moment: S , {S} =    0.00000   0.00000   0.00000  -0.00000
   scf:   23    -4147.836038    -4147.836038    -4147.836038  0.000013 -3.651393  0.000056
     spin moment: S , {S} =    0.00000   0.00000   0.00000  -0.00000
   scf:   24    -4147.836038    -4147.836038    -4147.836038  0.000009 -3.651389  0.000025
     spin moment: S , {S} =    0.00000   0.00000   0.00000  -0.00000
mix: Pulay -- resetting history
   scf:   25    -4147.836038    -4147.836038    -4147.836038  0.000002 -3.651390  0.000016
     spin moment: S , {S} =    0.00000   0.00000   0.00000  -0.00000
   scf:   26    -4147.836038    -4147.836038    -4147.836038  0.000001 -3.651390  0.000011
     spin moment: S , {S} =    0.00000   0.00000   0.00000  -0.00000
   scf:   27    -4147.836038    -4147.836038    -4147.836038  0.000001 -3.651391  0.000006
     spin moment: S , {S} =    0.00000   0.00000   0.00000  -0.00000
   scf:   28    -4147.836038    -4147.836038    -4147.836038  0.000000 -3.651391  0.000003
     spin moment: S , {S} =    0.00000   0.00000   0.00000  -0.00000
   scf:   29    -4147.836038    -4147.836038    -4147.836038  0.000000 -3.651391  0.000001
     spin moment: S , {S} =    0.00000   0.00000   0.00000  -0.00000
   scf:   30    -4147.836038    -4147.836038    -4147.836038  0.000000 -3.651390  0.000001
     spin moment: S , {S} =    0.00000   0.00000   0.00000  -0.00000

SCF Convergence by DM+H criterion
max |DM_out - DM_in|         :     0.0000001473
max |H_out - H_in|      (eV) :     0.0000006371
SCF cycle converged after 30 iterations

Using DM_out to compute the final energy and forces
No. of atoms with KB's overlaping orbs in proc 0. Max # of overlaps:      27     215

siesta: E_KS(eV) =            -4147.8360

siesta: E_KS - E_eggbox =     -4147.8360
     spin moment: S , {S} =    0.00000   0.00000   0.00000  -0.00000

siesta: Atomic forces (eV/Ang):
     1    0.044026   -0.037371   -0.000000
     2    0.140631   -0.056975   -0.000000
     3   -0.097097    0.008084    0.000000
     4    0.021828    0.138546    0.000000
     5    0.058771    0.055673   -0.000000
     6    0.001591    0.075495    0.000000
     7   -0.324083   -0.179533   -0.000000
     8   -0.704200    1.305342    0.000000
     9    0.247912   -0.341127   -0.000000
    10    0.038942    0.134579   -0.000000
    11    0.203479    0.132612   -0.000000
    12   -0.242495    0.121209    0.000000
    13   -1.924948    0.046261   -0.000000
    14   -0.020802    0.006305    0.000000
    15   -0.024096   -0.005525    0.000000
    16   -0.017525   -0.003840    0.000000
    17   -0.010610    0.039792    0.000000
    18   -0.037029   -0.001561   -0.000000
    19   -0.066860   -0.011689    0.000000
    20    0.382264   -0.047645    0.000000
    21    1.229134   -4.816364   -0.000000
    22   -0.013327   -0.325474   -0.000000
    23   -0.089396    0.028071    0.000000
    24    0.115678    0.150680    0.000000
    25    0.404777   -0.820088   -0.000000
    26   -0.077109    0.190930    0.000000
    27   -0.052201   -0.166464    0.000000
    28    0.001973   -0.171756   -0.000000
    29    0.065501    0.076964    0.000000
----------------------------------------
   Tot   -0.745272   -4.474867    0.000000
----------------------------------------
   Max    4.816364
   Res    0.610331    sqrt( Sum f_i^2 / 3N )
----------------------------------------
   Max    4.816364    constrained

Stress tensor Voigt[x,y,z,yz,xz,xy] (kbar):       -0.01       -0.62       -0.04        0.00        0.00        0.44
(Free)E + p*V (eV/cell)    -4145.9388
Target enthalpy (eV/cell)    -4147.8360

siesta: Stress tensor (static) (eV/Ang**3):
        -0.000008    0.000274   -0.000000
         0.000274   -0.000389    0.000000
         0.000000    0.000000   -0.000024

siesta: Pressure (static):          0.22516166  kBar

siesta: Stress tensor (total) (eV/Ang**3):
        -0.000008    0.000274   -0.000000
         0.000274   -0.000389    0.000000
         0.000000    0.000000   -0.000024

siesta: Pressure (total):          0.22516166  kBar

siesta: Temp_ion =       0.000 K

siesta: Eigenvalues (eV):
ik =     1
  -23.0182  -23.0182  -22.7533  -22.7533  -21.3962  -21.3962  -21.0881  -21.0881  -20.7079  -20.7079
  -20.4048  -20.4048  -20.0031  -20.0031  -19.5427  -19.5427  -19.3007  -19.3007  -19.2114  -19.2114
  -14.6847  -14.6847  -13.7052  -13.7052  -13.1562  -13.1562  -12.9812  -12.9812  -12.9299  -12.9299
  -12.5932  -12.5932  -12.3880  -12.3880  -11.9852  -11.9852  -11.8077  -11.8077  -11.6384  -11.6384
  -10.8649  -10.8649  -10.6992  -10.6992  -10.4673  -10.4673  -10.1752  -10.1752  -10.0728  -10.0728
   -9.6419   -9.6419   -9.0215   -9.0215   -8.8624   -8.8624   -8.6932   -8.6932   -8.6369   -8.6369
   -8.3267   -8.3267   -8.2644   -8.2644   -8.2504   -8.2504   -7.8305   -7.8305   -7.7400   -7.7400
   -7.4728   -7.4728   -7.3143   -7.3143   -7.2432   -7.2432   -7.0783   -7.0783   -6.8497   -6.8497
   -6.6854   -6.6854   -6.5161   -6.5161   -6.3497   -6.3497   -6.3081   -6.3081   -6.1115   -6.1115
   -5.8452   -5.8452   -5.8000   -5.8000   -5.4434   -5.4434   -4.1871   -4.1871   -3.1156   -3.1156
   -2.2389   -2.2389   -2.2362   -2.2362   -2.0697   -2.0697   -1.8165   -1.8165   -1.7688   -1.7688
   -1.7207   -1.7207   -1.5341   -1.5341   -1.4865   -1.4865   -1.1566   -1.1566   -0.9837   -0.9837
   -0.8505   -0.8505   -0.4178   -0.4178   -0.3787   -0.3787   -0.1921   -0.1921    0.5558    0.5558
    0.5845    0.5845    0.6703    0.6703    0.7717    0.7717    1.1013    1.1013    1.2469    1.2469
    1.5061    1.5061    1.5435    1.5435    1.6187    1.6187    1.7231    1.7231    2.1662    2.1662
    2.3105    2.3105    2.7469    2.7469    2.8154    2.8154    2.8916    2.8916    2.9936    2.9936
    3.1394    3.1394    3.3529    3.3529    3.5411    3.5411    3.5481    3.5481    3.7351    3.7351
    3.9949    3.9949    4.1506    4.1506    4.1999    4.1999    4.3363    4.3363    4.5600    4.5600
    4.6335    4.6335    4.8853    4.8853    4.8910    4.8910    5.1735    5.1735    5.3433    5.3433
    5.4583    5.4583    5.5580    5.5580    5.8290    5.8290    6.0032    6.0032    6.0665    6.0665
    6.0885    6.0885    6.5126    6.5126    6.5528    6.5528    6.6785    6.6785    6.7651    6.7651
    7.0142    7.0142    7.1837    7.1837    7.3099    7.3099    7.3839    7.3839    7.3921    7.3921
    7.6192    7.6192    7.8475    7.8475    7.8617    7.8617    8.1644    8.1644    8.2259    8.2259
    8.3867    8.3867    8.7042    8.7042    8.7995    8.7995    8.9145    8.9145    8.9364    8.9364
    8.9808    8.9808    9.2383    9.2383    9.4448    9.4448    9.5364    9.5364    9.5756    9.5756
    9.9441    9.9441   10.0399   10.0399   10.1520   10.1520   10.2906   10.2906   10.4692   10.4692
   10.6077   10.6077   10.9266   10.9266   11.1361   11.1361   11.3947   11.3947   11.4400   11.4400
   11.5083   11.5083   11.8799   11.8799   12.5048   12.5048   12.6214   12.6214   12.6328   12.6328
   12.6613   12.6613   12.8236   12.8236   13.2626   13.2626   13.3500   13.3500   13.6702   13.6702
   13.7223   13.7223   13.9817   13.9817   14.2650   14.2650   14.3889   14.3889   14.4002   14.4002
   14.4716   14.4716   14.8884   14.8884   15.1260   15.1260   15.3174   15.3174   15.3842   15.3842
   15.6501   15.6501   16.6054   16.6054   16.8064   16.8064   16.9776   16.9776   17.1044   17.1044
   17.4390   17.4390   17.8595   17.8595   18.5959   18.5959   18.7311   18.7311   19.2422   19.2422
   19.4917   19.4917   20.3765   20.3765   20.4440   20.4440   20.6920   20.6920   20.9938   20.9938
   21.4319   21.4319   22.2551   22.2551   22.4104   22.4104   22.8983   22.8983   23.8109   23.8109
   23.9182   23.9182   24.2674   24.2674   24.3156   24.3156   25.0788   25.0788   25.4188   25.4188
   26.2491   26.2491   26.4929   26.4929   27.0770   27.0770   27.9611   27.9611   28.9490   28.9490
   29.7524   29.7524   29.9764   29.9764   30.2745   30.2745   30.5446   30.5446   30.8824   30.8824
   31.0452   31.0452   31.1300   31.1300   31.5736   31.5736   31.8221   31.8221   31.9594   31.9594
   33.6167   33.6167   33.6923   33.6923   34.0232   34.0232   34.1386   34.1386   35.1679   35.1679
   35.4171   35.4171   35.4909   35.4909   36.1115   36.1115   36.4511   36.4511   36.5293   36.5293
   37.2068   37.2068   37.6085   37.6085   37.7813   37.7813   38.2601   38.2601   38.9397   38.9397
   39.2877   39.2877   39.4214   39.4214   40.0344   40.0344   40.2508   40.2508   40.5582   40.5582
   40.8456   40.8456   40.9905   40.9905   41.8394   41.8394   42.0811   42.0811   42.3155   42.3155
   42.5935   42.5935   43.2225   43.2225   43.5313   43.5313   43.6223   43.6223   44.2646   44.2646
   44.6486   44.6486   44.6789   44.6789   44.7508   44.7508   45.3417   45.3417   45.4039   45.4039
   45.5852   45.5852   46.0960   46.0960   46.8225   46.8225   46.9894   46.9894   47.2772   47.2772
   47.9978   47.9978   48.0751   48.0751   49.8403   49.8403   50.1684   50.1684   50.3574   50.3574
   50.5853   50.5853   50.6727   50.6727   50.8668   50.8668   51.4521   51.4521   51.6833   51.6833
   52.4752   52.4752   52.7186   52.7186   53.0760   53.0760   54.3726   54.3726   54.4225   54.4225
   54.7042   54.7042   55.2232   55.2232   55.9248   55.9248   55.9822   55.9822   56.7891   56.7891
   56.7947   56.7947   57.3516   57.3516   58.5099   58.5099   58.9305   58.9305   60.3632   60.3632
   60.4797   60.4797   60.7236   60.7236   61.4471   61.4471   62.1847   62.1847   62.7912   62.7912
   63.4778   63.4778   63.7497   63.7497   63.9284   63.9284   65.4783   65.4783   66.4920   66.4920
   67.4296   67.4296   68.2867   68.2867   70.8633   70.8633   71.6813   71.6813   72.4435   72.4435
   73.4264   73.4264   73.8633   73.8633   76.2570   76.2570   76.3968   76.3968   89.7062   89.7062
   91.5723   91.5723   91.8211   91.8211   94.9450   94.9450   97.9423   97.9423   98.7203   98.7203
  102.4393  102.4393  103.7175  103.7175  105.0002  105.0002  105.8568  105.8568  108.1621  108.1621
  117.0259  117.0259  119.4466  119.4466  125.6179  125.6179  128.9547  128.9547  140.1244  140.1244
  145.9455  145.9455  148.3283  148.3283
siesta: Fermi energy =      -3.651390 eV

siesta: Program's energy decomposition (eV):
siesta: Ebs     =     -1124.096558
siesta: Eions   =      3585.165840
siesta: Ena     =       381.866389
siesta: Ekin    =      2915.661151
siesta: Enl     =     -2798.292002
siesta: Eso     =        -0.004337
siesta: Edftu   =         0.000000
siesta: DEna    =        48.239190
siesta: DUscf   =        13.679025
siesta: DUext   =         0.000000
siesta: Exc     =     -1123.819615
siesta: eta*DQ  =         0.000000
siesta: Emadel  =         0.000000
siesta: Emeta   =         0.000000
siesta: Emolmec =         0.000000
siesta: Ekinion =         0.000000
siesta: Eharris =     -4147.836038
siesta: Etot    =     -4147.836038
siesta: FreeEng =     -4147.836038

siesta: Final energy (eV):
siesta:  Band Struct. =   -1124.096558
siesta:       Kinetic =    2915.661151
siesta:       Hartree =   16242.846227
siesta:       Edftu   =       0.000000
siesta:       Eso     =      -0.004337
siesta:    Ext. field =       0.000000
siesta:   Exch.-corr. =   -1123.819615
siesta:  Ion-electron =  -35066.321093
siesta:       Ion-ion =   12883.801628
siesta:       Ekinion =       0.000000
siesta:         Total =   -4147.836038
siesta:         Fermi =      -3.651390

siesta: Atomic forces (eV/Ang):
siesta:      1    0.044026   -0.037371   -0.000000
siesta:      2    0.140631   -0.056975   -0.000000
siesta:      3   -0.097097    0.008084    0.000000
siesta:      4    0.021828    0.138546    0.000000
siesta:      5    0.058771    0.055673   -0.000000
siesta:      6    0.001591    0.075495    0.000000
siesta:      7   -0.324083   -0.179533   -0.000000
siesta:      8   -0.704200    1.305342    0.000000
siesta:      9    0.247912   -0.341127   -0.000000
siesta:     10    0.038942    0.134579   -0.000000
siesta:     11    0.203479    0.132612   -0.000000
siesta:     12   -0.242495    0.121209    0.000000
siesta:     13   -1.924948    0.046261   -0.000000
siesta:     14   -0.020802    0.006305    0.000000
siesta:     15   -0.024096   -0.005525    0.000000
siesta:     16   -0.017525   -0.003840    0.000000
siesta:     17   -0.010610    0.039792    0.000000
siesta:     18   -0.037029   -0.001561   -0.000000
siesta:     19   -0.066860   -0.011689    0.000000
siesta:     20    0.382264   -0.047645    0.000000
siesta:     21    1.229134   -4.816364   -0.000000
siesta:     22   -0.013327   -0.325474   -0.000000
siesta:     23   -0.089396    0.028071    0.000000
siesta:     24    0.115678    0.150680    0.000000
siesta:     25    0.404777   -0.820088   -0.000000
siesta:     26   -0.077109    0.190930    0.000000
siesta:     27   -0.052201   -0.166464    0.000000
siesta:     28    0.001973   -0.171756   -0.000000
siesta:     29    0.065501    0.076964    0.000000
siesta: ----------------------------------------
siesta:    Tot   -0.745272   -4.474867    0.000000

siesta: Stress tensor (static) (eV/Ang**3):
siesta:    -0.000008    0.000274   -0.000000
siesta:     0.000274   -0.000389    0.000000
siesta:     0.000000    0.000000   -0.000024

siesta: Cell volume =      13500.000000 Ang**3

siesta: Pressure (static):
siesta:                Solid            Molecule  Units
siesta:           0.00000153         -0.00000035  Ry/Bohr**3
siesta:           0.00014053         -0.00003192  eV/Ang**3
siesta:           0.22516166         -0.05114991  kBar
(Free)E+ p_basis*V_orbitals  =       -4127.985621
(Free)Eharris+ p_basis*V_orbitals  =       -4127.985621
     spin moment: S , {S} =    0.00000   0.00000   0.00000  -0.00000

siesta: Electric dipole (a.u.)  =   -0.030025    1.406947   -0.000000
siesta: Electric dipole (Debye) =   -0.076316    3.576105   -0.000000

cite: Please see "GC.bib" for an exhaustive BiBTeX file.
cite: Please clearly indicate Siesta version in published work: v4.1.5-1-g384057250
cite: This calculation has made use of the following articles
cite: which are encouraged to be cited in a published work.
        Primary SIESTA paper
          DOI: www.doi.org/10.1088/0953-8984/14/11/302
        Spin-orbit coupling (on-site approximation)
          DOI: www.doi.org/10.1088/0953-8984/19/19/489001


WARNING: alloc-realloc-dealloc name mismatch
         Name: atomlist isa
         Size:              -116. Bytes
         Node:     0
         Subsequent mismatches will not be reported
>> End of run:   1-FEB-2024  21:23:45
Job completed
