<?xml version="1.0" encoding="UTF-8" ?>
<psml version="1.1" energy_unit="hartree" length_unit="bohr"
 uuid="0b663820-3e57-11ef-7054-b4cff9df4179"
 xmlns="http://esl.cecam.org/PSML/ns/1.1">
<provenance creator="ATM4.2.7" date="10-JUL-24">
<annotation action="semilocal-pseudopotential-generation" />
<input-file name="INP">
<![CDATA[   pg   Oxygen
        tm2    2.000
   O    pbr 00000000
       0.0
    1    3
    2    0     1.000     1.000
    2    1     3.000     1.000
    3    2     0.000     0.000
   1.04810   1.02054   1.58157   0.00000   1.00000   0.00000
]]>
</input-file>
</provenance>
<pseudo-atom-spec atomic-label="O" atomic-number="8" z-pseudo="6"
 flavor="Troullier-Martins" relativity="dirac" spin-dft="no"
 core-corrections="no">
<annotation pseudo-energy="-15.7821277136" />
<exchange-correlation>
<annotation atom-xc-code="pb" siesta-xc-type="GGA" siesta-xc-authors="PBE" />
<libxc-info number-of-functionals="2">
<functional name="XC_GGA_X_PBE" type="XC_EXCHANGE" id="101" />
<functional name="XC_GGA_C_PBE" type="XC_CORRELATION" id="130" />
</libxc-info>
</exchange-correlation>
<valence-configuration total-valence-charge="6">
<shell n="2" l="s" occupation="2" />
<shell n="2" l="p" occupation="4" />
</valence-configuration>
</pseudo-atom-spec>
<grid npts="376">
<annotation type="sampled-log-atom"
 recipe="r(i:1..N) = a*(exp(b*(i-1))-1); resampled"
 recipe-cont="a: scale; b: step" scale="0.309844022083E-03"
 step="0.125000000000E-01" delta="0.500000000000E-02" rmax="20" />
<grid-data>
  0.000000000000E+00  5.046671836297E-03  1.007984357808E-02  1.518974854062E-02
  2.035251700562E-02  2.556610006306E-02  3.090250246574E-02  3.595372892337E-02
  4.129904144018E-02  4.683920017331E-02  5.245334327694E-02  5.800249612577E-02
  6.333470855386E-02  6.915451056086E-02  7.456468283430E-02  8.039622178140E-02
  8.560131582679E-02  9.114210959625E-02  9.704025386184E-02  1.033187957505E-01
  1.086319497276E-01  1.142175149343E-01  1.200894581930E-01  1.262624624205E-01
  1.327519633426E-01  1.378365207374E-01  1.431153692244E-01  1.485959330545E-01
  1.542859201736E-01  1.601933330639E-01  1.663264799983E-01  1.726939867255E-01
  1.793048086012E-01  1.861682431831E-01  1.932939433072E-01  2.006919306636E-01
  2.057803148154E-01  2.109975120253E-01  2.163467832113E-01  2.218314718422E-01
  2.274550060267E-01  2.332209006569E-01  2.391327596047E-01  2.451942779741E-01
  2.514092444117E-01  2.577815434737E-01  2.643151580545E-01  2.710141718758E-01
  2.778827720395E-01  2.849252516441E-01  2.921460124687E-01  2.995495677238E-01
  3.071405448725E-01  3.149236885227E-01  3.229038633924E-01  3.310860573507E-01
  3.394753845353E-01  3.480770885486E-01  3.568965457358E-01  3.659392685446E-01
  3.752109089712E-01  3.847172620927E-01  3.944642696891E-01  4.044580239577E-01
  4.095493769703E-01  4.147047713200E-01  4.199250125477E-01  4.252109163268E-01
  4.305633085904E-01  4.359830256606E-01  4.414709143795E-01  4.470278322406E-01
  4.526546475238E-01  4.583522394303E-01  4.641214982206E-01  4.699633253529E-01
  4.758786336247E-01  4.818683473150E-01  4.879334023287E-01  4.940747463430E-01
  5.002933389553E-01  5.065901518335E-01  5.129661688673E-01  5.194223863224E-01
  5.259598129959E-01  5.325794703740E-01  5.392823927917E-01  5.460696275941E-01
  5.529422353007E-01  5.599012897702E-01  5.669478783691E-01  5.740831021413E-01
  5.813080759799E-01  5.886239288018E-01  5.960318037239E-01  6.035328582417E-01
  6.111282644103E-01  6.188192090273E-01  6.266068938185E-01  6.344925356254E-01
  6.424773665957E-01  6.505626343754E-01  6.587496023041E-01  6.670395496121E-01
  6.754337716206E-01  6.839335799438E-01  6.925403026942E-01  7.012552846896E-01
  7.100798876637E-01  7.190154904786E-01  7.280634893406E-01  7.372252980178E-01
  7.465023480615E-01  7.558960890295E-01  7.654079887132E-01  7.750395333660E-01
  7.847922279366E-01  7.946675963031E-01  8.046671815122E-01  8.147925460192E-01
  8.250452719330E-01  8.354269612628E-01  8.459392361688E-01  8.565837392153E-01
  8.673621336275E-01  8.782761035516E-01  8.893273543174E-01  9.005176127055E-01
  9.118486272164E-01  9.233221683442E-01  9.349400288532E-01  9.467040240575E-01
  9.586159921055E-01  9.706777942663E-01  9.828913152210E-01  9.952584633573E-01
  1.007781171067E+00  1.020461395049E+00  1.033301116614E+00  1.046302341994E+00
  1.059467102657E+00  1.072797455625E+00  1.086295483792E+00  1.099963296251E+00
  1.113803028628E+00  1.127816843407E+00  1.142006930277E+00  1.156375506466E+00
  1.170924817095E+00  1.185657135523E+00  1.200574763704E+00  1.215680032548E+00
  1.230975302284E+00  1.246462962830E+00  1.262145434163E+00  1.278025166702E+00
  1.294104641687E+00  1.310386371569E+00  1.326872900401E+00  1.343566804237E+00
  1.360470691534E+00  1.377587203558E+00  1.394919014799E+00  1.412468833388E+00
  1.430239401519E+00  1.448233495881E+00  1.466453928086E+00  1.484903545115E+00
  1.503585229758E+00  1.522501901066E+00  1.541656514807E+00  1.561052063929E+00
  1.580691579025E+00  1.600578128811E+00  1.620714820599E+00  1.641104800789E+00
  1.661751255357E+00  1.682657410353E+00  1.703826532407E+00  1.725261929236E+00
  1.746966950166E+00  1.768944986650E+00  1.791199472801E+00  1.813733885927E+00
  1.836551747077E+00  1.859656621587E+00  1.883052119642E+00  1.906741896835E+00
  1.930729654743E+00  1.955019141501E+00  1.979614152392E+00  2.004518530435E+00
  2.029736166990E+00  2.055271002365E+00  2.081127026429E+00  2.107308279239E+00
  2.133818851669E+00  2.160662886049E+00  2.187844576815E+00  2.215368171161E+00
  2.243237969704E+00  2.271458327158E+00  2.300033653011E+00  2.328968412215E+00
  2.358267125886E+00  2.387934372007E+00  2.417974786145E+00  2.448393062177E+00
  2.479193953020E+00  2.510382271376E+00  2.541962890483E+00  2.573940744877E+00
  2.606320831163E+00  2.639108208795E+00  2.672308000868E+00  2.705925394917E+00
  2.739965643727E+00  2.774434066158E+00  2.809336047970E+00  2.844677042669E+00
  2.880462572357E+00  2.916698228596E+00  2.953389673281E+00  2.990542639525E+00
  3.028162932554E+00  3.066256430617E+00  3.104829085898E+00  3.143886925455E+00
  3.183436052154E+00  3.223482645627E+00  3.264032963235E+00  3.305093341048E+00
  3.346670194834E+00  3.388770021060E+00  3.431399397910E+00  3.474564986312E+00
  3.518273530975E+00  3.562531861449E+00  3.607346893188E+00  3.652725628632E+00
  3.698675158301E+00  3.745202661903E+00  3.792315409453E+00  3.840020762416E+00
  3.888326174849E+00  3.937239194571E+00  3.986767464342E+00  4.036918723054E+00
  4.087700806944E+00  4.139121650814E+00  4.191189289278E+00  4.243911858009E+00
  4.297297595016E+00  4.351354841928E+00  4.406092045301E+00  4.461517757935E+00
  4.517640640209E+00  4.574469461438E+00  4.632013101240E+00  4.690280550928E+00
  4.749280914908E+00  4.809023412107E+00  4.869517377412E+00  4.930772263128E+00
  4.992797640456E+00  5.055603200986E+00  5.119198758217E+00  5.183594249082E+00
  5.248799735508E+00  5.314825405986E+00  5.381681577160E+00  5.449378695443E+00
  5.517927338649E+00  5.587338217641E+00  5.657622178010E+00  5.728790201770E+00
  5.800853409067E+00  5.873823059925E+00  5.947710556001E+00  6.022527442365E+00
  6.098285409309E+00  6.174996294169E+00  6.252672083177E+00  6.331324913333E+00
  6.410967074301E+00  6.491611010332E+00  6.573269322204E+00  6.655954769195E+00
  6.739680271074E+00  6.824458910121E+00  6.910303933171E+00  6.997228753683E+00
  7.085246953838E+00  7.174372286659E+00  7.264618678159E+00  7.356000229521E+00
  7.448531219299E+00  7.542226105648E+00  7.637099528585E+00  7.733166312274E+00
  7.830441467347E+00  7.928940193243E+00  8.028677880591E+00  8.129670113605E+00
  8.231932672528E+00  8.335481536094E+00  8.440332884021E+00  8.546503099548E+00
  8.654008771985E+00  8.762866699314E+00  8.873093890806E+00  8.984707569685E+00
  9.097725175815E+00  9.212164368427E+00  9.328043028878E+00  9.445379263444E+00
  9.564191406150E+00  9.684498021636E+00  9.806317908054E+00  9.929670100011E+00
  1.005457387154E+01  1.018104873910E+01  1.030911446465E+01  1.043879105873E+01
  1.057009878357E+01  1.070305815625E+01  1.083768995197E+01  1.097401520720E+01
  1.111205522305E+01  1.125183156854E+01  1.139336608403E+01  1.153668088456E+01
  1.168179836336E+01  1.182874119534E+01  1.197753234061E+01  1.212819504809E+01
  1.228075285914E+01  1.243522961122E+01  1.259164944164E+01  1.275003679132E+01
  1.291041640859E+01  1.307281335312E+01  1.323725299974E+01  1.340376104248E+01
  1.357236349858E+01  1.374308671249E+01  1.391595736008E+01  1.409100245274E+01
  1.426824934161E+01  1.444772572188E+01  1.462945963710E+01  1.481347948357E+01
  1.499981401476E+01  1.518849234582E+01  1.537954395812E+01  1.557299870388E+01
  1.576888681077E+01  1.596723888673E+01  1.616808592466E+01  1.637145930733E+01
  1.657739081223E+01  1.678591261659E+01  1.699705730237E+01  1.721085786134E+01
  1.742734770027E+01  1.764656064616E+01  1.786853095147E+01  1.809329329950E+01
  1.832088280984E+01  1.855133504380E+01  1.878468601002E+01  1.902097217006E+01
  1.926023044412E+01  1.950249821678E+01  1.974781334288E+01  1.999621415340E+01
</grid-data>
</grid>
<valence-charge total-charge="6" is-unscreening-charge="yes"
 rescaled-to-z-pseudo="no">
<radfunc>
<data>
  2.772655640929E+00  2.776424306353E+00  2.787683717744E+00  2.806758352996E+00
  2.833818272317E+00  2.869040221113E+00  2.913243113403E+00  2.962606364267E+00
  3.022717175071E+00  3.093444620671E+00  3.173720636070E+00  3.261416590454E+00
  3.353338943865E+00  3.462024867593E+00  3.570679462658E+00  3.695771816884E+00
  3.814194106613E+00  3.947024100760E+00  4.095799226359E+00  4.262158779532E+00
  4.409066025570E+00  4.569249328844E+00  4.743644119779E+00  4.933190711221E+00
  5.138817115450E+00  5.304129008349E+00  5.479345644326E+00  5.664795718518E+00
  5.860771759368E+00  6.067519731770E+00  6.285227173753E+00  6.514009774038E+00
  6.753896320060E+00  7.004811979157E+00  7.266559921983E+00  7.538801359734E+00
  7.725884795882E+00  7.917218920940E+00  8.112570217034E+00  8.311662270823E+00
  8.514172655819E+00  8.719729853884E+00  8.927910268281E+00  9.138235389506E+00
  9.350169184576E+00  9.563115790288E+00  9.776417600917E+00  9.989353850713E+00
  1.020113980093E+01  1.041092664951E+01  1.061780228844E+01  1.082079303839E+01
  1.101886649204E+01  1.121093559505E+01  1.139586408692E+01  1.157247341084E+01
  1.173955118208E+01  1.189586127686E+01  1.204015556787E+01  1.217118728678E+01
  1.228772593998E+01  1.238857363967E+01  1.247258264048E+01  1.253867379329E+01
  1.256468637106E+01  1.258585554537E+01  1.260207419311E+01  1.261324303318E+01
  1.261927118998E+01  1.262007673584E+01  1.261558720710E+01  1.260574008840E+01
  1.259048326002E+01  1.256977540260E+01  1.254358635418E+01  1.251189741422E+01
  1.247470158975E+01  1.243200377902E+01  1.238382088852E+01  1.233018187958E+01
  1.227112774163E+01  1.220671138966E+01  1.213699748426E+01  1.206206217367E+01
  1.198199275807E+01  1.189688727729E+01  1.180685402443E+01  1.171201098883E+01
  1.161248523302E+01  1.150841220941E+01  1.139993502359E+01  1.128720365219E+01
  1.117037412427E+01  1.104960767597E+01  1.092506988904E+01  1.079692982434E+01
  1.066535916189E+01  1.053053135913E+01  1.039262083899E+01  1.025180221911E+01
  1.010824959298E+01  9.962135872644E+00  9.813632201819E+00  9.662907446588E+00
  9.510127769315E+00  9.355456289495E+00  9.199052833251E+00  9.041073771016E+00
  8.881671940784E+00  8.720996652097E+00  8.559193763926E+00  8.396405827727E+00
  8.232772285389E+00  8.068429710587E+00  7.903512081325E+00  7.738151071218E+00
  7.572476347354E+00  7.406615863515E+00  7.240696138906E+00  7.074842514477E+00
  6.909179381186E+00  6.743830376979E+00  6.578918551762E+00  6.414566501773E+00
  6.250896476405E+00  6.088030461197E+00  5.926090240265E+00  5.765197439324E+00
  5.605473546632E+00  5.447039903278E+00  5.290017646199E+00  5.134527577149E+00
  4.980689918621E+00  4.828623903658E+00  4.678447130891E+00  4.530274599145E+00
  4.384217317794E+00  4.240380365939E+00  4.098860379672E+00  3.959743441303E+00
  3.823105767431E+00  3.689016601327E+00  3.557538822443E+00  3.428728611887E+00
  3.302635905338E+00  3.179304377761E+00  3.058771560448E+00  2.941068970005E+00
  2.826222243319E+00  2.714251289486E+00  2.605170451882E+00  2.498988681165E+00
  2.395709717553E+00  2.295332281515E+00  2.197850271798E+00  2.103252969765E+00
  2.011525249035E+00  1.922647789461E+00  1.836597294451E+00  1.753346710747E+00
  1.672865449724E+00  1.595119609377E+00  1.520072196155E+00  1.447683345868E+00
  1.377910542917E+00  1.310708837154E+00  1.246031057711E+00  1.183828023192E+00
  1.124048747663E+00  1.066640641935E+00  1.011549709643E+00  9.587207377273E-01
  9.080974809155E-01  8.596228398890E-01  8.132390328324E-01  7.688877601290E-01
  7.265103619950E-01  6.860479688902E-01  6.474416445817E-01  6.106325217719E-01
  5.755619302415E-01  5.421715174871E-01  5.104033618668E-01  4.802000782972E-01
  4.515049165693E-01  4.242618523789E-01  3.984156711885E-01  3.739120450580E-01
  3.506976026007E-01  3.287199922388E-01  3.079279389443E-01  2.882712946663E-01
  2.697010826566E-01  2.521695359124E-01  2.356301299649E-01  2.200376102471E-01
  2.053480142792E-01  1.915186889141E-01  1.785083028857E-01  1.662768549070E-01
  1.547856775617E-01  1.439974372362E-01  1.338761303341E-01  1.243870760158E-01
  1.154969057029E-01  1.071735495817E-01  9.938622034102E-02  9.210539437029E-02
  8.530279064332E-02  7.895134750618E-02  7.302519758302E-02  6.749964100741E-02
  6.235111718107E-02  5.755717525495E-02  5.309644352084E-02  4.894859789431E-02
  4.509432966225E-02  4.151531266009E-02  3.819417003587E-02  3.511444074938E-02
  3.226054594636E-02  2.961775533852E-02  2.717215371118E-02  2.491060767151E-02
  2.282073274094E-02  2.089086088634E-02  1.911000857594E-02  1.746784543643E-02
  1.595466357986E-02  1.456134765981E-02  1.327934570867E-02  1.210064079973E-02
  1.101772357040E-02  1.002356563578E-02  9.111593914843E-03  8.275665885533E-03
  7.510045778739E-03  6.809381715973E-03  6.168683790346E-03  5.583303085923E-03
  5.048911626339E-03  4.561483239880E-03  4.117275324901E-03  3.712811496601E-03
  3.344865093705E-03  3.010443521494E-03  2.706773405951E-03  2.431286532384E-03
  2.181606540888E-03  1.955536350242E-03  1.751046281405E-03  1.566262851560E-03
  1.399458209693E-03  1.249040184902E-03  1.113542919033E-03  9.916180558084E-04
  8.820264592429E-04  7.836304349474E-04  6.953864287394E-04  6.163381778973E-04
  5.456102913306E-04  4.824022358992E-04  4.259827070906E-04  3.756843632271E-04
  3.308989033298E-04  2.910724696974E-04  2.557013571590E-04  2.243280118328E-04
  1.965373030541E-04  1.719530529362E-04  1.502348087833E-04  1.310748442988E-04
  1.141953762136E-04  9.934598361150E-05  8.630121783902E-05  7.485839147722E-05
  6.483553540258E-05  5.606951349559E-05  4.841428505819E-05  4.173930548261E-05
  3.592805617523E-05  3.087669518134E-05  2.649282038208E-05  2.269433754448E-05
  1.940842590095E-05  1.657059431608E-05  1.412382146825E-05  1.201777383011E-05
  1.020809557770E-05  8.655764892238E-06  7.326511441422E-06  6.190290139495E-06
  5.220806586496E-06  4.395089877459E-06  3.693108751874E-06  3.097427322136E-06
  2.592896877243E-06  2.166380504391E-06  1.806507506420E-06  1.503454817283E-06
  1.248752830814E-06  1.035113260174E-06  8.562768364804E-07  7.068788354846E-07
  5.823305908504E-07  4.787153118490E-07  3.926966723593E-07  3.214387772090E-07
  2.625362414298E-07  2.139532382503E-07  1.739704829819E-07  1.411392227266E-07
  1.142413964527E-07  9.225521684476E-08  7.432550484497E-08  5.973818038399E-08
  4.789837886401E-08  3.831172291596E-08  3.056833321852E-08  2.432921113468E-08
  1.931466998305E-08  1.529453129169E-08  1.207983774485E-08  9.515866073920E-09
  7.476251193956E-09  5.858057758367E-09  4.577657291710E-09  3.567288440449E-09
  2.772194911685E-09  2.148250590068E-09  1.659994355052E-09  1.279008468442E-09
  9.825842531578E-10  7.526273091149E-10  5.747618666651E-10  4.376002028736E-10
  3.321484679496E-10  2.513249024797E-10  1.895703726966E-10  1.425345017551E-10
  1.068235105090E-10  7.979827302673E-11  5.941310227514E-11  4.408746735627E-11
  3.260424407424E-11  2.402929283914E-11  1.764806618651E-11  1.291588642152E-11
  9.418971588159E-12  6.844085096014E-12  4.954958512335E-12  3.574021469378E-12
  2.568303582966E-12  1.838598592254E-12  1.311166651889E-12  9.314039007297E-13
  6.590311024769E-13  4.644508039490E-13  3.259998886461E-13  2.278855621573E-13
  1.586409201201E-13  1.099739490532E-13  7.591322956584E-14  5.217647435132E-14
  3.570572701154E-14  2.432668308249E-14  1.650005754905E-14  1.114091700342E-14
  7.487975301047E-15  5.009456461213E-15  3.335600168057E-15  2.210490558870E-15
  1.457835204871E-15  9.567682669067E-16  6.248226823868E-16  4.060049291042E-16
</data>
</radfunc>
</valence-charge>
<semilocal-potentials set="scalar_relativistic">
<slps n="2" l="s" rc="1.04630234199" flavor="Troullier-Martins">
<radfunc>
<data>
 -5.320337932486E+00 -5.432057169693E+00 -6.176779431720E+00 -6.793886205567E+00
 -7.091363441988E+00 -7.122613957226E+00 -6.993368119731E+00 -6.806408989498E+00
 -6.596094294516E+00 -6.395634212076E+00 -6.223241207567E+00 -6.084447993438E+00
 -5.977219771528E+00 -5.884000507937E+00 -5.814767932562E+00 -5.754346928012E+00
 -5.709745334592E+00 -5.669383902533E+00 -5.632246022255E+00 -5.597250692716E+00
 -5.570039080223E+00 -5.542881996376E+00 -5.515180066457E+00 -5.486341931516E+00
 -5.455804368503E+00 -5.431478231441E+00 -5.405728993378E+00 -5.378417226065E+00
 -5.349456990467E+00 -5.318829150320E+00 -5.286594801876E+00 -5.252907867055E+00
 -5.218025776860E+00 -5.182317194138E+00 -5.146265937378E+00 -5.110470686841E+00
 -5.087095299344E+00 -5.064382705893E+00 -5.042587979529E+00 -5.021984032383E+00
 -5.002860356677E+00 -4.985521892331E+00 -4.970288077841E+00 -4.957492092834E+00
 -4.947480234693E+00 -4.940611288141E+00 -4.937255647122E+00 -4.937793835186E+00
 -4.942613949830E+00 -4.952107439988E+00 -4.966662537235E+00 -4.986654640354E+00
 -5.012433061683E+00 -5.044303866131E+00 -5.082509164547E+00 -5.127204233273E+00
 -5.178435205960E+00 -5.236121630825E+00 -5.300049455511E+00 -5.369880274919E+00
 -5.445181138849E+00 -5.525475355566E+00 -5.610308885329E+00 -5.699320652298E+00
 -5.745320834511E+00 -5.792300930267E+00 -5.840263467245E+00 -5.889222271974E+00
 -5.939201326852E+00 -5.990233059622E+00 -6.042356156494E+00 -6.095613015268E+00
 -6.150046968747E+00 -6.205699410898E+00 -6.262606949690E+00 -6.320798693391E+00
 -6.380293754208E+00 -6.441099027578E+00 -6.503207279858E+00 -6.566595554139E+00
 -6.631223884785E+00 -6.697034297138E+00 -6.763950059685E+00 -6.831875151627E+00
 -6.900693908444E+00 -6.970270810945E+00 -7.040450388438E+00 -7.111057213220E+00
 -7.181895970868E+00 -7.252751598173E+00 -7.323389487663E+00 -7.393555764131E+00
 -7.462977644370E+00 -7.531363896244E+00 -7.598405417395E+00 -7.663775957213E+00
 -7.727133008315E+00 -7.788118895721E+00 -7.846362093167E+00 -7.901478796634E+00
 -7.953074785204E+00 -8.000747598727E+00 -8.044089060465E+00 -8.082688170888E+00
 -8.116134395924E+00 -8.144021369295E+00 -8.165951023862E+00 -8.181538161128E+00
 -8.190415461104E+00 -8.192238926457E+00 -8.186693745179E+00 -8.173500544760E+00
 -8.152421997916E+00 -8.123269725191E+00 -8.085911422972E+00 -8.040278126561E+00
 -7.986371496642E+00 -7.924270993425E+00 -7.854140775730E+00 -7.776236131667E+00
 -7.690909212779E+00 -7.598613803855E+00 -7.499908814759E+00 -7.395460127485E+00
 -7.286040369222E+00 -7.172526108426E+00 -7.055891882976E+00 -6.937200364146E+00
 -6.817587833447E+00 -6.698243996936E+00 -6.580384978331E+00 -6.465218114922E+00
 -6.353896905050E+00 -6.247464239023E+00 -6.146781306194E+00 -6.052440193398E+00
 -5.964656484399E+00 -5.883135954197E+00 -5.806913207967E+00 -5.734321038745E+00
 -5.663097238877E+00 -5.592751857917E+00 -5.523276262697E+00 -5.454661685518E+00
 -5.386896546366E+00 -5.319971426649E+00 -5.253876091968E+00 -5.188600627138E+00
 -5.124135122188E+00 -5.060469751883E+00 -4.997594770057E+00 -4.935500516760E+00
 -4.874177422619E+00 -4.813616012524E+00 -4.753806908542E+00 -4.694740832192E+00
 -4.636408606159E+00 -4.578801155516E+00 -4.521909508550E+00 -4.465724797222E+00
 -4.410238257348E+00 -4.355441228500E+00 -4.301325153750E+00 -4.247881579204E+00
 -4.195102153367E+00 -4.142978626466E+00 -4.091502849626E+00 -4.040666773974E+00
 -3.990462449696E+00 -3.940882025045E+00 -3.891917745304E+00 -3.843561951735E+00
 -3.795807080503E+00 -3.748645661585E+00 -3.702070317680E+00 -3.656073763108E+00
 -3.610648802715E+00 -3.565788330779E+00 -3.521485329919E+00 -3.477732870016E+00
 -3.434524107143E+00 -3.391852282493E+00 -3.349710721336E+00 -3.308092831970E+00
 -3.266992104693E+00 -3.226402110783E+00 -3.186316501493E+00 -3.146729007051E+00
 -3.107633435679E+00 -3.069023672624E+00 -3.030893679194E+00 -2.993237491812E+00
 -2.956049221082E+00 -2.919323050860E+00 -2.883053237347E+00 -2.847234108184E+00
 -2.811860061561E+00 -2.776925565341E+00 -2.742425156191E+00 -2.708353438724E+00
 -2.674705084654E+00 -2.641474831960E+00 -2.608657484059E+00 -2.576247908993E+00
 -2.544241038625E+00 -2.512631867842E+00 -2.481415453772E+00 -2.450586915007E+00
 -2.420141430841E+00 -2.390074240512E+00 -2.360380642456E+00 -2.331055993570E+00
 -2.302095708487E+00 -2.273495258853E+00 -2.245250172620E+00 -2.217356033344E+00
 -2.189808479496E+00 -2.162603203773E+00 -2.135735952430E+00 -2.109202524606E+00
 -2.082998771673E+00 -2.057120596581E+00 -2.031563953219E+00 -2.006324845778E+00
 -1.981399328129E+00 -1.956783503204E+00 -1.932473522381E+00 -1.908465584889E+00
 -1.884755937205E+00 -1.861340872472E+00 -1.838216729913E+00 -1.815379894264E+00
 -1.792826795203E+00 -1.770553906791E+00 -1.748557746923E+00 -1.726834876780E+00
 -1.705381900292E+00 -1.684195463605E+00 -1.663272254557E+00 -1.642609002157E+00
 -1.622202476077E+00 -1.602049486142E+00 -1.582146881835E+00 -1.562491551797E+00
 -1.543080423348E+00 -1.523910461999E+00 -1.504978670982E+00 -1.486282090778E+00
 -1.467817798653E+00 -1.449582908205E+00 -1.431574568906E+00 -1.413789965660E+00
 -1.396226318363E+00 -1.378880881464E+00 -1.361750943537E+00 -1.344833826858E+00
 -1.328126886986E+00 -1.311627512344E+00 -1.295333123819E+00 -1.279241174350E+00
 -1.263349148534E+00 -1.247654562233E+00 -1.232154962180E+00 -1.216847925601E+00
 -1.201731059834E+00 -1.186802001951E+00 -1.172058418394E+00 -1.157498004606E+00
 -1.143118484672E+00 -1.128917610961E+00 -1.114893163777E+00 -1.101042951010E+00
 -1.087364807792E+00 -1.073856596162E+00 -1.060516204727E+00 -1.047341548334E+00
 -1.034330567744E+00 -1.021481229310E+00 -1.008791524656E+00 -9.962594703667E-01
 -9.838831076750E-01 -9.716605021554E-01 -9.595897434224E-01 -9.476689448310E-01
 -9.358962431817E-01 -9.242697984292E-01 -9.127877933941E-01 -9.014484334793E-01
 -8.902499463886E-01 -8.791905818499E-01 -8.682686113412E-01 -8.574823278204E-01
 -8.468300454580E-01 -8.363100993738E-01 -8.259208453761E-01 -8.156606597048E-01
 -8.055279387772E-01 -7.955210989375E-01 -7.856385762085E-01 -7.758788260479E-01
 -7.662403231057E-01 -7.567215609865E-01 -7.473210520134E-01 -7.380373269955E-01
 -7.288689349979E-01 -7.198144431152E-01 -7.108724362470E-01 -7.020415168769E-01
 -6.933203048538E-01 -6.847074371758E-01 -6.762015677775E-01 -6.678013673193E-01
 -6.595055229795E-01 -6.513127382490E-01 -6.432217327284E-01 -6.352312419282E-01
 -6.273400170705E-01 -6.195468248944E-01 -6.118504474623E-01 -6.042496819702E-01
 -5.967433405592E-01 -5.893302501301E-01 -5.820092521595E-01 -5.747792025189E-01
 -5.676389712959E-01 -5.605874426175E-01 -5.536235144752E-01 -5.467460985533E-01
 -5.399541200584E-01 -5.332465175514E-01 -5.266222427813E-01 -5.200802605219E-01
 -5.136195484093E-01 -5.072390967825E-01 -5.009379085252E-01 -4.947149989101E-01
 -4.885693954450E-01 -4.825001377205E-01 -4.765062772601E-01 -4.705868773717E-01
 -4.647410130014E-01 -4.589677705885E-01 -4.532662479231E-01 -4.476355540048E-01
 -4.420748089033E-01 -4.365831436213E-01 -4.311596999579E-01 -4.258036303751E-01
 -4.205140978651E-01 -4.152902758193E-01 -4.101313478992E-01 -4.050365079086E-01
 -4.000049596679E-01 -3.950359168895E-01 -3.901286030546E-01 -3.852822512922E-01
 -3.804961042589E-01 -3.757694140210E-01 -3.711014419367E-01 -3.664914585417E-01
 -3.619387434343E-01 -3.574425851632E-01 -3.530022811163E-01 -3.486171374106E-01
 -3.442864687841E-01 -3.400095984882E-01 -3.357858581826E-01 -3.316145878299E-01
 -3.274951355935E-01 -3.234268577347E-01 -3.194091185128E-01 -3.154412900853E-01
 -3.115227524099E-01 -3.076528931477E-01 -3.038311075674E-01 -3.000567984505E-01
</data>
</radfunc>
</slps>
<slps n="2" l="p" rc="1.02046139505" flavor="Troullier-Martins">
<radfunc>
<data>
 -2.049276249247E+01 -2.060448156485E+01 -2.134920137016E+01 -2.196629725175E+01
 -2.226374446676E+01 -2.229493018334E+01 -2.216556160389E+01 -2.197841050007E+01
 -2.176778310494E+01 -2.156684291712E+01 -2.139375619663E+01 -2.125402173849E+01
 -2.114559809237E+01 -2.105068477144E+01 -2.097944885125E+01 -2.091632961590E+01
 -2.086877858942E+01 -2.082464056295E+01 -2.078266941957E+01 -2.074149204836E+01
 -2.070811733190E+01 -2.067346315721E+01 -2.063664601322E+01 -2.059673146599E+01
 -2.055274260671E+01 -2.051647346658E+01 -2.047692081157E+01 -2.043366260997E+01
 -2.038628920095E+01 -2.033441108789E+01 -2.027766622774E+01 -2.021572582765E+01
 -2.014829754803E+01 -2.007512504654E+01 -1.999598302894E+01 -1.991066741779E+01
 -1.985026337178E+01 -1.978696756218E+01 -1.972071462494E+01 -1.965143154754E+01
 -1.957903495656E+01 -1.950342855408E+01 -1.942450078529E+01 -1.934212277639E+01
 -1.925614652195E+01 -1.916640322424E+01 -1.907270159510E+01 -1.897482582628E+01
 -1.887253282292E+01 -1.876554818885E+01 -1.865356037500E+01 -1.853621239332E+01
 -1.841309061998E+01 -1.828371054747E+01 -1.814749998918E+01 -1.800378126377E+01
 -1.785175527320E+01 -1.769049194700E+01 -1.751893280364E+01 -1.733591165897E+01
 -1.714019797544E+01 -1.693056348080E+01 -1.670586683154E+01 -1.646514480965E+01
 -1.633854261731E+01 -1.620769433470E+01 -1.607256215737E+01 -1.593312984024E+01
 -1.578940253555E+01 -1.564140610545E+01 -1.548918599897E+01 -1.533280580751E+01
 -1.517234562632E+01 -1.500790035096E+01 -1.483957802869E+01 -1.466749836636E+01
 -1.449179147307E+01 -1.431259688905E+01 -1.413006292562E+01 -1.394434631729E+01
 -1.375561216627E+01 -1.356403414467E+01 -1.336979490891E+01 -1.317308667519E+01
 -1.297411190308E+01 -1.277308403535E+01 -1.257022824604E+01 -1.236578215333E+01
 -1.215999645936E+01 -1.195313548473E+01 -1.174547757068E+01 -1.153731532642E+01
 -1.132895570324E+01 -1.112071987970E+01 -1.091294294508E+01 -1.070597336934E+01
 -1.050017224930E+01 -1.029591232084E+01 -1.009357672716E+01 -9.893557532884E+00
 -9.696253972883E+00 -9.502070424288E+00 -9.311414089094E+00 -9.124692373932E+00
 -8.942309952790E+00 -8.764665497921E+00 -8.592148063960E+00 -8.425133110634E+00
 -8.263978150679E+00 -8.109018011875E+00 -7.960559706007E+00 -7.818876903414E+00
 -7.684204020303E+00 -7.556729937774E+00 -7.436591387399E+00 -7.323866059169E+00
 -7.218565514708E+00 -7.120628023092E+00 -7.029911479701E+00 -6.946186621697E+00
 -6.869130818562E+00 -6.798322794078E+00 -6.733238728982E+00 -6.673250302763E+00
 -6.617625360404E+00 -6.565532036839E+00 -6.516047340176E+00 -6.468171386101E+00
 -6.420848692393E+00 -6.372998186893E+00 -6.323553858298E+00 -6.271518294271E+00
 -6.216031695029E+00 -6.156459454923E+00 -6.092501508298E+00 -6.024328244201E+00
 -5.952747240330E+00 -5.879421945900E+00 -5.806442766826E+00 -5.734330815385E+00
 -5.663105053863E+00 -5.592758159111E+00 -5.523281349064E+00 -5.454665726412E+00
 -5.386899762618E+00 -5.319973966000E+00 -5.253878087302E+00 -5.188602184882E+00
 -5.124136329904E+00 -5.060470680878E+00 -4.997595478239E+00 -4.935501050961E+00
 -4.874177820560E+00 -4.813616304450E+00 -4.753807118592E+00 -4.694740979538E+00
 -4.636408705944E+00 -4.578801219636E+00 -4.521909546286E+00 -4.465724815767E+00
 -4.410238262233E+00 -4.355441223941E+00 -4.301325142925E+00 -4.247881564480E+00
 -4.195102136481E+00 -4.142978608668E+00 -4.091502831796E+00 -4.040666756709E+00
 -3.990462433383E+00 -3.940882009913E+00 -3.891917731471E+00 -3.843561939237E+00
 -3.795807069319E+00 -3.748645651660E+00 -3.702070308933E+00 -3.656073755446E+00
 -3.610648796040E+00 -3.565788324991E+00 -3.521485324921E+00 -3.477732865719E+00
 -3.434524103460E+00 -3.391852279348E+00 -3.349710718658E+00 -3.308092829696E+00
 -3.266992102767E+00 -3.226402109157E+00 -3.186316500123E+00 -3.146729005900E+00
 -3.107633434714E+00 -3.069023671817E+00 -3.030893678520E+00 -2.993237491251E+00
 -2.956049220615E+00 -2.919323050473E+00 -2.883053237026E+00 -2.847234107918E+00
 -2.811860061341E+00 -2.776925565160E+00 -2.742425156042E+00 -2.708353438602E+00
 -2.674705084554E+00 -2.641474831878E+00 -2.608657483991E+00 -2.576247908938E+00
 -2.544241038580E+00 -2.512631867806E+00 -2.481415453742E+00 -2.450586914983E+00
 -2.420141430821E+00 -2.390074240496E+00 -2.360380642443E+00 -2.331055993560E+00
 -2.302095708479E+00 -2.273495258846E+00 -2.245250172614E+00 -2.217356033340E+00
 -2.189808479492E+00 -2.162603203771E+00 -2.135735952428E+00 -2.109202524605E+00
 -2.082998771672E+00 -2.057120596580E+00 -2.031563953218E+00 -2.006324845777E+00
 -1.981399328129E+00 -1.956783503203E+00 -1.932473522381E+00 -1.908465584889E+00
 -1.884755937205E+00 -1.861340872472E+00 -1.838216729913E+00 -1.815379894264E+00
 -1.792826795202E+00 -1.770553906791E+00 -1.748557746923E+00 -1.726834876780E+00
 -1.705381900292E+00 -1.684195463605E+00 -1.663272254557E+00 -1.642609002157E+00
 -1.622202476077E+00 -1.602049486142E+00 -1.582146881835E+00 -1.562491551797E+00
 -1.543080423348E+00 -1.523910461999E+00 -1.504978670982E+00 -1.486282090778E+00
 -1.467817798653E+00 -1.449582908205E+00 -1.431574568906E+00 -1.413789965660E+00
 -1.396226318363E+00 -1.378880881464E+00 -1.361750943537E+00 -1.344833826858E+00