Siesta Version  : v4.1.5-1-g384057250
Architecture    : gcc
Compiler version: GNU Fortran (Ubuntu 11.4.0-1ubuntu1~22.04) 11.4.0
Compiler flags  : mpifort -O2 -fPIC -ftree-vectorize -fallow-argument-mismatch
PP flags        : -DFC_HAVE_ABORT -DMPI -DSIESTA__FLOOK -DSIESTA__METIS -DSIESTA__MUMPS -DCDF -DNCDF -DNCDF_4 -DNCDF_PARALLEL -DSIESTA__MRRR -DSIESTA__ELPA
Libraries       : libncdf.a libfdict.a  -lflookall -ldl -lnetcdff -lnetcdf -lhdf5_hl -lhdf5 -lhdf5_fortran -lz -lscalapack-openmpi -lopenblas -lmetis -lzmumps -lcmumps -ldmumps -lmumps_common -lpord -lsmumps -lesmumps -lscotch -lscotcherr -fopenmp -lelpa
PARALLEL version
NetCDF support
NetCDF-4 support
NetCDF-4 MPI-IO support
METIS ordering support
Lua support

* Running on 8 nodes in parallel
>> Start of run:   1-FEB-2024  22:05:08

                           ***********************       
                           *  WELCOME TO SIESTA  *       
                           ***********************       

reinit: Reading from standard input
reinit: Dumped input in INPUT_TMP.79528
************************** Dump of input data file ****************************
# mpirun -np 4 siesta-4.1.5 < GC.fdf > GC.out &
SystemLabel      GC
NumberOfAtoms    29
NumberOfSpecies  4
%block ChemicalSpeciesLabel
    1    1  H
    2    7  N
    3   14  Si
    4    8  O
%endblock ChemicalSpeciesLabel
############################################
# This overrides Defaults.fdf configuration
############################################
MD.TypeOfRun                Verlet # CG, Verlet
MD.Steps                    0
MaxSCFIterations            200
SCF.MustConverge            F
AtomicCoordinatesFormat NotScaledCartesianAng
%block AtomicCoordinatesAndAtomicSpecies
    0.2382214302515635 4.782446596564723 0.0  1  1  H
    -0.46826529974843645 3.9924104165647227 0.0  2  2  N
    -2.1985522097484367 4.4337743265647225 0.0  3  3  Si
    -2.3543318897484364 5.923766586564723 0.0  1  4  H
    -3.7218738297484366 2.8748668065647225 0.0  3  5  Si
    -5.205061459748437 3.1176971665647226 0.0  1  6  H
    -2.5234829697484367 0.9615906465647226 0.0  3  7  Si
    -3.2895084297484365 -0.5711260934352775 0.0  2  8  N
    -2.6992618797484367 -1.5283391234352774 0.0  1  9  H
    -4.341130749748436 -0.6515863234352774 0.0  1  10  H
    -0.8072829097484364 1.0167649565647225 0.0  2  11  N
    0.2677397102515635 2.3471037965647223 0.0  3  12  Si
    1.8764130302515634 2.328293536564723 0.0  4  13  O
    5.6164483 -7.44953905 0.0  1  14  H
    4.58206954 -7.2320376 0.0  2  15  N
    3.29666389 -8.492636 0.0  3  16  Si
    3.80117524 -9.90371886 -0.0  1  17  H
    1.65934232 -8.01362137 0.0  2  18  N
    1.68097912 -6.20463398 -0.0  3  19  Si
    0.54543521 -4.28636135 0.0  3  20  Si
    -1.03431493 -3.94450034 0.0  4  21  O
    1.73226934 -2.87719605 0.0  2  22  N
    1.20957366 -1.92961761 -0.0  1  23  H
    3.50853448 -2.77677601 0.0  3  24  Si
    4.13684451 -1.17938608 0.0  2  25  N
    3.54296161 -0.26248101 0.0  1  26  H
    5.18364407 -1.05231197 -0.0  1  27  H
    4.63288658 -4.07521596 -0.0  2  28  N
    3.79410501 -5.58634043 0.0  3  29  Si
%endblock AtomicCoordinatesAndAtomicSpecies
#############
# Unit Cell
#############
LatticeConstant 1.0 Ang
%block LatticeVectors
    30.00000    0.000000    0.000000
    0.000000    45.00000    0.000000
    0.000000    0.000000    10.00000
%endblock LatticeVectors
%include ../../../../Defaults.fdf
************************** End of input data file *****************************

reinit: -----------------------------------------------------------------------
reinit: System Name: 
reinit: -----------------------------------------------------------------------
reinit: System Label: GC
reinit: -----------------------------------------------------------------------

initatom: Reading input for the pseudopotentials and atomic orbitals ----------
Species number:   1 Atomic number:    1 Label: H
Species number:   2 Atomic number:    7 Label: N
Species number:   3 Atomic number:   14 Label: Si
Species number:   4 Atomic number:    8 Label: O

Ground state valence configuration:   1s01
Reading pseudopotential information in formatted form from H.psf

Pseudopotential generated from a relativistic atomic calculation

Valence configuration for pseudopotential generation:
1s( 1.00) rc: 0.01
2p( 0.00) rc: 0.60
3d( 0.00) rc: 1.99
4f( 0.00) rc: 2.49
Ground state valence configuration:   2s02  2p03
Reading pseudopotential information in formatted form from N.psf

Pseudopotential generated from a relativistic atomic calculation

Valence configuration for pseudopotential generation:
2s( 2.00) rc: 0.94
2p( 3.00) rc: 0.59
3d( 0.00) rc: 3.46
4f( 0.00) rc: 2.47
Ground state valence configuration:   3s02  3p02
Reading pseudopotential information in formatted form from Si.psf

Pseudopotential generated from a relativistic atomic calculation

Valence configuration for pseudopotential generation:
3s( 2.00) rc: 1.67
3p( 2.00) rc: 2.04
3d( 0.00) rc: 2.89
4f( 0.00) rc: 2.49
Ground state valence configuration:   2s02  2p04
Reading pseudopotential information in formatted form from O.psf

Pseudopotential generated from a relativistic atomic calculation

Valence configuration for pseudopotential generation:
2s( 2.00) rc: 0.45
2p( 4.00) rc: 0.92
3d( 0.00) rc: 2.24
4f( 0.00) rc: 0.25
For H, standard SIESTA heuristics set lmxkb to 2
 (one more than the basis l, including polarization orbitals).
Use PS.lmax or PS.KBprojectors blocks to override.
For N, standard SIESTA heuristics set lmxkb to 3
 (one more than the basis l, including polarization orbitals).
Use PS.lmax or PS.KBprojectors blocks to override.
For Si, standard SIESTA heuristics set lmxkb to 3
 (one more than the basis l, including polarization orbitals).
Use PS.lmax or PS.KBprojectors blocks to override.
For O, standard SIESTA heuristics set lmxkb to 3
 (one more than the basis l, including polarization orbitals).
Use PS.lmax or PS.KBprojectors blocks to override.

<basis_specs>
===============================================================================
H                    Z=   1    Mass=  1.0100        Charge= 0.17977+309
Lmxo=0 Lmxkb= 2    BasisType=split      Semic=F
L=0  Nsemic=0  Cnfigmx=1
          i=1  nzeta=2  polorb=1  (1s)
            splnorm:   0.62000    
               vcte:    0.0000    
               rinn:    0.0000    
               qcoe:    0.0000    
               qyuk:    0.0000    
               qwid:   0.10000E-01
                rcs:    0.0000      0.0000    
            lambdas:    1.0000      1.0000    
-------------------------------------------------------------------------------
L=0  Nkbl=1  erefs: 0.17977+309
L=1  Nkbl=1  erefs: 0.17977+309
L=2  Nkbl=1  erefs: 0.17977+309
===============================================================================
</basis_specs>

atom: Called for H                     (Z =   1)

read_vps: Pseudopotential generation method:
read_vps: ATM4.2.7  Troullier-Martins                       
Valence charge for ps generation:    1.00000

xc_check: Exchange-correlation functional:
xc_check: GGA Perdew, Burke & Ernzerhof 1996
V l=0 = -2*Zval/r beyond r=  0.0098
V l=1 = -2*Zval/r beyond r=  0.5817
V l=2 = -2*Zval/r beyond r=  1.9372
All V_l potentials equal beyond r=  1.9372
This should be close to max(r_c) in ps generation
All pots = -2*Zval/r beyond r=  1.9372

VLOCAL1: 99.0% of the norm of Vloc inside     11.567 Ry
VLOCAL1: 99.9% of the norm of Vloc inside     26.362 Ry
atom: Maximum radius for 4*pi*r*r*local-pseudopot. charge    2.25106
atom: Maximum radius for r*vlocal+2*Zval:    1.91306
GHOST: No ghost state for L =  0
GHOST: No ghost state for L =  1
GHOST: No ghost state for L =  2

KBgen: Kleinman-Bylander projectors: 
   l= 0   rc=  2.036604   el= -0.477180   Ekb= -6.081590   kbcos= -0.277285
   l= 1   rc=  2.195416   el=  0.001076   Ekb= -0.926943   kbcos= -0.034643
   l= 2   rc=  2.251056   el=  0.002010   Ekb= -0.130941   kbcos= -0.009788

KBgen: Total number of Kleinman-Bylander projectors:    9
atom: -------------------------------------------------------------------------

atom: SANKEY-TYPE ORBITALS:
atom: Selected multiple-zeta basis: split     

SPLIT: Orbitals with angular momentum L= 0

SPLIT: Basis orbitals for state 1s

SPLIT: PAO cut-off radius determined from an
SPLIT: energy shift=  0.002000 Ry

   izeta = 1
                 lambda =    1.000000
                     rc =    6.518340
                 energy =   -0.475305
                kinetic =    0.912139
    potential(screened) =   -1.387444
       potential(ionic) =   -1.907295

   izeta = 2
                 rmatch =    2.141150
              splitnorm =    0.620000
                 energy =    0.566467
                kinetic =    3.772856
    potential(screened) =   -3.206389
       potential(ionic) =   -3.759093

POLgen: Perturbative polarization orbital with L=  1

POLgen: Polarization orbital for state 1s

   izeta = 1
                     rc =    6.518340
                 energy =    0.533861
                kinetic =    1.121086
    potential(screened) =   -0.587225
       potential(ionic) =   -1.053027
atom: Total number of Sankey-type orbitals:  5

atm_pop: Valence configuration (for local Pseudopot. screening):
 1s( 1.00)                                                            
Vna: chval, zval:    1.00000   1.00000

Vna:  Cut-off radius for the neutral-atom potential:   6.518340

atom: _________________________________________________________________________

<basis_specs>
===============================================================================
N                    Z=   7    Mass=  14.010        Charge= 0.17977+309
Lmxo=1 Lmxkb= 3    BasisType=split      Semic=F
L=0  Nsemic=0  Cnfigmx=2
          i=1  nzeta=2  polorb=0  (2s)
            splnorm:   0.28000    
               vcte:    0.0000    
               rinn:    0.0000    
               qcoe:    0.0000    
               qyuk:    0.0000    
               qwid:   0.10000E-01
                rcs:    0.0000      0.0000    
            lambdas:    1.0000      1.0000    
L=1  Nsemic=0  Cnfigmx=2
          i=1  nzeta=2  polorb=1  (2p)
            splnorm:   0.28000    
               vcte:    0.0000    
               rinn:    0.0000    
               qcoe:    0.0000    
               qyuk:    0.0000    
               qwid:   0.10000E-01
                rcs:    0.0000      0.0000    
            lambdas:    1.0000      1.0000    
-------------------------------------------------------------------------------
L=0  Nkbl=1  erefs: 0.17977+309
L=1  Nkbl=1  erefs: 0.17977+309
L=2  Nkbl=1  erefs: 0.17977+309
L=3  Nkbl=1  erefs: 0.17977+309
===============================================================================
</basis_specs>

atom: Called for N                     (Z =   7)

read_vps: Pseudopotential generation method:
read_vps: ATM4.2.7  Troullier-Martins                       
Valence charge for ps generation:    5.00000

xc_check: Exchange-correlation functional:
xc_check: GGA Perdew, Burke & Ernzerhof 1996
V l=0 = -2*Zval/r beyond r=  1.2889
V l=1 = -2*Zval/r beyond r=  1.2889
V l=2 = -2*Zval/r beyond r=  3.4178
V l=3 = -2*Zval/r beyond r=  2.4084
All V_l potentials equal beyond r=  3.3753
This should be close to max(r_c) in ps generation
All pots = -2*Zval/r beyond r=  3.4178

VLOCAL1: 99.0% of the norm of Vloc inside      3.810 Ry
VLOCAL1: 99.9% of the norm of Vloc inside      8.683 Ry
atom: Maximum radius for 4*pi*r*r*local-pseudopot. charge    4.02088
atom: Maximum radius for r*vlocal+2*Zval:    3.54838
GHOST: No ghost state for L =  0
GHOST: No ghost state for L =  1
GHOST: No ghost state for L =  2
GHOST: No ghost state for L =  3

KBgen: Kleinman-Bylander projectors: 
   l= 0   rc=  3.417763   el= -1.365098   Ekb= -4.433130   kbcos= -0.707855
   l= 1   rc=  3.375302   el= -0.521201   Ekb=-13.264039   kbcos= -0.535594
   l= 2   rc=  3.872880   el=  0.001991   Ekb= -0.641094   kbcos= -0.062456
   l= 3   rc=  3.970931   el=  0.003093   Ekb= -0.474517   kbcos= -0.018236

KBgen: Total number of Kleinman-Bylander projectors:   16
atom: -------------------------------------------------------------------------

atom: SANKEY-TYPE ORBITALS:
atom: Selected multiple-zeta basis: split     

SPLIT: Orbitals with angular momentum L= 0

SPLIT: Basis orbitals for state 2s

SPLIT: PAO cut-off radius determined from an
SPLIT: energy shift=  0.002000 Ry

   izeta = 1
                 lambda =    1.000000
                     rc =    4.730425
                 energy =   -1.363399
                kinetic =    1.245246
    potential(screened) =   -2.608645
       potential(ionic) =   -8.121105

   izeta = 2
                 rmatch =    2.531849
              splitnorm =    0.280000
                 energy =   -0.959908
                kinetic =    2.409435
    potential(screened) =   -3.369343
       potential(ionic) =   -9.427975

SPLIT: Orbitals with angular momentum L= 1

SPLIT: Basis orbitals for state 2p

SPLIT: PAO cut-off radius determined from an
SPLIT: energy shift=  0.002000 Ry

   izeta = 1
                 lambda =    1.000000
                     rc =    5.924108
                 energy =   -0.519262
                kinetic =    3.672940
    potential(screened) =   -4.192202
       potential(ionic) =   -9.518354

   izeta = 2
                 rmatch =    2.531849
              splitnorm =    0.280000
                 energy =   -0.104258
                kinetic =    6.807538
    potential(screened) =   -6.911796
       potential(ionic) =  -13.149920

POLgen: Perturbative polarization orbital with L=  2

POLgen: Polarization orbital for state 2p

   izeta = 1
                     rc =    5.924108
                 energy =    1.427508
                kinetic =    2.872379
    potential(screened) =   -1.444871
       potential(ionic) =   -5.563644
atom: Total number of Sankey-type orbitals: 13

atm_pop: Valence configuration (for local Pseudopot. screening):
 2s( 2.00)                                                            
 2p( 3.00)                                                            
Vna: chval, zval:    5.00000   5.00000

Vna:  Cut-off radius for the neutral-atom potential:   5.924108

atom: _________________________________________________________________________

<basis_specs>
===============================================================================
Si                   Z=  14    Mass=  28.090        Charge= 0.17977+309
Lmxo=1 Lmxkb= 3    BasisType=split      Semic=F
L=0  Nsemic=0  Cnfigmx=3
          i=1  nzeta=2  polorb=0  (3s)
            splnorm:   0.28000    
               vcte:    0.0000    
               rinn:    0.0000    
               qcoe:    0.0000    
               qyuk:    0.0000    
               qwid:   0.10000E-01
                rcs:    0.0000      0.0000    
            lambdas:    1.0000      1.0000    
L=1  Nsemic=0  Cnfigmx=3
          i=1  nzeta=2  polorb=1  (3p)
            splnorm:   0.28000    
               vcte:    0.0000    
               rinn:    0.0000    
               qcoe:    0.0000    
               qyuk:    0.0000    
               qwid:   0.10000E-01
                rcs:    0.0000      0.0000    
            lambdas:    1.0000      1.0000    
-------------------------------------------------------------------------------
L=0  Nkbl=1  erefs: 0.17977+309
L=1  Nkbl=1  erefs: 0.17977+309
L=2  Nkbl=1  erefs: 0.17977+309
L=3  Nkbl=1  erefs: 0.17977+309
===============================================================================
</basis_specs>

atom: Called for Si                    (Z =  14)

read_vps: Pseudopotential generation method:
read_vps: ATM4.2.7  Troullier-Martins                       
Valence charge for ps generation:    4.00000

xc_check: Exchange-correlation functional:
xc_check: GGA Perdew, Burke & Ernzerhof 1996
V l=0 = -2*Zval/r beyond r=  2.7826
V l=1 = -2*Zval/r beyond r=  2.7826
V l=2 = -2*Zval/r beyond r=  2.9253
V l=3 = -2*Zval/r beyond r=  2.7826
All V_l potentials equal beyond r=  2.8530
This should be close to max(r_c) in ps generation
All pots = -2*Zval/r beyond r=  2.9253

VLOCAL1: 99.0% of the norm of Vloc inside      5.333 Ry
VLOCAL1: 99.9% of the norm of Vloc inside     12.154 Ry
atom: Maximum radius for 4*pi*r*r*local-pseudopot. charge    3.39869
atom: Maximum radius for r*vlocal+2*Zval:    2.96205
GHOST: No ghost state for L =  0
GHOST: No ghost state for L =  1
GHOST: No ghost state for L =  2
GHOST: No ghost state for L =  3

KBgen: Kleinman-Bylander projectors: 
   l= 0   rc=  3.075247   el= -0.794092   Ekb=  5.879390   kbcos=  0.167461
   l= 1   rc=  3.153101   el= -0.300068   Ekb=  2.642817   kbcos=  0.058301
   l= 2   rc=  3.273594   el=  0.001958   Ekb= -1.185135   kbcos= -0.104411
   l= 3   rc=  3.232927   el=  0.003046   Ekb= -0.497174   kbcos= -0.015889

KBgen: Total number of Kleinman-Bylander projectors:   16
atom: -------------------------------------------------------------------------

atom: SANKEY-TYPE ORBITALS:
atom: Selected multiple-zeta basis: split     

SPLIT: Orbitals with angular momentum L= 0

SPLIT: Basis orbitals for state 3s

SPLIT: PAO cut-off radius determined from an
SPLIT: energy shift=  0.002000 Ry

   izeta = 1
                 lambda =    1.000000
                     rc =    6.429618
                 energy =   -0.792283
                kinetic =    0.525293
    potential(screened) =   -1.317576
       potential(ionic) =   -3.744923

   izeta = 2
                 rmatch =    3.998416
              splitnorm =    0.280000
                 energy =   -0.583081
                kinetic =    1.069570
    potential(screened) =   -1.652651
       potential(ionic) =   -4.235185

SPLIT: Orbitals with angular momentum L= 1

SPLIT: Basis orbitals for state 3p

SPLIT: PAO cut-off radius determined from an
SPLIT: energy shift=  0.002000 Ry

   izeta = 1
                 lambda =    1.000000
                     rc =    8.464845
                 energy =   -0.298236
                kinetic =    0.785360
    potential(screened) =   -1.083596
       potential(ionic) =   -3.273779

   izeta = 2
                 rmatch =    4.587816
              splitnorm =    0.280000
                 energy =   -0.131871
                kinetic =    1.403687
    potential(screened) =   -1.535557
       potential(ionic) =   -4.015310

POLgen: Perturbative polarization orbital with L=  2

POLgen: Polarization orbital for state 3p

   izeta = 1
                     rc =    8.464845
                 energy =    0.321949
                kinetic =    1.055677
    potential(screened) =   -0.733728
       potential(ionic) =   -2.672950
atom: Total number of Sankey-type orbitals: 13

atm_pop: Valence configuration (for local Pseudopot. screening):
 3s( 2.00)                                                            
 3p( 2.00)                                                            
Vna: chval, zval:    4.00000   4.00000

Vna:  Cut-off radius for the neutral-atom potential:   8.464845

atom: _________________________________________________________________________

<basis_specs>
===============================================================================
O                    Z=   8    Mass=  16.000        Charge= 0.17977+309
Lmxo=1 Lmxkb= 3    BasisType=split      Semic=F
L=0  Nsemic=0  Cnfigmx=2
          i=1  nzeta=2  polorb=0  (2s)
            splnorm:   0.28000    
               vcte:    0.0000    
               rinn:    0.0000    
               qcoe:    0.0000    
               qyuk:    0.0000    
               qwid:   0.10000E-01
                rcs:    0.0000      0.0000    
            lambdas:    1.0000      1.0000    
L=1  Nsemic=0  Cnfigmx=2
          i=1  nzeta=2  polorb=1  (2p)
            splnorm:   0.28000    
               vcte:    0.0000    
               rinn:    0.0000    
               qcoe:    0.0000    
               qyuk:    0.0000    
               qwid:   0.10000E-01
                rcs:    0.0000      0.0000    
            lambdas:    1.0000      1.0000    
-------------------------------------------------------------------------------
L=0  Nkbl=1  erefs: 0.17977+309
L=1  Nkbl=1  erefs: 0.17977+309
L=2  Nkbl=1  erefs: 0.17977+309
L=3  Nkbl=1  erefs: 0.17977+309
===============================================================================
</basis_specs>

atom: Called for O                     (Z =   8)

read_vps: Pseudopotential generation method:
read_vps: ATM4.2.7  Troullier-Martins                       
Valence charge for ps generation:    6.00000

xc_check: Exchange-correlation functional:
xc_check: GGA Perdew, Burke & Ernzerhof 1996
V l=0 = -2*Zval/r beyond r=  1.1000
V l=1 = -2*Zval/r beyond r=  1.1000
V l=2 = -2*Zval/r beyond r=  2.2154
V l=3 = -2*Zval/r beyond r=  1.1000
All V_l potentials equal beyond r=  2.2154
This should be close to max(r_c) in ps generation
All pots = -2*Zval/r beyond r=  2.2154

VLOCAL1: 99.0% of the norm of Vloc inside      8.845 Ry
VLOCAL1: 99.9% of the norm of Vloc inside     20.157 Ry
atom: Maximum radius for 4*pi*r*r*local-pseudopot. charge    2.67231
atom: Maximum radius for r*vlocal+2*Zval:    2.32897
GHOST: No ghost state for L =  0
GHOST: No ghost state for L =  1
GHOST: No ghost state for L =  2
GHOST: No ghost state for L =  3

KBgen: Kleinman-Bylander projectors: 
   l= 0   rc=  2.243238   el= -1.759686   Ekb=**********   kbcos= -0.171774
   l= 1   rc=  2.328968   el= -0.663873   Ekb=-14.506792   kbcos= -0.519897
   l= 2   rc=  2.573941   el=  0.002031   Ekb= -1.137373   kbcos= -0.019581
   l= 3   rc=  2.606321   el=  0.003153   Ekb= -1.013546   kbcos= -0.003122

KBgen: Total number of Kleinman-Bylander projectors:   16
atom: -------------------------------------------------------------------------

atom: SANKEY-TYPE ORBITALS:
atom: Selected multiple-zeta basis: split     

SPLIT: Orbitals with angular momentum L= 0

SPLIT: Basis orbitals for state 2s

SPLIT: PAO cut-off radius determined from an
SPLIT: energy shift=  0.002000 Ry

   izeta = 1
                 lambda =    1.000000
                     rc =    4.243912
                 energy =   -1.758270
                kinetic =    3.286084
    potential(screened) =   -5.044353
       potential(ionic) =  -12.921184

   izeta = 2
                 rmatch =    2.187845
              splitnorm =    0.280000
                 energy =   -0.885018
                kinetic =    8.134434
    potential(screened) =   -9.019452
       potential(ionic) =  -17.710645

SPLIT: Orbitals with angular momentum L= 1

SPLIT: Basis orbitals for state 2p

SPLIT: PAO cut-off radius determined from an
SPLIT: energy shift=  0.002000 Ry

   izeta = 1
                 lambda =    1.000000
                     rc =    5.314825
                 energy =   -0.661986
                kinetic =    4.917472
    potential(screened) =   -5.579458
       potential(ionic) =  -13.236259

   izeta = 2
                 rmatch =    2.160663
              splitnorm =    0.280000
                 energy =   -0.068760
                kinetic =    9.183374
    potential(screened) =   -9.252135
       potential(ionic) =  -18.274251

POLgen: Perturbative polarization orbital with L=  2

POLgen: Polarization orbital for state 2p

   izeta = 1
                     rc =    5.314825
                 energy =    1.970580
                kinetic =    3.886128
    potential(screened) =   -1.915547
       potential(ionic) =   -7.749584
atom: Total number of Sankey-type orbitals: 13

atm_pop: Valence configuration (for local Pseudopot. screening):
 2s( 2.00)                                                            
 2p( 4.00)                                                            
Vna: chval, zval:    6.00000   6.00000

Vna:  Cut-off radius for the neutral-atom potential:   5.314825

atom: _________________________________________________________________________

prinput: Basis input ----------------------------------------------------------

PAO.BasisType split     

%block ChemicalSpeciesLabel
    1    1 H                       # Species index, atomic number, species label
    2    7 N                       # Species index, atomic number, species label
    3   14 Si                      # Species index, atomic number, species label
    4    8 O                       # Species index, atomic number, species label
%endblock ChemicalSpeciesLabel

%block PAO.Basis                 # Define Basis set
H                     1                    # Species label, number of l-shells
 n=1   0   2 P   1                   # n, l, Nzeta, Polarization, NzetaPol
   6.518      2.141   
   1.000      1.000   
N                     2                    # Species label, number of l-shells
 n=2   0   2                         # n, l, Nzeta 
   4.730      2.532   
   1.000      1.000   
 n=2   1   2 P   1                   # n, l, Nzeta, Polarization, NzetaPol
   5.924      2.532   
   1.000      1.000   
Si                    2                    # Species label, number of l-shells
 n=3   0   2                         # n, l, Nzeta 
   6.430      3.998   
   1.000      1.000   
 n=3   1   2 P   1                   # n, l, Nzeta, Polarization, NzetaPol
   8.465      4.588   
   1.000      1.000   
O                     2                    # Species label, number of l-shells
 n=2   0   2                         # n, l, Nzeta 
   4.244      2.188   
   1.000      1.000   
 n=2   1   2 P   1                   # n, l, Nzeta, Polarization, NzetaPol
   5.315      2.161   
   1.000      1.000   
%endblock PAO.Basis

prinput: ----------------------------------------------------------------------

Dumping basis to NetCDF file H.ion.nc
Dumping basis to NetCDF file N.ion.nc
Dumping basis to NetCDF file Si.ion.nc
Dumping basis to NetCDF file O.ion.nc
coor:   Atomic-coordinates input format  =     Cartesian coordinates
coor:                                          (in Angstroms)

siesta: Atomic coordinates (Bohr) and species
siesta:      0.45017   9.03752   0.00000  1        1
siesta:     -0.88489   7.54457   0.00000  2        2
siesta:     -4.15466   8.37862   0.00000  3        3
siesta:     -4.44904  11.19430   0.00000  1        4
siesta:     -7.03333   5.43271   0.00000  3        5
siesta:     -9.83614   5.89160   0.00000  1        6
siesta:     -4.76869   1.81714   0.00000  3        7
siesta:     -6.21627  -1.07927   0.00000  2        8
siesta:     -5.10087  -2.88814   0.00000  1        9
siesta:     -8.20355  -1.23132   0.00000  1       10
siesta:     -1.52554   1.92141   0.00000  2       11
siesta:      0.50595   4.43539   0.00000  3       12
siesta:      3.54591   4.39984   0.00000  4       13
siesta:     10.61355 -14.07759   0.00000  1       14
siesta:      8.65886 -13.66658   0.00000  2       15
siesta:      6.22979 -16.04876   0.00000  3       16
siesta:      7.18318 -18.71532  -0.00000  1       17
siesta:      3.13570 -15.14356   0.00000  2       18
siesta:      3.17659 -11.72506  -0.00000  3       19
siesta:      1.03072  -8.10005   0.00000  3       20
siesta:     -1.95457  -7.45403   0.00000  4       21
siesta:      3.27352  -5.43711   0.00000  2       22
siesta:      2.28576  -3.64645  -0.00000  1       23
siesta:      6.63017  -5.24735   0.00000  3       24
siesta:      7.81751  -2.22872   0.00000  2       25
siesta:      6.69523  -0.49602   0.00000  1       26
siesta:      9.79567  -1.98858  -0.00000  1       27
siesta:      8.75489  -7.70105  -0.00000  2       28
siesta:      7.16982 -10.55666   0.00000  3       29

siesta: System type = molecule  

initatomlists: Number of atoms, orbitals, and projectors:     29   297   394

siesta: ******************** Simulation parameters ****************************
siesta:
siesta: The following are some of the parameters of the simulation.
siesta: A complete list of the parameters used, including default values,
siesta: can be found in file out.fdf
siesta:
redata: Spin configuration                          = spin-orbit
redata: Number of spin components                   = 8
redata: Time-Reversal Symmetry                      = F
redata: Spin spiral                                 = F
############################################################
This spin-orbit implementation uses a local approximation.
From 4.2 and onwards the full non-local approximation is implemented
You are strongly advised to use >=4.2 versions!
############################################################
redata: Long output                                 =   F
redata: Number of Atomic Species                    =        4
redata: Charge density info will appear in .RHO file
redata: Write Mulliken Pop.                         = NO
redata: Matel table size (NRTAB)                    =     1024
redata: Mesh Cutoff                                 =   340.0000 Ry
redata: Net charge of the system                    =     0.0000 |e|
redata: Min. number of SCF Iter                     =        1
redata: Max. number of SCF Iter                     =      200
redata: SCF mix quantity                            = Hamiltonian
redata: Mix DM or H after convergence               =   F
redata: Recompute H after scf cycle                 =   F
redata: Mix DM in first SCF step                    =   T
redata: Write Pulay info on disk                    =   F
redata: New DM Occupancy tolerance                  = 0.000000000001
redata: No kicks to SCF
redata: DM Mixing Weight for Kicks                  =     0.5000
redata: Require Harris convergence for SCF          =   F
redata: Harris energy tolerance for SCF             =     0.000100 eV
redata: Require DM convergence for SCF              =   T
redata: DM tolerance for SCF                        =     0.000008
redata: Require EDM convergence for SCF             =   F
redata: EDM tolerance for SCF                       =     0.001000 eV
redata: Require H convergence for SCF               =   T
redata: Hamiltonian tolerance for SCF               =     0.000001 eV
redata: Require (free) Energy convergence for SCF   =   F
redata: (free) Energy tolerance for SCF             =     0.000100 eV
redata: Using Saved Data (generic)                  =   F
redata: Use continuation files for DM               =   T
redata: Neglect nonoverlap interactions             =   F
redata: Method of Calculation                       = Diagonalization
redata: Electronic Temperature                      =   299.9978 K
redata: Fix the spin of the system                  =   F
redata: Dynamics option                             = Verlet MD run
redata: Initial MD time step                        =        1
redata:   Final MD time step                        =        1
redata: Length of MD time step                      =     0.5000 fs
redata: Initial Temperature of MD run               =     0.0000 K
redata: Perform a MD quench                         =   F
mix.SCF: Pulay mixing                            = Pulay
mix.SCF:    Variant                              = stable
mix.SCF:    History steps                        = 6
mix.SCF:    Linear mixing weight                 =     0.250000
mix.SCF:    Mixing weight                        =     0.250000
mix.SCF:    SVD condition                        = 0.1000E-07
mix.SCF:    Restart steps                        = 24
mix.SCF:    Restart save steps                   = 3
mix.SCF: Spin-component mixing                   all
redata: Save all siesta data in one NC              =   F
redata: ***********************************************************************

%block SCF.Mixers
  Pulay
%endblock SCF.Mixers

%block SCF.Mixer.Pulay
  # Mixing method
  method pulay
  variant stable

  # Mixing options
  weight 0.2500
  weight.linear 0.2500
  history 6
  restart 24
  restart.save 3
%endblock SCF.Mixer.Pulay

Size of DM history Fstack: 3
Total number of electrons:    98.000000
Total ionic charge:    98.000000

* ProcessorY, Blocksize:    2  24


* Orbital distribution balance (max,min):    48    24


Time-reversal symmetry not used.

siesta: k-grid: Number of k-points =     1
siesta: k-grid: Cutoff (effective) =     5.000 Ang
siesta: k-grid: Supercell and displacements
siesta: k-grid:    1   0   0      0.000
siesta: k-grid:    0   1   0      0.000
siesta: k-grid:    0   0   1      0.000

diag: Algorithm                                     = ELPA-1stage
diag: Parallel over k                               =   F
diag: Use parallel 2D distribution                  =   T
diag: Parallel block-size                           = 24
diag: Parallel distribution                         =     2 x     4
diag: Used triangular part                          = Lower
diag: Absolute tolerance                            =  0.100E-15
diag: Orthogonalization factor                      =  0.100E-05
diag: Memory factor                                 =  1.0000


ts: **************************************************************
ts: Save H and S matrices                           =    F
ts: Save DM and EDM matrices                        =    F
ts: Only save the overlap matrix S                  =    F
ts: **************************************************************

************************ Begin: TS CHECKS AND WARNINGS ************************
************************ End: TS CHECKS AND WARNINGS **************************


                     ====================================
                        Begin MD step =      1
                     ====================================

outcoor: Atomic coordinates (Ang):                          
    0.23822143    4.78244660    0.00000000   1       1  H
   -0.46826530    3.99241042    0.00000000   2       2  N
   -2.19855221    4.43377433    0.00000000   3       3  Si
   -2.35433189    5.92376659    0.00000000   1       4  H
   -3.72187383    2.87486681    0.00000000   3       5  Si
   -5.20506146    3.11769717    0.00000000   1       6  H
   -2.52348297    0.96159065    0.00000000   3       7  Si
   -3.28950843   -0.57112609    0.00000000   2       8  N
   -2.69926188   -1.52833912    0.00000000   1       9  H
   -4.34113075   -0.65158632    0.00000000   1      10  H
   -0.80728291    1.01676496    0.00000000   2      11  N
    0.26773971    2.34710380    0.00000000   3      12  Si
    1.87641303    2.32829354    0.00000000   4      13  O
    5.61644830   -7.44953905    0.00000000   1      14  H
    4.58206954   -7.23203760    0.00000000   2      15  N
    3.29666389   -8.49263600    0.00000000   3      16  Si
    3.80117524   -9.90371886    0.00000000   1      17  H
    1.65934232   -8.01362137    0.00000000   2      18  N
    1.68097912   -6.20463398    0.00000000   3      19  Si
    0.54543521   -4.28636135    0.00000000   3      20  Si
   -1.03431493   -3.94450034    0.00000000   4      21  O
    1.73226934   -2.87719605    0.00000000   2      22  N
    1.20957366   -1.92961761    0.00000000   1      23  H
    3.50853448   -2.77677601    0.00000000   3      24  Si
    4.13684451   -1.17938608    0.00000000   2      25  N
    3.54296161   -0.26248101    0.00000000   1      26  H
    5.18364407   -1.05231197    0.00000000   1      27  H
    4.63288658   -4.07521596    0.00000000   2      28  N
    3.79410501   -5.58634043    0.00000000   3      29  Si

outcell: Unit cell vectors (Ang):
       30.000000    0.000000    0.000000
        0.000000   45.000000    0.000000
        0.000000    0.000000   10.000000

outcell: Cell vector modules (Ang)   :   30.000000   45.000000   10.000000
outcell: Cell angles (23,13,12) (deg):     90.0000     90.0000     90.0000
outcell: Cell volume (Ang**3)        :  13500.0000
<dSpData1D:S at geom step 1
  <sparsity:sparsity for geom step 1
    nrows_g=297 nrows=48 sparsity=.1136 nnzs=10018, refcount: 8>
  <dData1D:(new from dSpData1D) n=10018, refcount: 1>
refcount: 1>
new_DM -- step:     1
Initializing Density Matrix...

Attempting to read DM from file... Failed...
DM filled with atomic data:
<dSpData2D:DM initialized from atoms
  <sparsity:sparsity for geom step 1
    nrows_g=297 nrows=48 sparsity=.1136 nnzs=10018, refcount: 9>
  <dData2D:DM n=10018 m=8, refcount: 1>
refcount: 1>
     spin moment: S , {S} =   56.00000   0.00000   0.00000  56.00000
No. of atoms with KB's overlaping orbs in proc 0. Max # of overlaps:      27     171

Initializing spin-orbit part of the Hamiltonian
  Adding spin-orbit effects for H 
  Adding spin-orbit effects for N 
  Adding spin-orbit effects for Si
  Adding spin-orbit effects for O 


New grid distribution:   1
           1       1:  180    1:  125    1:   15
           2       1:  180    1:  125   16:   30
           3       1:  180    1:  125   31:   45
           4       1:  180    1:  125   46:   60
           5       1:  180  126:  250    1:   15
           6       1:  180  126:  250   16:   30
           7       1:  180  126:  250   31:   45
           8       1:  180  126:  250   46:   60

InitMesh: MESH =   360 x   500 x   120 =    21600000
InitMesh: (bp) =   180 x   250 x    60 =     2700000
InitMesh: Mesh cutoff (required, used) =   340.000   341.206 Ry
ExtMesh (bp) on 0 =   288 x   225 x   123 =     7970400
New grid distribution:   2
           1       1:  151   39:  211    1:   60
           2     152:  180   17:  211    1:   60
           3       1:   22  229:  250    1:   60
           4     152:  180    1:   16    1:   60
           5       1:  151    1:   38    1:   60
           6      23:  180  212:  232    1:   60
           7      23:  180  233:  250    1:   60
           8       1:   22  212:  228    1:   60
New grid distribution:   3
           1       1:  139   27:  198    1:   60
           2       1:  139    1:   26    1:   60
           3       1:   34  224:  250    1:   60
           4     140:  180    1:   22    1:   60
           5     140:  180   23:  198    1:   60
           6      35:  180  199:  231    1:   60
           7      35:  180  232:  250    1:   60
           8       1:   34  199:  223    1:   60
Setting up quadratic distribution...
ExtMesh (bp) on 0 =   259 x   273 x   168 =    11878776
PhiOnMesh: Number of (b)points on node 0 =              1567380
PhiOnMesh: nlist on node 0 =              1461616

stepf: Fermi-Dirac step function

siesta: Program's energy decomposition (eV):
siesta: Ebs     =      -590.907801
siesta: Eions   =      3585.165840
siesta: Ena     =       381.813493
siesta: Ekin    =      3365.557669
siesta: Enl     =     -3294.306129
siesta: Eso     =        -0.003418
siesta: Edftu   =         0.000000
siesta: DEna    =       153.123917
siesta: DUscf   =        80.313136
siesta: DUext   =         0.000000
siesta: Exc     =     -1203.249290
siesta: eta*DQ  =         0.000000
siesta: Emadel  =         0.000000
siesta: Emeta   =         0.000000
siesta: Emolmec =         0.000000
siesta: Ekinion =         0.000000
siesta: Eharris =     -4024.929714
siesta: Etot    =     -4101.916462
siesta: FreeEng =     -4101.917485

        iscf     Eharris(eV)        E_KS(eV)     FreeEng(eV)     dDmax    Ef(eV) dHmax(eV)
   scf:    1    -4024.929714    -4101.916462    -4101.917485  0.964309 -4.904008 21.903783
     spin moment: S , {S} =    2.00575   0.00000  -0.00000   2.00575
timer: Routine,Calls,Time,% = IterSCF        1      11.339  30.11
   scf:    2    -4147.061541    -4136.647132    -4136.648118  0.458929 -4.141009 11.825939
     spin moment: S , {S} =    1.99516  -0.00000   0.00000   1.99516
   scf:    3    -4106.599212    -4133.748937    -4133.763654  0.431988 -4.307688 12.521571
     spin moment: S , {S} =    2.02906   0.00000   0.00000   2.02906
   scf:    4    -4150.397667    -4145.510726    -4145.510726  0.317521 -3.823945  6.247692
     spin moment: S , {S} =    0.00010   0.00000   0.00000   0.00010
   scf:    5    -4146.722765    -4146.210313    -4146.210313  0.036947 -3.594584  4.272502
     spin moment: S , {S} =    0.00006  -0.00000   0.00000   0.00006
   scf:    6    -4146.932721    -4146.578020    -4146.578020  0.023738 -3.606769  2.183503
     spin moment: S , {S} =    0.00003   0.00000   0.00000   0.00003
   scf:    7    -4146.922275    -4146.746709    -4146.746709  0.021397 -3.600005  0.948020
     spin moment: S , {S} =    0.00001   0.00000   0.00000   0.00001
   scf:    8    -4146.869898    -4146.806282    -4146.806282  0.012701 -3.674670  0.540485
     spin moment: S , {S} =    0.00000   0.00000   0.00000   0.00000
   scf:    9    -4146.846039    -4146.825507    -4146.825507  0.006854 -3.630216  0.402938
     spin moment: S , {S} =    0.00000   0.00000  -0.00000   0.00000
   scf:   10    -4146.879651    -4146.846278    -4146.846278  0.021811 -3.676737  0.215528
     spin moment: S , {S} =    0.00000   0.00000  -0.00000  -0.00000
   scf:   11    -4146.849548    -4146.847923    -4146.847923  0.005106 -3.666527  0.065728
     spin moment: S , {S} =    0.00000   0.00000   0.00000  -0.00000
   scf:   12    -4146.849092    -4146.848518    -4146.848518  0.001174 -3.660295  0.026220
     spin moment: S , {S} =    0.00000  -0.00000  -0.00000   0.00000
   scf:   13    -4146.848916    -4146.848714    -4146.848714  0.001242 -3.657978  0.015887
     spin moment: S , {S} =    0.00000  -0.00000  -0.00000   0.00000
   scf:   14    -4146.848952    -4146.848826    -4146.848826  0.001163 -3.656709  0.012365
     spin moment: S , {S} =    0.00000  -0.00000  -0.00000   0.00000
   scf:   15    -4146.848947    -4146.848881    -4146.848881  0.001086 -3.656615  0.008896
     spin moment: S , {S} =    0.00000  -0.00000  -0.00000   0.00000
   scf:   16    -4146.848955    -4146.848913    -4146.848913  0.001024 -3.656549  0.005883
     spin moment: S , {S} =    0.00000  -0.00000  -0.00000   0.00000
   scf:   17    -4146.848935    -4146.848923    -4146.848923  0.000541 -3.656672  0.004358
     spin moment: S , {S} =    0.00000  -0.00000  -0.00000   0.00000
   scf:   18    -4146.848934    -4146.848928    -4146.848928  0.000406 -3.656711  0.002482
     spin moment: S , {S} =    0.00000  -0.00000  -0.00000   0.00000
   scf:   19    -4146.848933    -4146.848930    -4146.848930  0.000303 -3.656774  0.001357
     spin moment: S , {S} =    0.00000  -0.00000  -0.00000   0.00000
   scf:   20    -4146.848932    -4146.848931    -4146.848931  0.000156 -3.656775  0.000786
     spin moment: S , {S} =    0.00000  -0.00000  -0.00000   0.00000
   scf:   21    -4146.848932    -4146.848931    -4146.848931  0.000138 -3.656775  0.000288
     spin moment: S , {S} =    0.00000  -0.00000  -0.00000   0.00000
   scf:   22    -4146.848931    -4146.848931    -4146.848931  0.000054 -3.656760  0.000144
     spin moment: S , {S} =    0.00000  -0.00000  -0.00000   0.00000
   scf:   23    -4146.848931    -4146.848931    -4146.848931  0.000013 -3.656760  0.000098
     spin moment: S , {S} =    0.00000  -0.00000  -0.00000   0.00000
   scf:   24    -4146.848931    -4146.848931    -4146.848931  0.000005 -3.656759  0.000055
     spin moment: S , {S} =    0.00000  -0.00000  -0.00000   0.00000
mix: Pulay -- resetting history
   scf:   25    -4146.848931    -4146.848931    -4146.848931  0.000003 -3.656759  0.000044
     spin moment: S , {S} =    0.00000  -0.00000  -0.00000   0.00000
   scf:   26    -4146.848931    -4146.848931    -4146.848931  0.000002 -3.656758  0.000031
     spin moment: S , {S} =    0.00000  -0.00000  -0.00000   0.00000
   scf:   27    -4146.848931    -4146.848931    -4146.848931  0.000003 -3.656755  0.000020
     spin moment: S , {S} =    0.00000  -0.00000  -0.00000   0.00000
   scf:   28    -4146.848931    -4146.848931    -4146.848931  0.000002 -3.656754  0.000011
     spin moment: S , {S} =    0.00000  -0.00000  -0.00000  -0.00000
   scf:   29    -4146.848931    -4146.848931    -4146.848931  0.000001 -3.656754  0.000006
     spin moment: S , {S} =    0.00000  -0.00000  -0.00000   0.00000
   scf:   30    -4146.848931    -4146.848931    -4146.848931  0.000001 -3.656754  0.000003
     spin moment: S , {S} =    0.00000  -0.00000  -0.00000   0.00000
   scf:   31    -4146.848931    -4146.848931    -4146.848931  0.000001 -3.656754  0.000001
     spin moment: S , {S} =    0.00000  -0.00000  -0.00000   0.00000
   scf:   32    -4146.848931    -4146.848931    -4146.848931  0.000000 -3.656754  0.000001
     spin moment: S , {S} =    0.00000  -0.00000  -0.00000   0.00000

SCF Convergence by DM+H criterion
max |DM_out - DM_in|         :     0.0000001559
max |H_out - H_in|      (eV) :     0.0000007455
SCF cycle converged after 32 iterations

Using DM_out to compute the final energy and forces
No. of atoms with KB's overlaping orbs in proc 0. Max # of overlaps:      27     171

siesta: E_KS(eV) =            -4146.8489

siesta: E_KS - E_eggbox =     -4146.8489
     spin moment: S , {S} =    0.00000  -0.00000  -0.00000   0.00000

siesta: Atomic forces (eV/Ang):
     1    0.113786   -0.108514    0.000000
     2   -0.391448    0.247766   -0.000000
     3    0.331971   -0.037465    0.000000
     4   -0.018860    0.170940   -0.000000
     5   -0.168722   -0.168871   -0.000000
     6    0.024793    0.075542    0.000000
     7    0.986137    0.762800    0.000000
     8    0.827409   -2.115871   -0.000000
     9   -1.104032    1.560121   -0.000000
    10    0.167197   -0.179337    0.000000
    11   -0.763275   -0.245079   -0.000000
    12    0.922414   -0.224229    0.000000
    13   -0.217031    3.114732   -0.000000
    14   -0.016185   -0.026224    0.000000
    15    0.088641    0.026881   -0.000000
    16    0.008077   -0.016994    0.000000
    17   -0.003430    0.045629   -0.000000
    18   -0.040151    0.033461   -0.000000
    19    0.209769    0.020515    0.000000
    20   -1.102022   -0.108774    0.000000
    21    1.012561   -3.687524   -0.000000
    22    0.220396    0.641922    0.000000
    23    0.216923   -0.504670   -0.000000
    24   -0.280900   -0.713280   -0.000000
    25   -0.497097    1.408520    0.000000
    26    0.711131   -1.018714   -0.000000
    27   -0.145697    0.078913   -0.000000
    28    0.033121    0.560367    0.000000
    29   -0.247419   -0.317942    0.000000
----------------------------------------
   Tot    0.878057   -0.725378    0.000000
----------------------------------------
   Max    3.687524
   Res    0.708755    sqrt( Sum f_i^2 / 3N )
----------------------------------------
   Max    3.687524    constrained

Stress tensor Voigt[x,y,z,yz,xz,xy] (kbar):        0.57        0.28       -0.04        0.00       -0.00       -0.52
(Free)E + p*V (eV/cell)    -4149.1351
Target enthalpy (eV/cell)    -4146.8489

siesta: Stress tensor (static) (eV/Ang**3):
         0.000357   -0.000322    0.000000
        -0.000322    0.000178   -0.000000
        -0.000000    0.000000   -0.000026

siesta: Pressure (static):         -0.27132711  kBar

siesta: Stress tensor (total) (eV/Ang**3):
         0.000357   -0.000322    0.000000
        -0.000322    0.000178   -0.000000
        -0.000000    0.000000   -0.000026

siesta: Pressure (total):         -0.27132711  kBar

siesta: Temp_ion =       0.000 K

siesta: Eigenvalues (eV):
ik =     1
  -21.9414  -21.9414  -21.5990  -21.5990  -21.3994  -21.3994  -21.3242  -21.3242  -21.0773  -21.0773
  -21.0659  -21.0659  -20.5773  -20.5773  -19.5904  -19.5904  -19.3612  -19.3612  -19.1961  -19.1961
  -14.7003  -14.7003  -13.6959  -13.6959  -13.2312  -13.2312  -12.9216  -12.9216  -12.8761  -12.8761
  -12.7588  -12.7588  -12.5398  -12.5398  -12.2236  -12.2236  -12.1681  -12.1681  -11.9494  -11.9494
  -11.1570  -11.1570  -10.7469  -10.7469  -10.5677  -10.5677  -10.5061  -10.5061  -10.0465  -10.0465
   -9.5185   -9.5185   -9.0542   -9.0542   -8.6850   -8.6850   -8.6113   -8.6113   -8.5560   -8.5560
   -8.3953   -8.3953   -8.3809   -8.3809   -7.9799   -7.9799   -7.7434   -7.7434   -7.6899   -7.6899
   -7.4818   -7.4818   -7.1803   -7.1803   -7.0752   -7.0752   -6.7430   -6.7430   -6.6246   -6.6246
   -6.5001   -6.5001   -6.3343   -6.3343   -6.1138   -6.1138   -6.0054   -6.0054   -5.9638   -5.9638
   -5.9069   -5.9069   -5.5691   -5.5691   -5.4446   -5.4446   -4.1433   -4.1433   -3.1702   -3.1702
   -2.2395   -2.2395   -2.1585   -2.1585   -2.1075   -2.1075   -1.7909   -1.7909   -1.7401   -1.7401
   -1.6871   -1.6871   -1.6802   -1.6802   -1.5340   -1.5340   -1.3112   -1.3112   -0.9787   -0.9787
   -0.7737   -0.7737   -0.5977   -0.5977   -0.2272   -0.2272   -0.1686   -0.1686    0.2307    0.2307
    0.5831    0.5831    0.6471    0.6471    0.7025    0.7025    0.8939    0.8939    1.0484    1.0484
    1.1940    1.1940    1.3633    1.3633    1.4844    1.4844    1.4937    1.4937    1.6492    1.6492
    1.9133    1.9133    1.9875    1.9875    2.1945    2.1945    2.5140    2.5140    2.8773    2.8773
    2.8902    2.8902    2.9151    2.9151    3.0263    3.0263    3.3906    3.3906    3.5686    3.5686
    3.6140    3.6140    3.9645    3.9645    4.0530    4.0530    4.1555    4.1555    4.4486    4.4486
    4.5630    4.5630    4.6243    4.6243    4.6638    4.6638    4.7919    4.7919    4.9031    4.9031
    5.0563    5.0563    5.1657    5.1657    5.4173    5.4173    5.6163    5.6163    5.7664    5.7664
    5.9497    5.9497    5.9969    5.9969    6.1288    6.1288    6.2245    6.2245    6.2938    6.2938
    6.5103    6.5103    6.5351    6.5351    6.6580    6.6580    6.8329    6.8329    6.9921    6.9921
    7.1146    7.1146    7.3520    7.3520    7.6272    7.6272    7.7668    7.7668    7.9143    7.9143
    8.0476    8.0476    8.1011    8.1011    8.1496    8.1496    8.4614    8.4614    8.6149    8.6149
    8.7603    8.7603    8.9183    8.9183    9.0059    9.0059    9.0689    9.0689    9.3715    9.3715
    9.3734    9.3734    9.5413    9.5413    9.9163    9.9163   10.0190   10.0190   10.0211   10.0211
   10.2416   10.2416   10.3426   10.3426   10.6319   10.6319   10.9750   10.9750   11.1774   11.1774
   11.1813   11.1813   11.2692   11.2692   11.4831   11.4831   11.8659   11.8659   11.9091   11.9091
   12.0427   12.0427   12.1715   12.1715   12.5413   12.5413   12.5886   12.5886   12.7806   12.7806
   12.8373   12.8373   12.9740   12.9740   13.5394   13.5394   13.5600   13.5600   13.8651   13.8651
   13.9278   13.9278   14.2041   14.2041   14.5283   14.5283   14.8782   14.8782   14.9263   14.9263
   15.1782   15.1782   15.4207   15.4207   16.1736   16.1736   16.6912   16.6912   16.7601   16.7601
   17.0918   17.0918   17.5076   17.5076   17.6410   17.6410   18.5193   18.5193   18.7548   18.7548
   18.8880   18.8880   19.2601   19.2601   19.7292   19.7292   20.0757   20.0757   20.3314   20.3314
   21.1551   21.1551   21.4971   21.4971   22.1534   22.1534   22.2228   22.2228   22.6804   22.6804
   23.0069   23.0069   23.6666   23.6666   23.9087   23.9087   24.0369   24.0369   24.2158   24.2158
   25.1236   25.1236   25.5331   25.5331   26.2443   26.2443   27.0053   27.0053   27.7988   27.7988
   28.8230   28.8230   29.1126   29.1126   29.1842   29.1842   29.6817   29.6817   30.0679   30.0679
   30.2877   30.2877   30.3903   30.3903   30.7983   30.7983   31.0879   31.0879   31.1669   31.1669
   31.2211   31.2211   31.5705   31.5705   31.8256   31.8256   32.3157   32.3157   32.5740   32.5740
   33.7201   33.7201   34.2014   34.2014   34.5203   34.5203   34.6180   34.6180   34.8123   34.8123
   35.1727   35.1727   35.3206   35.3206   35.6788   35.6788   35.7435   35.7435   36.1128   36.1128
   37.1226   37.1226   37.6828   37.6828   37.8030   37.8030   37.8217   37.8217   38.3287   38.3287
   38.6144   38.6144   39.2595   39.2595   39.5358   39.5358   39.8005   39.8005   40.4779   40.4779
   40.6273   40.6273   40.6390   40.6390   40.9151   40.9151   41.0369   41.0369   41.4743   41.4743
   42.3807   42.3807   42.8433   42.8433   43.0114   43.0114   43.3751   43.3751   43.6641   43.6641
   43.8348   43.8348   44.4100   44.4100   44.5514   44.5514   44.7322   44.7322   44.8299   44.8299
   44.9801   44.9801   45.4286   45.4286   45.6011   45.6011   46.3015   46.3015   46.5347   46.5347
   47.1745   47.1745   47.5547   47.5547   47.6604   47.6604   48.9887   48.9887   49.7323   49.7323
   50.0601   50.0601   50.4435   50.4435   50.6680   50.6680   51.0465   51.0465   51.3819   51.3819
   51.4952   51.4952   52.4583   52.4583   53.1667   53.1667   53.8936   53.8936   54.5751   54.5751
   54.8125   54.8125   55.0859   55.0859   55.6670   55.6670   55.8789   55.8789   56.5905   56.5905
   56.6039   56.6039   57.0023   57.0023   57.0919   57.0919   58.8152   58.8152   59.7531   59.7531
   60.0964   60.0964   60.6802   60.6802   60.8169   60.8169   61.3489   61.3489   62.0191   62.0191
   62.4925   62.4925   62.5931   62.5931   63.2040   63.2040   64.9922   64.9922   66.7646   66.7646
   67.0923   67.0923   67.5933   67.5933   68.2387   68.2387   69.4471   69.4471   71.0528   71.0528
   74.1749   74.1749   82.5869   82.5869   91.6157   91.6157   92.2306   92.2306   93.5767   93.5767
   98.6494   98.6494   99.3457   99.3457  100.6831  100.6831  103.5259  103.5259  104.3989  104.3989
  110.9163  110.9163  113.0843  113.0843  124.3519  124.3519  126.5621  126.5621  130.5375  130.5375
  135.9907  135.9907  138.9993  138.9993
siesta: Fermi energy =      -3.656754 eV

siesta: Program's energy decomposition (eV):
siesta: Ebs     =     -1121.842660
siesta: Eions   =      3585.165840
siesta: Ena     =       381.813493
siesta: Ekin    =      2902.685832
siesta: Enl     =     -2787.726610
siesta: Eso     =        -0.004276
siesta: Edftu   =         0.000000
siesta: DEna    =        47.095207
siesta: DUscf   =        14.151717
siesta: DUext   =         0.000000
siesta: Exc     =     -1119.698455
siesta: eta*DQ  =         0.000000
siesta: Emadel  =         0.000000
siesta: Emeta   =         0.000000
siesta: Emolmec =         0.000000
siesta: Ekinion =         0.000000
siesta: Eharris =     -4146.848931
siesta: Etot    =     -4146.848931
siesta: FreeEng =     -4146.848931

siesta: Final energy (eV):
siesta:  Band Struct. =   -1121.842660
siesta:       Kinetic =    2902.685832
siesta:       Hartree =   14680.073873
siesta:       Edftu   =       0.000000
siesta:       Eso     =      -0.004276
siesta:    Ext. field =       0.000000
siesta:   Exch.-corr. =   -1119.698455
siesta:  Ion-electron =  -31931.199177
siesta:       Ion-ion =   11321.293271
siesta:       Ekinion =       0.000000
siesta:         Total =   -4146.848931
siesta:         Fermi =      -3.656754

siesta: Atomic forces (eV/Ang):
siesta:      1    0.113786   -0.108514    0.000000
siesta:      2   -0.391448    0.247766   -0.000000
siesta:      3    0.331971   -0.037465    0.000000
siesta:      4   -0.018860    0.170940   -0.000000
siesta:      5   -0.168722   -0.168871   -0.000000
siesta:      6    0.024793    0.075542    0.000000
siesta:      7    0.986137    0.762800    0.000000
siesta:      8    0.827409   -2.115871   -0.000000
siesta:      9   -1.104032    1.560121   -0.000000
siesta:     10    0.167197   -0.179337    0.000000
siesta:     11   -0.763275   -0.245079   -0.000000
siesta:     12    0.922414   -0.224229    0.000000
siesta:     13   -0.217031    3.114732   -0.000000
siesta:     14   -0.016185   -0.026224    0.000000
siesta:     15    0.088641    0.026881   -0.000000
siesta:     16    0.008077   -0.016994    0.000000
siesta:     17   -0.003430    0.045629   -0.000000
siesta:     18   -0.040151    0.033461   -0.000000
siesta:     19    0.209769    0.020515    0.000000
siesta:     20   -1.102022   -0.108774    0.000000
siesta:     21    1.012561   -3.687524   -0.000000
siesta:     22    0.220396    0.641922    0.000000
siesta:     23    0.216923   -0.504670   -0.000000
siesta:     24   -0.280900   -0.713280   -0.000000
siesta:     25   -0.497097    1.408520    0.000000
siesta:     26    0.711131   -1.018714   -0.000000
siesta:     27   -0.145697    0.078913   -0.000000
siesta:     28    0.033121    0.560367    0.000000
siesta:     29   -0.247419   -0.317942    0.000000
siesta: ----------------------------------------
siesta:    Tot    0.878057   -0.725378    0.000000

siesta: Stress tensor (static) (eV/Ang**3):
siesta:     0.000357   -0.000322    0.000000
siesta:    -0.000322    0.000178   -0.000000
siesta:    -0.000000    0.000000   -0.000026

siesta: Cell volume =      13500.000000 Ang**3

siesta: Pressure (static):
siesta:                Solid            Molecule  Units
siesta:          -0.00000184         -0.00000558  Ry/Bohr**3
siesta:          -0.00016935         -0.00051204  eV/Ang**3
siesta:          -0.27132711         -0.82039108  kBar
(Free)E+ p_basis*V_orbitals  =       -4126.998514
(Free)Eharris+ p_basis*V_orbitals  =       -4126.998514
     spin moment: S , {S} =    0.00000  -0.00000  -0.00000   0.00000

siesta: Electric dipole (a.u.)  =   -0.024729    1.514572   -0.000000
siesta: Electric dipole (Debye) =   -0.062856    3.849661   -0.000000

cite: Please see "GC.bib" for an exhaustive BiBTeX file.
cite: Please clearly indicate Siesta version in published work: v4.1.5-1-g384057250
cite: This calculation has made use of the following articles
cite: which are encouraged to be cited in a published work.
        Primary SIESTA paper
          DOI: www.doi.org/10.1088/0953-8984/14/11/302
        Spin-orbit coupling (on-site approximation)
          DOI: www.doi.org/10.1088/0953-8984/19/19/489001


WARNING: alloc-realloc-dealloc name mismatch
         Name: atomlist isa
         Size:              -116. Bytes
         Node:     0
         Subsequent mismatches will not be reported
>> End of run:   1-FEB-2024  22:08:58
Job completed
