Siesta Version  : v4.1.5-1-g384057250
Architecture    : gcc
Compiler version: GNU Fortran (Debian 10.2.1-6) 10.2.1 20210110
Compiler flags  : mpifort -O2 -fPIC -ftree-vectorize -fallow-argument-mismatch
PP flags        : -DFC_HAVE_ABORT -DMPI -DSIESTA__FLOOK -DSIESTA__METIS -DSIESTA__MUMPS -DCDF -DNCDF -DNCDF_4 -DNCDF_PARALLEL -DSIESTA__MRRR -DSIESTA__ELPA
Libraries       : libncdf.a libfdict.a  -lflookall -ldl -lnetcdff -lnetcdf -lhdf5_hl -lhdf5 -lhdf5_fortran -lz -lscalapack-openmpi -lopenblas -lmetis -lzmumps -lcmumps -ldmumps -lmumps_common -lpord -lsmumps -lesmumps -lscotch -lscotcherr -fopenmp -lelpa
PARALLEL version
NetCDF support
NetCDF-4 support
NetCDF-4 MPI-IO support
METIS ordering support
Lua support

* Running on 6 nodes in parallel
>> Start of run:  16-OCT-2023  18:06:25

                           ***********************       
                           *  WELCOME TO SIESTA  *       
                           ***********************       

reinit: Reading from standard input
reinit: Dumped input in INPUT_TMP.41258
************************** Dump of input data file ****************************
# mpirun -np 4 siesta-4.1.5 < GC.fdf > GC.out &
SystemLabel      GC
NumberOfAtoms    29
NumberOfSpecies  4
%block ChemicalSpeciesLabel
    1    1  H
    2    7  N
    3   14  Si
    4    8  O
%endblock ChemicalSpeciesLabel
############################################
# This overrides Defaults.fdf configuration
############################################
MD.TypeOfRun                CG # CG, Verlet
MD.Steps                    0
MaxSCFIterations            600
AtomicCoordinatesFormat NotScaledCartesianAng
%block AtomicCoordinatesAndAtomicSpecies
    1.4310268701007527 3.0071941271788045 -0.0  1  1  H
    0.7245401401007527 2.217157947178804 -0.0  2  2  N
    -1.0057467698992473 2.658521857178804 0.0  3  3  Si
    -1.1615264498992472 4.148514117178804 0.0  1  4  H
    -2.529068389899247 1.099614337178804 -0.0  3  5  Si
    -4.012256019899247 1.3424446971788042 -0.0  1  6  H
    -1.3306775298992473 -0.8136618228211958 -0.0  3  7  Si
    -2.096702989899247 -2.346378562821196 -0.0  2  8  N
    -1.5064564398992473 -3.3035915928211956 0.0  1  9  H
    -3.148325309899247 -2.426838792821196 -0.0  1  10  H
    0.38552253010075277 -0.7584875128211959 0.0  2  11  N
    1.4605451501007527 0.5718513271788042 -0.0  3  12  Si
    3.0692184701007528 0.5530410671788042 -0.0  4  13  O
    5.6164483 -7.44953905 0.0  1  14  H
    4.58206954 -7.2320376 0.0  2  15  N
    3.29666389 -8.492636 0.0  3  16  Si
    3.80117524 -9.90371886 -0.0  1  17  H
    1.65934232 -8.01362137 0.0  2  18  N
    1.68097912 -6.20463398 -0.0  3  19  Si
    0.54543521 -4.28636135 0.0  3  20  Si
    -1.03431493 -3.94450034 0.0  4  21  O
    1.73226934 -2.87719605 0.0  2  22  N
    1.20957366 -1.92961761 -0.0  1  23  H
    3.50853448 -2.77677601 0.0  3  24  Si
    4.13684451 -1.17938608 0.0  2  25  N
    3.54296161 -0.26248101 0.0  1  26  H
    5.18364407 -1.05231197 -0.0  1  27  H
    4.63288658 -4.07521596 -0.0  2  28  N
    3.79410501 -5.58634043 0.0  3  29  Si
%endblock AtomicCoordinatesAndAtomicSpecies
%include ../../../../Defaults.fdf
************************** End of input data file *****************************

reinit: -----------------------------------------------------------------------
reinit: System Name: 
reinit: -----------------------------------------------------------------------
reinit: System Label: GC
reinit: -----------------------------------------------------------------------

initatom: Reading input for the pseudopotentials and atomic orbitals ----------
Species number:   1 Atomic number:    1 Label: H
Species number:   2 Atomic number:    7 Label: N
Species number:   3 Atomic number:   14 Label: Si
Species number:   4 Atomic number:    8 Label: O

Ground state valence configuration:   1s01
Reading pseudopotential information in formatted form from H.psf

Pseudopotential generated from a relativistic atomic calculation

Valence configuration for pseudopotential generation:
1s( 1.00) rc: 0.01
2p( 0.00) rc: 0.60
3d( 0.00) rc: 1.99
4f( 0.00) rc: 2.49
Ground state valence configuration:   2s02  2p03
Reading pseudopotential information in formatted form from N.psf

Pseudopotential generated from a relativistic atomic calculation

Valence configuration for pseudopotential generation:
2s( 2.00) rc: 0.94
2p( 3.00) rc: 0.59
3d( 0.00) rc: 3.46
4f( 0.00) rc: 2.47
Ground state valence configuration:   3s02  3p02
Reading pseudopotential information in formatted form from Si.psf

Pseudopotential generated from a relativistic atomic calculation

Valence configuration for pseudopotential generation:
3s( 2.00) rc: 1.67
3p( 2.00) rc: 2.04
3d( 0.00) rc: 2.89
4f( 0.00) rc: 2.49
Ground state valence configuration:   2s02  2p04
Reading pseudopotential information in formatted form from O.psf

Pseudopotential generated from a relativistic atomic calculation

Valence configuration for pseudopotential generation:
2s( 2.00) rc: 0.45
2p( 4.00) rc: 0.92
3d( 0.00) rc: 2.24
4f( 0.00) rc: 0.25
For H, standard SIESTA heuristics set lmxkb to 2
 (one more than the basis l, including polarization orbitals).
Use PS.lmax or PS.KBprojectors blocks to override.
For N, standard SIESTA heuristics set lmxkb to 3
 (one more than the basis l, including polarization orbitals).
Use PS.lmax or PS.KBprojectors blocks to override.
For Si, standard SIESTA heuristics set lmxkb to 3
 (one more than the basis l, including polarization orbitals).
Use PS.lmax or PS.KBprojectors blocks to override.
For O, standard SIESTA heuristics set lmxkb to 3
 (one more than the basis l, including polarization orbitals).
Use PS.lmax or PS.KBprojectors blocks to override.

<basis_specs>
===============================================================================
H                    Z=   1    Mass=  1.0100        Charge= 0.17977+309
Lmxo=0 Lmxkb= 2    BasisType=split      Semic=F
L=0  Nsemic=0  Cnfigmx=1
          i=1  nzeta=2  polorb=1  (1s)
            splnorm:   0.62000    
               vcte:    0.0000    
               rinn:    0.0000    
               qcoe:    0.0000    
               qyuk:    0.0000    
               qwid:   0.10000E-01
                rcs:    0.0000      0.0000    
            lambdas:    1.0000      1.0000    
-------------------------------------------------------------------------------
L=0  Nkbl=1  erefs: 0.17977+309
L=1  Nkbl=1  erefs: 0.17977+309
L=2  Nkbl=1  erefs: 0.17977+309
===============================================================================
</basis_specs>

atom: Called for H                     (Z =   1)

read_vps: Pseudopotential generation method:
read_vps: ATM4.2.7  Troullier-Martins                       
Valence charge for ps generation:    1.00000

xc_check: Exchange-correlation functional:
xc_check: GGA Perdew, Burke & Ernzerhof 1996
V l=0 = -2*Zval/r beyond r=  0.0098
V l=1 = -2*Zval/r beyond r=  0.5817
V l=2 = -2*Zval/r beyond r=  1.9372
All V_l potentials equal beyond r=  1.9372
This should be close to max(r_c) in ps generation
All pots = -2*Zval/r beyond r=  1.9372

VLOCAL1: 99.0% of the norm of Vloc inside     11.567 Ry
VLOCAL1: 99.9% of the norm of Vloc inside     26.362 Ry
atom: Maximum radius for 4*pi*r*r*local-pseudopot. charge    2.25106
atom: Maximum radius for r*vlocal+2*Zval:    1.91306
GHOST: No ghost state for L =  0
GHOST: No ghost state for L =  1
GHOST: No ghost state for L =  2

KBgen: Kleinman-Bylander projectors: 
   l= 0   rc=  2.036604   el= -0.477180   Ekb= -6.081590   kbcos= -0.277285
   l= 1   rc=  2.195416   el=  0.001076   Ekb= -0.926943   kbcos= -0.034643
   l= 2   rc=  2.251056   el=  0.002010   Ekb= -0.130941   kbcos= -0.009788

KBgen: Total number of Kleinman-Bylander projectors:    9
atom: -------------------------------------------------------------------------

atom: SANKEY-TYPE ORBITALS:
atom: Selected multiple-zeta basis: split     

SPLIT: Orbitals with angular momentum L= 0

SPLIT: Basis orbitals for state 1s

SPLIT: PAO cut-off radius determined from an
SPLIT: energy shift=  0.002000 Ry

   izeta = 1
                 lambda =    1.000000
                     rc =    6.518340
                 energy =   -0.475305
                kinetic =    0.912139
    potential(screened) =   -1.387444
       potential(ionic) =   -1.907295

   izeta = 2
                 rmatch =    2.141150
              splitnorm =    0.620000
                 energy =    0.566467
                kinetic =    3.772856
    potential(screened) =   -3.206389
       potential(ionic) =   -3.759093

POLgen: Perturbative polarization orbital with L=  1

POLgen: Polarization orbital for state 1s

   izeta = 1
                     rc =    6.518340
                 energy =    0.533861
                kinetic =    1.121086
    potential(screened) =   -0.587225
       potential(ionic) =   -1.053027
atom: Total number of Sankey-type orbitals:  5

atm_pop: Valence configuration (for local Pseudopot. screening):
 1s( 1.00)                                                            
Vna: chval, zval:    1.00000   1.00000

Vna:  Cut-off radius for the neutral-atom potential:   6.518340

atom: _________________________________________________________________________

<basis_specs>
===============================================================================
N                    Z=   7    Mass=  14.010        Charge= 0.17977+309
Lmxo=1 Lmxkb= 3    BasisType=split      Semic=F
L=0  Nsemic=0  Cnfigmx=2
          i=1  nzeta=2  polorb=0  (2s)
            splnorm:   0.28000    
               vcte:    0.0000    
               rinn:    0.0000    
               qcoe:    0.0000    
               qyuk:    0.0000    
               qwid:   0.10000E-01
                rcs:    0.0000      0.0000    
            lambdas:    1.0000      1.0000    
L=1  Nsemic=0  Cnfigmx=2
          i=1  nzeta=2  polorb=1  (2p)
            splnorm:   0.28000    
               vcte:    0.0000    
               rinn:    0.0000    
               qcoe:    0.0000    
               qyuk:    0.0000    
               qwid:   0.10000E-01
                rcs:    0.0000      0.0000    
            lambdas:    1.0000      1.0000    
-------------------------------------------------------------------------------
L=0  Nkbl=1  erefs: 0.17977+309
L=1  Nkbl=1  erefs: 0.17977+309
L=2  Nkbl=1  erefs: 0.17977+309
L=3  Nkbl=1  erefs: 0.17977+309
===============================================================================
</basis_specs>

atom: Called for N                     (Z =   7)

read_vps: Pseudopotential generation method:
read_vps: ATM4.2.7  Troullier-Martins                       
Valence charge for ps generation:    5.00000

xc_check: Exchange-correlation functional:
xc_check: GGA Perdew, Burke & Ernzerhof 1996
V l=0 = -2*Zval/r beyond r=  1.2889
V l=1 = -2*Zval/r beyond r=  1.2889
V l=2 = -2*Zval/r beyond r=  3.4178
V l=3 = -2*Zval/r beyond r=  2.4084
All V_l potentials equal beyond r=  3.3753
This should be close to max(r_c) in ps generation
All pots = -2*Zval/r beyond r=  3.4178

VLOCAL1: 99.0% of the norm of Vloc inside      3.810 Ry
VLOCAL1: 99.9% of the norm of Vloc inside      8.683 Ry
atom: Maximum radius for 4*pi*r*r*local-pseudopot. charge    4.02088
atom: Maximum radius for r*vlocal+2*Zval:    3.54838
GHOST: No ghost state for L =  0
GHOST: No ghost state for L =  1
GHOST: No ghost state for L =  2
GHOST: No ghost state for L =  3

KBgen: Kleinman-Bylander projectors: 
   l= 0   rc=  3.417763   el= -1.365098   Ekb= -4.433130   kbcos= -0.707855
   l= 1   rc=  3.375302   el= -0.521201   Ekb=-13.264039   kbcos= -0.535594
   l= 2   rc=  3.872880   el=  0.001991   Ekb= -0.641094   kbcos= -0.062456
   l= 3   rc=  3.970931   el=  0.003093   Ekb= -0.474517   kbcos= -0.018236

KBgen: Total number of Kleinman-Bylander projectors:   16
atom: -------------------------------------------------------------------------

atom: SANKEY-TYPE ORBITALS:
atom: Selected multiple-zeta basis: split     

SPLIT: Orbitals with angular momentum L= 0

SPLIT: Basis orbitals for state 2s

SPLIT: PAO cut-off radius determined from an
SPLIT: energy shift=  0.002000 Ry

   izeta = 1
                 lambda =    1.000000
                     rc =    4.730425
                 energy =   -1.363399
                kinetic =    1.245246
    potential(screened) =   -2.608645
       potential(ionic) =   -8.121105

   izeta = 2
                 rmatch =    2.531849
              splitnorm =    0.280000
                 energy =   -0.959908
                kinetic =    2.409435
    potential(screened) =   -3.369343
       potential(ionic) =   -9.427975

SPLIT: Orbitals with angular momentum L= 1

SPLIT: Basis orbitals for state 2p

SPLIT: PAO cut-off radius determined from an
SPLIT: energy shift=  0.002000 Ry

   izeta = 1
                 lambda =    1.000000
                     rc =    5.924108
                 energy =   -0.519262
                kinetic =    3.672940
    potential(screened) =   -4.192202
       potential(ionic) =   -9.518354

   izeta = 2
                 rmatch =    2.531849
              splitnorm =    0.280000
                 energy =   -0.104258
                kinetic =    6.807538
    potential(screened) =   -6.911796
       potential(ionic) =  -13.149920

POLgen: Perturbative polarization orbital with L=  2

POLgen: Polarization orbital for state 2p

   izeta = 1
                     rc =    5.924108
                 energy =    1.427508
                kinetic =    2.872379
    potential(screened) =   -1.444871
       potential(ionic) =   -5.563644
atom: Total number of Sankey-type orbitals: 13

atm_pop: Valence configuration (for local Pseudopot. screening):
 2s( 2.00)                                                            
 2p( 3.00)                                                            
Vna: chval, zval:    5.00000   5.00000

Vna:  Cut-off radius for the neutral-atom potential:   5.924108

atom: _________________________________________________________________________

<basis_specs>
===============================================================================
Si                   Z=  14    Mass=  28.090        Charge= 0.17977+309
Lmxo=1 Lmxkb= 3    BasisType=split      Semic=F
L=0  Nsemic=0  Cnfigmx=3
          i=1  nzeta=2  polorb=0  (3s)
            splnorm:   0.28000    
               vcte:    0.0000    
               rinn:    0.0000    
               qcoe:    0.0000    
               qyuk:    0.0000    
               qwid:   0.10000E-01
                rcs:    0.0000      0.0000    
            lambdas:    1.0000      1.0000    
L=1  Nsemic=0  Cnfigmx=3
          i=1  nzeta=2  polorb=1  (3p)
            splnorm:   0.28000    
               vcte:    0.0000    
               rinn:    0.0000    
               qcoe:    0.0000    
               qyuk:    0.0000    
               qwid:   0.10000E-01
                rcs:    0.0000      0.0000    
            lambdas:    1.0000      1.0000    
-------------------------------------------------------------------------------
L=0  Nkbl=1  erefs: 0.17977+309
L=1  Nkbl=1  erefs: 0.17977+309
L=2  Nkbl=1  erefs: 0.17977+309
L=3  Nkbl=1  erefs: 0.17977+309
===============================================================================
</basis_specs>

atom: Called for Si                    (Z =  14)

read_vps: Pseudopotential generation method:
read_vps: ATM4.2.7  Troullier-Martins                       
Valence charge for ps generation:    4.00000

xc_check: Exchange-correlation functional:
xc_check: GGA Perdew, Burke & Ernzerhof 1996
V l=0 = -2*Zval/r beyond r=  2.7826
V l=1 = -2*Zval/r beyond r=  2.7826
V l=2 = -2*Zval/r beyond r=  2.9253
V l=3 = -2*Zval/r beyond r=  2.7826
All V_l potentials equal beyond r=  2.8530
This should be close to max(r_c) in ps generation
All pots = -2*Zval/r beyond r=  2.9253

VLOCAL1: 99.0% of the norm of Vloc inside      5.333 Ry
VLOCAL1: 99.9% of the norm of Vloc inside     12.154 Ry
atom: Maximum radius for 4*pi*r*r*local-pseudopot. charge    3.39869
atom: Maximum radius for r*vlocal+2*Zval:    2.96205
GHOST: No ghost state for L =  0
GHOST: No ghost state for L =  1
GHOST: No ghost state for L =  2
GHOST: No ghost state for L =  3

KBgen: Kleinman-Bylander projectors: 
   l= 0   rc=  3.075247   el= -0.794092   Ekb=  5.879390   kbcos=  0.167461
   l= 1   rc=  3.153101   el= -0.300068   Ekb=  2.642817   kbcos=  0.058301
   l= 2   rc=  3.273594   el=  0.001958   Ekb= -1.185135   kbcos= -0.104411
   l= 3   rc=  3.232927   el=  0.003046   Ekb= -0.497174   kbcos= -0.015889

KBgen: Total number of Kleinman-Bylander projectors:   16
atom: -------------------------------------------------------------------------

atom: SANKEY-TYPE ORBITALS:
atom: Selected multiple-zeta basis: split     

SPLIT: Orbitals with angular momentum L= 0

SPLIT: Basis orbitals for state 3s

SPLIT: PAO cut-off radius determined from an
SPLIT: energy shift=  0.002000 Ry

   izeta = 1
                 lambda =    1.000000
                     rc =    6.429618
                 energy =   -0.792283
                kinetic =    0.525293
    potential(screened) =   -1.317576
       potential(ionic) =   -3.744923

   izeta = 2
                 rmatch =    3.998416
              splitnorm =    0.280000
                 energy =   -0.583081
                kinetic =    1.069570
    potential(screened) =   -1.652651
       potential(ionic) =   -4.235185

SPLIT: Orbitals with angular momentum L= 1

SPLIT: Basis orbitals for state 3p

SPLIT: PAO cut-off radius determined from an
SPLIT: energy shift=  0.002000 Ry

   izeta = 1
                 lambda =    1.000000
                     rc =    8.464845
                 energy =   -0.298236
                kinetic =    0.785360
    potential(screened) =   -1.083596
       potential(ionic) =   -3.273779

   izeta = 2
                 rmatch =    4.587816
              splitnorm =    0.280000
                 energy =   -0.131871
                kinetic =    1.403687
    potential(screened) =   -1.535557
       potential(ionic) =   -4.015310

POLgen: Perturbative polarization orbital with L=  2

POLgen: Polarization orbital for state 3p

   izeta = 1
                     rc =    8.464845
                 energy =    0.321949
                kinetic =    1.055677
    potential(screened) =   -0.733728
       potential(ionic) =   -2.672950
atom: Total number of Sankey-type orbitals: 13

atm_pop: Valence configuration (for local Pseudopot. screening):
 3s( 2.00)                                                            
 3p( 2.00)                                                            
Vna: chval, zval:    4.00000   4.00000

Vna:  Cut-off radius for the neutral-atom potential:   8.464845

atom: _________________________________________________________________________

<basis_specs>
===============================================================================
O                    Z=   8    Mass=  16.000        Charge= 0.17977+309
Lmxo=1 Lmxkb= 3    BasisType=split      Semic=F
L=0  Nsemic=0  Cnfigmx=2
          i=1  nzeta=2  polorb=0  (2s)
            splnorm:   0.28000    
               vcte:    0.0000    
               rinn:    0.0000    
               qcoe:    0.0000    
               qyuk:    0.0000    
               qwid:   0.10000E-01
                rcs:    0.0000      0.0000    
            lambdas:    1.0000      1.0000    
L=1  Nsemic=0  Cnfigmx=2
          i=1  nzeta=2  polorb=1  (2p)
            splnorm:   0.28000    
               vcte:    0.0000    
               rinn:    0.0000    
               qcoe:    0.0000    
               qyuk:    0.0000    
               qwid:   0.10000E-01
                rcs:    0.0000      0.0000    
            lambdas:    1.0000      1.0000    
-------------------------------------------------------------------------------
L=0  Nkbl=1  erefs: 0.17977+309
L=1  Nkbl=1  erefs: 0.17977+309
L=2  Nkbl=1  erefs: 0.17977+309
L=3  Nkbl=1  erefs: 0.17977+309
===============================================================================
</basis_specs>

atom: Called for O                     (Z =   8)

read_vps: Pseudopotential generation method:
read_vps: ATM4.2.7  Troullier-Martins                       
Valence charge for ps generation:    6.00000

xc_check: Exchange-correlation functional:
xc_check: GGA Perdew, Burke & Ernzerhof 1996
V l=0 = -2*Zval/r beyond r=  1.1000
V l=1 = -2*Zval/r beyond r=  1.1000
V l=2 = -2*Zval/r beyond r=  2.2154
V l=3 = -2*Zval/r beyond r=  1.1000
All V_l potentials equal beyond r=  2.2154
This should be close to max(r_c) in ps generation
All pots = -2*Zval/r beyond r=  2.2154

VLOCAL1: 99.0% of the norm of Vloc inside      8.845 Ry
VLOCAL1: 99.9% of the norm of Vloc inside     20.157 Ry
atom: Maximum radius for 4*pi*r*r*local-pseudopot. charge    2.67231
atom: Maximum radius for r*vlocal+2*Zval:    2.32897
GHOST: No ghost state for L =  0
GHOST: No ghost state for L =  1
GHOST: No ghost state for L =  2
GHOST: No ghost state for L =  3

KBgen: Kleinman-Bylander projectors: 
   l= 0   rc=  2.243238   el= -1.759686   Ekb=**********   kbcos= -0.171774
   l= 1   rc=  2.328968   el= -0.663873   Ekb=-14.506792   kbcos= -0.519897
   l= 2   rc=  2.573941   el=  0.002031   Ekb= -1.137373   kbcos= -0.019581
   l= 3   rc=  2.606321   el=  0.003153   Ekb= -1.013546   kbcos= -0.003122

KBgen: Total number of Kleinman-Bylander projectors:   16
atom: -------------------------------------------------------------------------

atom: SANKEY-TYPE ORBITALS:
atom: Selected multiple-zeta basis: split     

SPLIT: Orbitals with angular momentum L= 0

SPLIT: Basis orbitals for state 2s

SPLIT: PAO cut-off radius determined from an
SPLIT: energy shift=  0.002000 Ry

   izeta = 1
                 lambda =    1.000000
                     rc =    4.243912
                 energy =   -1.758270
                kinetic =    3.286084
    potential(screened) =   -5.044353
       potential(ionic) =  -12.921184

   izeta = 2
                 rmatch =    2.187845
              splitnorm =    0.280000
                 energy =   -0.885018
                kinetic =    8.134434
    potential(screened) =   -9.019452
       potential(ionic) =  -17.710645

SPLIT: Orbitals with angular momentum L= 1

SPLIT: Basis orbitals for state 2p

SPLIT: PAO cut-off radius determined from an
SPLIT: energy shift=  0.002000 Ry

   izeta = 1
                 lambda =    1.000000
                     rc =    5.314825
                 energy =   -0.661986
                kinetic =    4.917472
    potential(screened) =   -5.579458
       potential(ionic) =  -13.236259

   izeta = 2
                 rmatch =    2.160663
              splitnorm =    0.280000
                 energy =   -0.068760
                kinetic =    9.183374
    potential(screened) =   -9.252135
       potential(ionic) =  -18.274251

POLgen: Perturbative polarization orbital with L=  2

POLgen: Polarization orbital for state 2p

   izeta = 1
                     rc =    5.314825
                 energy =    1.970580
                kinetic =    3.886128
    potential(screened) =   -1.915547
       potential(ionic) =   -7.749584
atom: Total number of Sankey-type orbitals: 13

atm_pop: Valence configuration (for local Pseudopot. screening):
 2s( 2.00)                                                            
 2p( 4.00)                                                            
Vna: chval, zval:    6.00000   6.00000

Vna:  Cut-off radius for the neutral-atom potential:   5.314825

atom: _________________________________________________________________________

prinput: Basis input ----------------------------------------------------------

PAO.BasisType split     

%block ChemicalSpeciesLabel
    1    1 H                       # Species index, atomic number, species label
    2    7 N                       # Species index, atomic number, species label
    3   14 Si                      # Species index, atomic number, species label
    4    8 O                       # Species index, atomic number, species label
%endblock ChemicalSpeciesLabel

%block PAO.Basis                 # Define Basis set
H                     1                    # Species label, number of l-shells
 n=1   0   2 P   1                   # n, l, Nzeta, Polarization, NzetaPol
   6.518      2.141   
   1.000      1.000   
N                     2                    # Species label, number of l-shells
 n=2   0   2                         # n, l, Nzeta 
   4.730      2.532   
   1.000      1.000   
 n=2   1   2 P   1                   # n, l, Nzeta, Polarization, NzetaPol
   5.924      2.532   
   1.000      1.000   
Si                    2                    # Species label, number of l-shells
 n=3   0   2                         # n, l, Nzeta 
   6.430      3.998   
   1.000      1.000   
 n=3   1   2 P   1                   # n, l, Nzeta, Polarization, NzetaPol
   8.465      4.588   
   1.000      1.000   
O                     2                    # Species label, number of l-shells
 n=2   0   2                         # n, l, Nzeta 
   4.244      2.188   
   1.000      1.000   
 n=2   1   2 P   1                   # n, l, Nzeta, Polarization, NzetaPol
   5.315      2.161   
   1.000      1.000   
%endblock PAO.Basis

prinput: ----------------------------------------------------------------------

Dumping basis to NetCDF file H.ion.nc
Dumping basis to NetCDF file N.ion.nc
Dumping basis to NetCDF file Si.ion.nc
Dumping basis to NetCDF file O.ion.nc
coor:   Atomic-coordinates input format  =     Cartesian coordinates
coor:                                          (in Angstroms)

siesta: Atomic coordinates (Bohr) and species
siesta:      2.70425   5.68278  -0.00000  1        1
siesta:      1.36918   4.18982  -0.00000  2        2
siesta:     -1.90059   5.02388   0.00000  3        3
siesta:     -2.19497   7.83956   0.00000  1        4
siesta:     -4.77925   2.07797  -0.00000  3        5
siesta:     -7.58207   2.53685  -0.00000  1        6
siesta:     -2.51462  -1.53760  -0.00000  3        7
siesta:     -3.96220  -4.43401  -0.00000  2        8
siesta:     -2.84679  -6.24289   0.00000  1        9
siesta:     -5.94947  -4.58606  -0.00000  1       10
siesta:      0.72853  -1.43333   0.00000  2       11
siesta:      2.76003   1.08064  -0.00000  3       12
siesta:      5.79998   1.04510  -0.00000  4       13
siesta:     10.61355 -14.07759   0.00000  1       14
siesta:      8.65886 -13.66658   0.00000  2       15
siesta:      6.22979 -16.04876   0.00000  3       16
siesta:      7.18318 -18.71532  -0.00000  1       17
siesta:      3.13570 -15.14356   0.00000  2       18
siesta:      3.17659 -11.72506  -0.00000  3       19
siesta:      1.03072  -8.10005   0.00000  3       20
siesta:     -1.95457  -7.45403   0.00000  4       21
siesta:      3.27352  -5.43711   0.00000  2       22
siesta:      2.28576  -3.64645  -0.00000  1       23
siesta:      6.63017  -5.24735   0.00000  3       24
siesta:      7.81751  -2.22872   0.00000  2       25
siesta:      6.69523  -0.49602   0.00000  1       26
siesta:      9.79567  -1.98858  -0.00000  1       27
siesta:      8.75489  -7.70105  -0.00000  2       28
siesta:      7.16982 -10.55666   0.00000  3       29

siesta: Automatic unit cell vectors (Ang):
siesta:   18.180158    0.000000    0.000000
siesta:    0.000000   23.046039    0.000000
siesta:    0.000000    0.000000    9.854683

siesta: System type = molecule  

initatomlists: Number of atoms, orbitals, and projectors:     29   297   394

siesta: ******************** Simulation parameters ****************************
siesta:
siesta: The following are some of the parameters of the simulation.
siesta: A complete list of the parameters used, including default values,
siesta: can be found in file out.fdf
siesta:
redata: Spin configuration                          = spin-orbit
redata: Number of spin components                   = 8
redata: Time-Reversal Symmetry                      = F
redata: Spin spiral                                 = F
############################################################
This spin-orbit implementation uses a local approximation.
From 4.2 and onwards the full non-local approximation is implemented
You are strongly advised to use >=4.2 versions!
############################################################
redata: Long output                                 =   F
redata: Number of Atomic Species                    =        4
redata: Charge density info will appear in .RHO file
redata: Write Mulliken Pop.                         = NO
redata: Matel table size (NRTAB)                    =     1024
redata: Mesh Cutoff                                 =   340.0000 Ry
redata: Net charge of the system                    =     0.0000 |e|
redata: Min. number of SCF Iter                     =        1
redata: Max. number of SCF Iter                     =      600
redata: SCF convergence failure will abort job
redata: SCF mix quantity                            = Hamiltonian
redata: Mix DM or H after convergence               =   F
redata: Recompute H after scf cycle                 =   F
redata: Mix DM in first SCF step                    =   T
redata: Write Pulay info on disk                    =   F
redata: New DM Occupancy tolerance                  = 0.000000000001
redata: No kicks to SCF
redata: DM Mixing Weight for Kicks                  =     0.5000
redata: Require Harris convergence for SCF          =   F
redata: Harris energy tolerance for SCF             =     0.000100 eV
redata: Require DM convergence for SCF              =   T
redata: DM tolerance for SCF                        =     0.000008
redata: Require EDM convergence for SCF             =   F
redata: EDM tolerance for SCF                       =     0.001000 eV
redata: Require H convergence for SCF               =   T
redata: Hamiltonian tolerance for SCF               =     0.000001 eV
redata: Require (free) Energy convergence for SCF   =   F
redata: (free) Energy tolerance for SCF             =     0.000100 eV
redata: Using Saved Data (generic)                  =   F
redata: Use continuation files for DM               =   T
redata: Neglect nonoverlap interactions             =   F
redata: Method of Calculation                       = Diagonalization
redata: Electronic Temperature                      =   299.9978 K
redata: Fix the spin of the system                  =   F
redata: Dynamics option                             = Single-point calculation
mix.SCF: Pulay mixing                            = Pulay
mix.SCF:    Variant                              = stable
mix.SCF:    History steps                        = 6
mix.SCF:    Linear mixing weight                 =     0.250000
mix.SCF:    Mixing weight                        =     0.250000
mix.SCF:    SVD condition                        = 0.1000E-07
mix.SCF:    Restart steps                        = 24
mix.SCF:    Restart save steps                   = 3
mix.SCF: Spin-component mixing                   all
redata: Save all siesta data in one NC              =   F
redata: ***********************************************************************

%block SCF.Mixers
  Pulay
%endblock SCF.Mixers

%block SCF.Mixer.Pulay
  # Mixing method
  method pulay
  variant stable

  # Mixing options
  weight 0.2500
  weight.linear 0.2500
  history 6
  restart 24
  restart.save 3
%endblock SCF.Mixer.Pulay

DM_history_depth set to one: no extrapolation allowed by default for geometry relaxation
Size of DM history Fstack: 1
Total number of electrons:    98.000000
Total ionic charge:    98.000000

* ProcessorY, Blocksize:    2  24


* Orbital distribution balance (max,min):    57    48


Time-reversal symmetry not used.

siesta: k-grid: Number of k-points =     1
siesta: k-grid: Cutoff (effective) =     4.927 Ang
siesta: k-grid: Supercell and displacements
siesta: k-grid:    1   0   0      0.000
siesta: k-grid:    0   1   0      0.000
siesta: k-grid:    0   0   1      0.000

diag: Algorithm                                     = ELPA-1stage
diag: Parallel over k                               =   F
diag: Use parallel 2D distribution                  =   T
diag: Parallel block-size                           = 24
diag: Parallel distribution                         =     2 x     3
diag: Used triangular part                          = Lower
diag: Absolute tolerance                            =  0.100E-15
diag: Orthogonalization factor                      =  0.100E-05
diag: Memory factor                                 =  1.0000


ts: **************************************************************
ts: Save H and S matrices                           =    F
ts: Save DM and EDM matrices                        =    F
ts: Only save the overlap matrix S                  =    F
ts: **************************************************************

************************ Begin: TS CHECKS AND WARNINGS ************************
************************ End: TS CHECKS AND WARNINGS **************************


                     ====================================
                        Single-point calculation
                     ====================================

outcoor: Atomic coordinates (Ang):                          
    1.43102687    3.00719413    0.00000000   1       1  H
    0.72454014    2.21715795    0.00000000   2       2  N
   -1.00574677    2.65852186    0.00000000   3       3  Si
   -1.16152645    4.14851412    0.00000000   1       4  H
   -2.52906839    1.09961434    0.00000000   3       5  Si
   -4.01225602    1.34244470    0.00000000   1       6  H
   -1.33067753   -0.81366182    0.00000000   3       7  Si
   -2.09670299   -2.34637856    0.00000000   2       8  N
   -1.50645644   -3.30359159    0.00000000   1       9  H
   -3.14832531   -2.42683879    0.00000000   1      10  H
    0.38552253   -0.75848751    0.00000000   2      11  N
    1.46054515    0.57185133    0.00000000   3      12  Si
    3.06921847    0.55304107    0.00000000   4      13  O
    5.61644830   -7.44953905    0.00000000   1      14  H
    4.58206954   -7.23203760    0.00000000   2      15  N
    3.29666389   -8.49263600    0.00000000   3      16  Si
    3.80117524   -9.90371886    0.00000000   1      17  H
    1.65934232   -8.01362137    0.00000000   2      18  N
    1.68097912   -6.20463398    0.00000000   3      19  Si
    0.54543521   -4.28636135    0.00000000   3      20  Si
   -1.03431493   -3.94450034    0.00000000   4      21  O
    1.73226934   -2.87719605    0.00000000   2      22  N
    1.20957366   -1.92961761    0.00000000   1      23  H
    3.50853448   -2.77677601    0.00000000   3      24  Si
    4.13684451   -1.17938608    0.00000000   2      25  N
    3.54296161   -0.26248101    0.00000000   1      26  H
    5.18364407   -1.05231197    0.00000000   1      27  H
    4.63288658   -4.07521596    0.00000000   2      28  N
    3.79410501   -5.58634043    0.00000000   3      29  Si

outcell: Unit cell vectors (Ang):
       18.180158    0.000000    0.000000
        0.000000   23.046039    0.000000
        0.000000    0.000000    9.854683

outcell: Cell vector modules (Ang)   :   18.180158   23.046039    9.854683
outcell: Cell angles (23,13,12) (deg):     90.0000     90.0000     90.0000
outcell: Cell volume (Ang**3)        :   4128.9213
<dSpData1D:S at geom step 0
  <sparsity:sparsity for geom step 0
    nrows_g=297 nrows=57 sparsity=.1530 nnzs=13497, refcount: 8>
  <dData1D:(new from dSpData1D) n=13497, refcount: 1>
refcount: 1>
new_DM -- step:     1
Initializing Density Matrix...

Attempting to read DM from file... Failed...
DM filled with atomic data:
<dSpData2D:DM initialized from atoms
  <sparsity:sparsity for geom step 0
    nrows_g=297 nrows=57 sparsity=.1530 nnzs=13497, refcount: 9>
  <dData2D:DM n=13497 m=8, refcount: 1>
refcount: 1>
     spin moment: S , {S} =   56.00000   0.00000   0.00000  56.00000
No. of atoms with KB's overlaping orbs in proc 0. Max # of overlaps:      28     231

Initializing spin-orbit part of the Hamiltonian
  Adding spin-orbit effects for H 
  Adding spin-orbit effects for N 
  Adding spin-orbit effects for Si
  Adding spin-orbit effects for O 


New grid distribution:   1
           1       1:  108    1:   64    1:   20
           2       1:  108    1:   64   21:   40
           3       1:  108    1:   64   41:   60
           4       1:  108   65:  128    1:   20
           5       1:  108   65:  128   21:   40
           6       1:  108   65:  128   41:   60

InitMesh: MESH =   216 x   256 x   120 =     6635520
InitMesh: (bp) =   108 x   128 x    60 =      829440
InitMesh: Mesh cutoff (required, used) =   340.000   341.027 Ry
ExtMesh (bp) on 0 =   216 x   164 x   132 =     4675968
New grid distribution:   2
           1      15:  108    1:   74    1:   60
           2       1:   14    1:  101    1:   60
           3       1:   14  102:  128    1:   60
           4      15:  108  116:  128    1:   60
           5      15:  108   75:  101    1:   60
           6      15:  108  102:  115    1:   60
New grid distribution:   3
           1      21:  108   21:   84    1:   60
           2      21:  108    1:   20    1:   60
           3       1:   23   85:  128    1:   60
           4      24:  108  110:  128    1:   60
           5      24:  108   85:  109    1:   60
           6       1:   20    1:   84    1:   60
Setting up quadratic distribution...
ExtMesh (bp) on 0 =   202 x   174 x   172 =     6045456
PhiOnMesh: Number of (b)points on node 0 =               417360
PhiOnMesh: nlist on node 0 =              2350658

stepf: Fermi-Dirac step function

siesta: Program's energy decomposition (eV):
siesta: Ebs     =      -579.052502
siesta: Eions   =      3585.165840
siesta: Ena     =       399.224705
siesta: Ekin    =      3437.780769
siesta: Enl     =     -3368.550965
siesta: Eso     =        -0.003481
siesta: Edftu   =         0.000000
siesta: DEna    =       158.529715
siesta: DUscf   =        86.618841
siesta: DUext   =         0.000000
siesta: Exc     =     -1219.303646
siesta: eta*DQ  =         0.000000
siesta: Emadel  =         0.000000
siesta: Emeta   =         0.000000
siesta: Emolmec =         0.000000
siesta: Ekinion =         0.000000
siesta: Eharris =     -3986.949979
siesta: Etot    =     -4090.869900
siesta: FreeEng =     -4090.871254

        iscf     Eharris(eV)        E_KS(eV)     FreeEng(eV)     dDmax    Ef(eV) dHmax(eV)
   scf:    1    -3986.949979    -4090.869900    -4090.871254  0.959590 -4.921063 23.285711
     spin moment: S , {S} =    2.00746   0.00000  -0.00000   2.00746
timer: Routine,Calls,Time,% = IterSCF        1       5.861  22.10
   scf:    2    -4144.135854    -4130.293240    -4130.294856  0.480613 -4.157956 10.331827
     spin moment: S , {S} =    1.99876  -0.00000   0.00000   1.99876
   scf:    3    -4083.454466    -4120.294206    -4120.334919  0.432711 -4.092650 13.766813
     spin moment: S , {S} =    3.20702  -0.00000  -0.00000   3.20702
   scf:    4    -4142.097170    -4137.119532    -4137.119568  0.377941 -3.823489  6.057399
     spin moment: S , {S} =    0.00024  -0.00000  -0.00000   0.00024
   scf:    5    -4138.760602    -4138.182161    -4138.182161  0.064231 -3.626300  5.089420
     spin moment: S , {S} =    0.00008  -0.00000  -0.00000   0.00008
   scf:    6    -4139.118971    -4138.683308    -4138.683308  0.040661 -3.528604  2.974877
     spin moment: S , {S} =    0.00003  -0.00000  -0.00000   0.00003
   scf:    7    -4139.177950    -4138.939522    -4138.939522  0.026842 -3.572103  1.299870
     spin moment: S , {S} =    0.00001  -0.00000   0.00000   0.00001
   scf:    8    -4139.141231    -4139.039774    -4139.039774  0.017271 -3.722993  0.396358
     spin moment: S , {S} =    0.00000   0.00000   0.00000   0.00000
   scf:    9    -4139.072115    -4139.055776    -4139.055776  0.005963 -3.713752  0.381085
     spin moment: S , {S} =    0.00000   0.00000  -0.00000   0.00000
   scf:   10    -4139.104099    -4139.078038    -4139.078038  0.013964 -3.740872  0.142438
     spin moment: S , {S} =    0.00000   0.00000  -0.00000  -0.00000
   scf:   11    -4139.083789    -4139.080779    -4139.080779  0.005257 -3.739920  0.076061
     spin moment: S , {S} =    0.00000   0.00000  -0.00000   0.00000
   scf:   12    -4139.083024    -4139.081853    -4139.081853  0.003354 -3.729855  0.043544
     spin moment: S , {S} =    0.00000   0.00000  -0.00000   0.00000
   scf:   13    -4139.083159    -4139.082467    -4139.082467  0.002491 -3.732909  0.032371
     spin moment: S , {S} =    0.00000   0.00000  -0.00000   0.00000
   scf:   14    -4139.083395    -4139.082894    -4139.082894  0.002604 -3.729736  0.027015
     spin moment: S , {S} =    0.00000   0.00000  -0.00000   0.00000
   scf:   15    -4139.083545    -4139.083178    -4139.083178  0.002637 -3.728842  0.015396
     spin moment: S , {S} =    0.00000   0.00000  -0.00000   0.00000
   scf:   16    -4139.083541    -4139.083316    -4139.083316  0.002889 -3.728688  0.007207
     spin moment: S , {S} =    0.00000   0.00000  -0.00000   0.00000
   scf:   17    -4139.083340    -4139.083327    -4139.083327  0.000516 -3.728883  0.005012
     spin moment: S , {S} =    0.00000  -0.00000  -0.00000   0.00000
   scf:   18    -4139.083345    -4139.083334    -4139.083334  0.000514 -3.728906  0.003271
     spin moment: S , {S} =    0.00000  -0.00000  -0.00000   0.00000
   scf:   19    -4139.083349    -4139.083340    -4139.083340  0.000557 -3.729157  0.001245
     spin moment: S , {S} =    0.00000  -0.00000  -0.00000  -0.00000
   scf:   20    -4139.083342    -4139.083341    -4139.083341  0.000168 -3.729187  0.000544
     spin moment: S , {S} =    0.00000  -0.00000  -0.00000  -0.00000
   scf:   21    -4139.083341    -4139.083341    -4139.083341  0.000068 -3.729144  0.000467
     spin moment: S , {S} =    0.00000  -0.00000  -0.00000  -0.00000
   scf:   22    -4139.083341    -4139.083341    -4139.083341  0.000061 -3.729083  0.000216
     spin moment: S , {S} =    0.00000  -0.00000  -0.00000  -0.00000
   scf:   23    -4139.083341    -4139.083341    -4139.083341  0.000019 -3.729053  0.000128
     spin moment: S , {S} =    0.00000  -0.00000  -0.00000  -0.00000
   scf:   24    -4139.083341    -4139.083341    -4139.083341  0.000006 -3.729059  0.000106
     spin moment: S , {S} =    0.00000  -0.00000  -0.00000  -0.00000
mix: Pulay -- resetting history
   scf:   25    -4139.083341    -4139.083341    -4139.083341  0.000007 -3.729061  0.000086
     spin moment: S , {S} =    0.00000  -0.00000  -0.00000  -0.00000
   scf:   26    -4139.083341    -4139.083341    -4139.083341  0.000007 -3.729067  0.000058
     spin moment: S , {S} =    0.00000  -0.00000  -0.00000  -0.00000
   scf:   27    -4139.083341    -4139.083341    -4139.083341  0.000005 -3.729064  0.000040
     spin moment: S , {S} =    0.00000  -0.00000  -0.00000   0.00000
   scf:   28    -4139.083341    -4139.083341    -4139.083341  0.000004 -3.729062  0.000024
     spin moment: S , {S} =    0.00000  -0.00000  -0.00000   0.00000
   scf:   29    -4139.083341    -4139.083341    -4139.083341  0.000004 -3.729063  0.000013
     spin moment: S , {S} =    0.00000  -0.00000  -0.00000   0.00000
   scf:   30    -4139.083341    -4139.083341    -4139.083341  0.000002 -3.729063  0.000006
     spin moment: S , {S} =    0.00000  -0.00000  -0.00000   0.00000
   scf:   31    -4139.083341    -4139.083341    -4139.083341  0.000001 -3.729062  0.000002
     spin moment: S , {S} =    0.00000  -0.00000  -0.00000   0.00000
   scf:   32    -4139.083341    -4139.083341    -4139.083341  0.000000 -3.729062  0.000001
     spin moment: S , {S} =    0.00000  -0.00000  -0.00000   0.00000

SCF Convergence by DM+H criterion
max |DM_out - DM_in|         :     0.0000002082
max |H_out - H_in|      (eV) :     0.0000008798
SCF cycle converged after 32 iterations

Using DM_out to compute the final energy and forces
No. of atoms with KB's overlaping orbs in proc 0. Max # of overlaps:      28     231

siesta: E_KS(eV) =            -4139.0833

siesta: E_KS - E_eggbox =     -4139.0833
     spin moment: S , {S} =    0.00000  -0.00000  -0.00000   0.00000

siesta: Atomic forces (eV/Ang):
     1    0.013623   -0.031049    0.000000
     2    0.581975   -0.400169    0.000000
     3   -0.601278    0.129917   -0.000000
     4    0.020633    0.138831    0.000000
     5    0.345981    0.227058   -0.000000
     6    0.004227    0.031765    0.000000
     7   -1.970590   -0.492059    0.000000
     8   -6.482950   11.466968   -0.000000
     9  -11.002907   14.664501    0.000000
    10   -0.244525    0.556654   -0.000000
    11    0.012635    2.016972   -0.000000
    12   -1.652085    1.073078   -0.000000
    13   -7.827283    9.365630   -0.000000
    14    0.045353    0.015045    0.000000
    15   -0.112300   -0.097445   -0.000000
    16   -0.014150    0.036138    0.000000
    17   -0.183398    0.025874   -0.000000
    18   -0.010172   -0.052448    0.000000
    19   -0.355419   -0.032893   -0.000000
    20    2.138877   -0.385227    0.000000
    21   19.920279  -29.482557    0.000000
    22    0.811309   -2.786981    0.000000
    23   -0.419596    0.303990   -0.000000
    24    0.741207    0.608210    0.000000
    25    4.528172   -8.275229   -0.000000
    26    2.668500   -4.783524   -0.000000
    27    0.185553   -0.511209    0.000000
    28    0.051717   -0.968746   -0.000000
    29    0.392944    0.421235    0.000000
----------------------------------------
   Tot    1.586332   -7.217670   -0.000000
----------------------------------------
   Max   29.482557
   Res    4.881644    sqrt( Sum f_i^2 / 3N )
----------------------------------------
   Max   29.482557    constrained

Stress tensor Voigt[x,y,z,yz,xz,xy] (kbar):       -8.92      -20.86       -0.11        0.00       -0.00       15.03
(Free)E + p*V (eV/cell)    -4113.4088
Target enthalpy (eV/cell)    -4139.0833

siesta: Eigenvalues (eV):
ik =     1
  -26.3237  -26.3237  -25.6205  -25.6205  -21.7666  -21.7666  -21.2085  -21.2085  -20.9656  -20.9656
  -20.2331  -20.2331  -19.7218  -19.7218  -19.3876  -19.3876  -19.2869  -19.2869  -19.0679  -19.0679
  -15.4031  -15.4031  -14.7663  -14.7663  -14.2507  -14.2507  -13.6137  -13.6137  -13.1892  -13.1892
  -13.0623  -13.0623  -12.7133  -12.7133  -12.4725  -12.4725  -12.1371  -12.1371  -12.0594  -12.0594
  -11.0694  -11.0694  -10.7429  -10.7429  -10.6334  -10.6334  -10.2746  -10.2746  -10.0012  -10.0012
   -9.7957   -9.7957   -9.3064   -9.3064   -9.2921   -9.2921   -8.8914   -8.8914   -8.8660   -8.8660
   -8.7752   -8.7752   -8.6813   -8.6813   -8.5672   -8.5672   -8.3111   -8.3111   -8.1716   -8.1716
   -7.9743   -7.9743   -7.6919   -7.6919   -7.4825   -7.4825   -7.4320   -7.4320   -6.7128   -6.7128
   -6.7078   -6.7078   -6.3638   -6.3638   -6.0971   -6.0971   -6.0474   -6.0474   -5.7991   -5.7991
   -5.4335   -5.4335   -5.4126   -5.4126   -5.3843   -5.3843   -4.3171   -4.3171   -3.1381   -3.1381
   -2.4768   -2.4768   -2.3632   -2.3632   -2.1881   -2.1881   -2.1640   -2.1640   -2.0154   -2.0153
   -1.9037   -1.9037   -1.5851   -1.5851   -1.5352   -1.5352   -1.2385   -1.2385   -0.9811   -0.9811
   -0.9010   -0.9010   -0.7046   -0.7046   -0.3621   -0.3621   -0.3266   -0.3266    0.4866    0.4866
    0.4912    0.4912    0.5283    0.5283    0.6349    0.6349    0.7960    0.7960    1.1473    1.1473
    1.4616    1.4616    1.4696    1.4696    1.5594    1.5594    1.6145    1.6145    2.0838    2.0838
    2.3478    2.3478    2.5807    2.5807    2.6086    2.6086    2.7413    2.7413    2.9157    2.9157
    3.0400    3.0400    3.3520    3.3520    3.4507    3.4507    3.5851    3.5851    3.6672    3.6672
    4.0639    4.0639    4.1018    4.1018    4.2859    4.2859    4.4174    4.4174    4.4229    4.4229
    4.5680    4.5680    4.8014    4.8014    5.0132    5.0132    5.2184    5.2184    5.3611    5.3611
    5.4939    5.4939    5.6834    5.6834    5.7420    5.7420    5.7517    5.7517    5.9137    5.9137
    6.1786    6.1786    6.4749    6.4749    6.5267    6.5267    6.6750    6.6750    6.7687    6.7687
    7.1495    7.1495    7.1752    7.1752    7.3604    7.3604    7.4882    7.4882    7.6644    7.6644
    7.6928    7.6928    7.8341    7.8341    7.9198    7.9198    8.1307    8.1307    8.2938    8.2938
    8.4473    8.4473    8.6867    8.6867    8.7305    8.7305    8.7582    8.7582    9.0441    9.0441
    9.1590    9.1590    9.1947    9.1947    9.6542    9.6542    9.6783    9.6783   10.0889   10.0889
   10.2071   10.2071   10.2452   10.2452   10.3300   10.3300   10.7339   10.7339   10.9578   10.9578
   11.1790   11.1790   11.3014   11.3014   11.3628   11.3628   11.5329   11.5329   11.9184   11.9184
   12.3820   12.3820   12.4439   12.4439   12.5887   12.5887   12.7139   12.7139   12.8423   12.8423
   12.9850   12.9850   13.4429   13.4429   13.6771   13.6771   13.7735   13.7735   14.0821   14.0821
   14.1232   14.1232   14.5740   14.5740   14.6934   14.6934   14.9096   14.9096   15.1652   15.1652
   15.2872   15.2872   15.5239   15.5239   16.3304   16.3304   16.7374   16.7374   16.8270   16.8270
   17.2234   17.2234   17.3693   17.3693   17.5505   17.5505   17.6198   17.6198   18.0353   18.0353
   18.5756   18.5756   18.9592   18.9592   19.2935   19.2935   19.7812   19.7812   20.4097   20.4097
   20.5773   20.5773   20.8889   20.8889   21.2535   21.2535   21.5976   21.5976   22.0855   22.0855
   22.4375   22.4375   22.9628   22.9628   23.6805   23.6805   23.9681   23.9681   24.2871   24.2871
   24.8654   24.8654   25.1889   25.1889   25.2502   25.2502   25.8435   25.8435   26.6570   26.6570
   27.3862   27.3862   27.7282   27.7282   28.5262   28.5262   28.9051   28.9051   29.6229   29.6229
   30.0071   30.0071   30.3256   30.3256   30.6317   30.6317   30.7450   30.7450   30.9445   30.9445
   31.0129   31.0129   31.5474   31.5474   31.8913   31.8913   32.0467   32.0467   33.0496   33.0496
   33.1631   33.1631   33.9187   33.9187   34.4382   34.4382   34.8600   34.8600   35.3538   35.3538
   35.4330   35.4330   36.0788   36.0788   36.6932   36.6932   36.7787   36.7787   37.0772   37.0772
   37.6640   37.6640   38.4342   38.4342   38.5872   38.5872   39.2527   39.2527   39.7676   39.7676
   39.9579   39.9579   40.3862   40.3862   40.6785   40.6785   40.8236   40.8236   41.0215   41.0215
   41.8363   41.8363   42.1082   42.1082   42.9832   42.9832   43.1394   43.1394   43.1652   43.1652
   43.4533   43.4533   43.6899   43.6899   44.0998   44.0998   44.1597   44.1597   44.8040   44.8040
   45.3511   45.3511   45.9401   45.9401   45.9771   45.9771   46.3561   46.3561   46.8007   46.8007
   46.8555   46.8555   47.0529   47.0529   47.3138   47.3138   47.6563   47.6563   48.2159   48.2159
   48.8046   48.8046   49.0880   49.0880   49.5485   49.5485   49.9288   49.9288   50.6173   50.6173
   51.2829   51.2829   51.3877   51.3877   52.4793   52.4793   53.8197   53.8197   54.1065   54.1065
   54.5537   54.5537   54.8506   54.8506   55.4084   55.4084   55.4314   55.4314   55.7483   55.7483
   56.2062   56.2062   57.0867   57.0867   57.6268   57.6268   59.0801   59.0801   59.3762   59.3762
   59.7511   59.7511   59.9178   59.9178   60.0209   60.0209   60.0737   60.0737   61.0984   61.0984
   61.6303   61.6303   62.9671   62.9671   64.6369   64.6369   64.8586   64.8586   65.2991   65.2991
   67.2413   67.2413   68.0058   68.0058   68.8998   68.8998   70.1008   70.1008   71.1490   71.1490
   72.7898   72.7898   74.0585   74.0585   75.6742   75.6742   78.9291   78.9291   82.4999   82.4999
   84.8794   84.8794   87.7116   87.7116   91.6731   91.6731   92.3130   92.3130   93.2108   93.2108
   93.7318   93.7318   96.7134   96.7134   99.9492   99.9492  100.9894  100.9894  102.3796  102.3796
  105.3950  105.3950  109.7580  109.7580  110.5299  110.5299  119.7578  119.7578  124.5828  124.5828
  127.3550  127.3550  131.0317  131.0317  137.0179  137.0179  143.5354  143.5354  147.2373  147.2373
  156.3923  156.3923  185.0049  185.0049
siesta: Fermi energy =      -3.729062 eV

siesta: Program's energy decomposition (eV):
siesta: Ebs     =     -1154.971254
siesta: Eions   =      3585.165840
siesta: Ena     =       399.224705
siesta: Ekin    =      2960.413097
siesta: Enl     =     -2842.355083
siesta: Eso     =        -0.004431
siesta: Edftu   =         0.000000
siesta: DEna    =        48.348546
siesta: DUscf   =        14.663430
siesta: DUext   =         0.000000
siesta: Exc     =     -1134.207766
siesta: eta*DQ  =         0.000000
siesta: Emadel  =         0.000000
siesta: Emeta   =         0.000000
siesta: Emolmec =         0.000000
siesta: Ekinion =         0.000000
siesta: Eharris =     -4139.083341
siesta: Etot    =     -4139.083341
siesta: FreeEng =     -4139.083341

siesta: Final energy (eV):
siesta:  Band Struct. =   -1154.971254
siesta:       Kinetic =    2960.413097
siesta:       Hartree =    9525.691444
siesta:       Edftu   =       0.000000
siesta:       Eso     =      -0.004431
siesta:    Ext. field =       0.000000
siesta:   Exch.-corr. =   -1134.207766
siesta:  Ion-electron =  -21693.807146
siesta:       Ion-ion =    6202.831461
siesta:       Ekinion =       0.000000
siesta:         Total =   -4139.083341
siesta:         Fermi =      -3.729062

siesta: Atomic forces (eV/Ang):
siesta:      1    0.013623   -0.031049    0.000000
siesta:      2    0.581975   -0.400169    0.000000
siesta:      3   -0.601278    0.129917   -0.000000
siesta:      4    0.020633    0.138831    0.000000
siesta:      5    0.345981    0.227058   -0.000000
siesta:      6    0.004227    0.031765    0.000000
siesta:      7   -1.970590   -0.492059    0.000000
siesta:      8   -6.482950   11.466968   -0.000000
siesta:      9  -11.002907   14.664501    0.000000
siesta:     10   -0.244525    0.556654   -0.000000
siesta:     11    0.012635    2.016972   -0.000000
siesta:     12   -1.652085    1.073078   -0.000000
siesta:     13   -7.827283    9.365630   -0.000000
siesta:     14    0.045353    0.015045    0.000000
siesta:     15   -0.112300   -0.097445   -0.000000
siesta:     16   -0.014150    0.036138    0.000000
siesta:     17   -0.183398    0.025874   -0.000000
siesta:     18   -0.010172   -0.052448    0.000000
siesta:     19   -0.355419   -0.032893   -0.000000
siesta:     20    2.138877   -0.385227    0.000000
siesta:     21   19.920279  -29.482557    0.000000
siesta:     22    0.811309   -2.786981    0.000000
siesta:     23   -0.419596    0.303990   -0.000000
siesta:     24    0.741207    0.608210    0.000000
siesta:     25    4.528172   -8.275229   -0.000000
siesta:     26    2.668500   -4.783524   -0.000000
siesta:     27    0.185553   -0.511209    0.000000
siesta:     28    0.051717   -0.968746   -0.000000
siesta:     29    0.392944    0.421235    0.000000
siesta: ----------------------------------------
siesta:    Tot    1.586332   -7.217670   -0.000000

siesta: Stress tensor (static) (eV/Ang**3):
siesta:    -0.005566    0.009380   -0.000000
siesta:     0.009380   -0.013023    0.000000
siesta:    -0.000000    0.000000   -0.000066

siesta: Cell volume =       4128.921321 Ang**3

siesta: Pressure (static):
siesta:                Solid            Molecule  Units
siesta:           0.00006772          0.00000888  Ry/Bohr**3
siesta:           0.00621822          0.00081522  eV/Ang**3
siesta:           9.96278984          1.30613475  kBar
(Free)E+ p_basis*V_orbitals  =       -4119.232924
(Free)Eharris+ p_basis*V_orbitals  =       -4119.232924
     spin moment: S , {S} =    0.00000  -0.00000  -0.00000   0.00000

siesta: Electric dipole (a.u.)  =   -0.112677    1.460781   -0.000000
siesta: Electric dipole (Debye) =   -0.286398    3.712936   -0.000000

cite: Please see "GC.bib" for an exhaustive BiBTeX file.
cite: Please clearly indicate Siesta version in published work: v4.1.5-1-g384057250
cite: This calculation has made use of the following articles
cite: which are encouraged to be cited in a published work.
        Primary SIESTA paper
          DOI: www.doi.org/10.1088/0953-8984/14/11/302
        Spin-orbit coupling (on-site approximation)
          DOI: www.doi.org/10.1088/0953-8984/19/19/489001


WARNING: alloc-realloc-dealloc name mismatch
         Name: atomlist isa
         Size:              -116. Bytes
         Node:     0
         Subsequent mismatches will not be reported
>> End of run:  16-OCT-2023  18:08:33
Job completed
