Siesta Version  : v4.1.5-1-g384057250
Architecture    : gcc
Compiler version: GNU Fortran (Debian 10.2.1-6) 10.2.1 20210110
Compiler flags  : mpifort -O2 -fPIC -ftree-vectorize -fallow-argument-mismatch
PP flags        : -DFC_HAVE_ABORT -DMPI -DSIESTA__FLOOK -DSIESTA__METIS -DSIESTA__MUMPS -DCDF -DNCDF -DNCDF_4 -DNCDF_PARALLEL -DSIESTA__MRRR -DSIESTA__ELPA
Libraries       : libncdf.a libfdict.a  -lflookall -ldl -lnetcdff -lnetcdf -lhdf5_hl -lhdf5 -lhdf5_fortran -lz -lscalapack-openmpi -lopenblas -lmetis -lzmumps -lcmumps -ldmumps -lmumps_common -lpord -lsmumps -lesmumps -lscotch -lscotcherr -fopenmp -lelpa
PARALLEL version
NetCDF support
NetCDF-4 support
NetCDF-4 MPI-IO support
METIS ordering support
Lua support

* Running on 6 nodes in parallel
>> Start of run:  22-MAY-2023   9:57:52

                           ***********************       
                           *  WELCOME TO SIESTA  *       
                           ***********************       

reinit: Reading from standard input
reinit: Dumped input in INPUT_TMP.75503
************************** Dump of input data file ****************************
SystemLabel      AT
NumberOfAtoms    30
NumberOfSpecies  4
%block ChemicalSpeciesLabel
    1    1  H
    2    7  N
    3   14  Si
    4    8  O
%endblock ChemicalSpeciesLabel
# Single point calculation
MD.TypeOfRun                CG
MD.Steps                    0
SCF.MustConverge            F # In case it does not. There can be 2 very close atoms
AtomicCoordinatesFormat NotScaledCartesianAng
%block AtomicCoordinatesAndAtomicSpecies
2.582377650    -5.776830440   0.000000000       1
1.654759240    -5.269361980   0.000000000       2
0.063128840    -6.101704590   0.000000000       3
0.119223240    -7.596849500   0.000000000       1
-1.376892050   -5.182603740   0.000000000       2
-0.824371900   -3.460866440   0.000000000       3
-1.170571480   -1.270002100   0.000000000       3
-2.706933680   -0.417515780   0.000000000       2
-2.754569660   0.634858620    0.000000000       1
-3.637675640   -0.909967860   0.000000000       1
0.218091790    -0.234193970   0.000000000       2
1.872004100    -0.697162300   0.000000000       3
2.828001130    0.461464770    0.000000000       1
2.648150080    -2.255024470   0.000000000       2
1.391921380    -3.454727220   0.000000000       3
1.881243781    5.811535802    0.000000000       2
0.553872261    7.021740102    0.000000000       3
1.193873531    8.383058342    0.000000000       1
-1.531873679   6.351208752    0.000000000       3
-3.561436279   7.481324942    0.000000000       3
-3.407200509   8.641555152    0.940305280       1
-4.547370999   6.459404322    0.512613700       1
-3.977651239   7.957550792    -1.366678340      1
-1.465378259   4.077232132    0.000000000       3
-2.504426989   2.884172632    0.000000000       4
0.191613321    3.443256942    0.000000000       2
0.173595951    2.380812112    0.000000000       1
1.815216391    4.040327152    0.000000000       3
3.010232561    3.025901952    0.000000000       4
2.881281151    6.157042902    0.000000000       1
%endblock AtomicCoordinatesAndAtomicSpecies
%include ../../../Defaults.fdf
************************** End of input data file *****************************

reinit: -----------------------------------------------------------------------
reinit: System Name: 
reinit: -----------------------------------------------------------------------
reinit: System Label: AT
reinit: -----------------------------------------------------------------------

initatom: Reading input for the pseudopotentials and atomic orbitals ----------
Species number:   1 Atomic number:    1 Label: H
Species number:   2 Atomic number:    7 Label: N
Species number:   3 Atomic number:   14 Label: Si
Species number:   4 Atomic number:    8 Label: O

Ground state valence configuration:   1s01
Reading pseudopotential information in formatted form from H.psf

Pseudopotential generated from a relativistic atomic calculation

Valence configuration for pseudopotential generation:
1s( 1.00) rc: 0.01
2p( 0.00) rc: 0.60
3d( 0.00) rc: 1.99
4f( 0.00) rc: 2.49
Ground state valence configuration:   2s02  2p03
Reading pseudopotential information in formatted form from N.psf

Pseudopotential generated from a relativistic atomic calculation

Valence configuration for pseudopotential generation:
2s( 2.00) rc: 0.94
2p( 3.00) rc: 0.59
3d( 0.00) rc: 3.46
4f( 0.00) rc: 2.47
Ground state valence configuration:   3s02  3p02
Reading pseudopotential information in formatted form from Si.psf

Pseudopotential generated from a relativistic atomic calculation

Valence configuration for pseudopotential generation:
3s( 2.00) rc: 1.67
3p( 2.00) rc: 2.04
3d( 0.00) rc: 2.89
4f( 0.00) rc: 2.49
Ground state valence configuration:   2s02  2p04
Reading pseudopotential information in formatted form from O.psf

Pseudopotential generated from a relativistic atomic calculation

Valence configuration for pseudopotential generation:
2s( 2.00) rc: 0.45
2p( 4.00) rc: 0.92
3d( 0.00) rc: 2.24
4f( 0.00) rc: 0.25
For H, standard SIESTA heuristics set lmxkb to 2
 (one more than the basis l, including polarization orbitals).
Use PS.lmax or PS.KBprojectors blocks to override.
For N, standard SIESTA heuristics set lmxkb to 3
 (one more than the basis l, including polarization orbitals).
Use PS.lmax or PS.KBprojectors blocks to override.
For Si, standard SIESTA heuristics set lmxkb to 3
 (one more than the basis l, including polarization orbitals).
Use PS.lmax or PS.KBprojectors blocks to override.
For O, standard SIESTA heuristics set lmxkb to 3
 (one more than the basis l, including polarization orbitals).
Use PS.lmax or PS.KBprojectors blocks to override.

<basis_specs>
===============================================================================
H                    Z=   1    Mass=  1.0100        Charge= 0.17977+309
Lmxo=0 Lmxkb= 2    BasisType=split      Semic=F
L=0  Nsemic=0  Cnfigmx=1
          i=1  nzeta=2  polorb=1  (1s)
            splnorm:   0.62000    
               vcte:    0.0000    
               rinn:    0.0000    
               qcoe:    0.0000    
               qyuk:    0.0000    
               qwid:   0.10000E-01
                rcs:    0.0000      0.0000    
            lambdas:    1.0000      1.0000    
-------------------------------------------------------------------------------
L=0  Nkbl=1  erefs: 0.17977+309
L=1  Nkbl=1  erefs: 0.17977+309
L=2  Nkbl=1  erefs: 0.17977+309
===============================================================================
</basis_specs>

atom: Called for H                     (Z =   1)

read_vps: Pseudopotential generation method:
read_vps: ATM4.2.7  Troullier-Martins                       
Valence charge for ps generation:    1.00000

xc_check: Exchange-correlation functional:
xc_check: GGA Perdew, Burke & Ernzerhof 1996
V l=0 = -2*Zval/r beyond r=  0.0098
V l=1 = -2*Zval/r beyond r=  0.5817
V l=2 = -2*Zval/r beyond r=  1.9372
All V_l potentials equal beyond r=  1.9372
This should be close to max(r_c) in ps generation
All pots = -2*Zval/r beyond r=  1.9372

VLOCAL1: 99.0% of the norm of Vloc inside     11.567 Ry
VLOCAL1: 99.9% of the norm of Vloc inside     26.362 Ry
atom: Maximum radius for 4*pi*r*r*local-pseudopot. charge    2.25106
atom: Maximum radius for r*vlocal+2*Zval:    1.91306
GHOST: No ghost state for L =  0
GHOST: No ghost state for L =  1
GHOST: No ghost state for L =  2

KBgen: Kleinman-Bylander projectors: 
   l= 0   rc=  2.036604   el= -0.477180   Ekb= -6.081590   kbcos= -0.277285
   l= 1   rc=  2.195416   el=  0.001076   Ekb= -0.926943   kbcos= -0.034643
   l= 2   rc=  2.251056   el=  0.002010   Ekb= -0.130941   kbcos= -0.009788

KBgen: Total number of Kleinman-Bylander projectors:    9
atom: -------------------------------------------------------------------------

atom: SANKEY-TYPE ORBITALS:
atom: Selected multiple-zeta basis: split     

SPLIT: Orbitals with angular momentum L= 0

SPLIT: Basis orbitals for state 1s

SPLIT: PAO cut-off radius determined from an
SPLIT: energy shift=  0.002000 Ry

   izeta = 1
                 lambda =    1.000000
                     rc =    6.518340
                 energy =   -0.475305
                kinetic =    0.912139
    potential(screened) =   -1.387444
       potential(ionic) =   -1.907295

   izeta = 2
                 rmatch =    2.141150
              splitnorm =    0.620000
                 energy =    0.566467
                kinetic =    3.772856
    potential(screened) =   -3.206389
       potential(ionic) =   -3.759093

POLgen: Perturbative polarization orbital with L=  1

POLgen: Polarization orbital for state 1s

   izeta = 1
                     rc =    6.518340
                 energy =    0.533861
                kinetic =    1.121086
    potential(screened) =   -0.587225
       potential(ionic) =   -1.053027
atom: Total number of Sankey-type orbitals:  5

atm_pop: Valence configuration (for local Pseudopot. screening):
 1s( 1.00)                                                            
Vna: chval, zval:    1.00000   1.00000

Vna:  Cut-off radius for the neutral-atom potential:   6.518340

atom: _________________________________________________________________________

<basis_specs>
===============================================================================
N                    Z=   7    Mass=  14.010        Charge= 0.17977+309
Lmxo=1 Lmxkb= 3    BasisType=split      Semic=F
L=0  Nsemic=0  Cnfigmx=2
          i=1  nzeta=2  polorb=0  (2s)
            splnorm:   0.28000    
               vcte:    0.0000    
               rinn:    0.0000    
               qcoe:    0.0000    
               qyuk:    0.0000    
               qwid:   0.10000E-01
                rcs:    0.0000      0.0000    
            lambdas:    1.0000      1.0000    
L=1  Nsemic=0  Cnfigmx=2
          i=1  nzeta=2  polorb=1  (2p)
            splnorm:   0.28000    
               vcte:    0.0000    
               rinn:    0.0000    
               qcoe:    0.0000    
               qyuk:    0.0000    
               qwid:   0.10000E-01
                rcs:    0.0000      0.0000    
            lambdas:    1.0000      1.0000    
-------------------------------------------------------------------------------
L=0  Nkbl=1  erefs: 0.17977+309
L=1  Nkbl=1  erefs: 0.17977+309
L=2  Nkbl=1  erefs: 0.17977+309
L=3  Nkbl=1  erefs: 0.17977+309
===============================================================================
</basis_specs>

atom: Called for N                     (Z =   7)

read_vps: Pseudopotential generation method:
read_vps: ATM4.2.7  Troullier-Martins                       
Valence charge for ps generation:    5.00000

xc_check: Exchange-correlation functional:
xc_check: GGA Perdew, Burke & Ernzerhof 1996
V l=0 = -2*Zval/r beyond r=  1.2889
V l=1 = -2*Zval/r beyond r=  1.2889
V l=2 = -2*Zval/r beyond r=  3.4178
V l=3 = -2*Zval/r beyond r=  2.4084
All V_l potentials equal beyond r=  3.3753
This should be close to max(r_c) in ps generation
All pots = -2*Zval/r beyond r=  3.4178

VLOCAL1: 99.0% of the norm of Vloc inside      3.810 Ry
VLOCAL1: 99.9% of the norm of Vloc inside      8.683 Ry
atom: Maximum radius for 4*pi*r*r*local-pseudopot. charge    4.02088
atom: Maximum radius for r*vlocal+2*Zval:    3.54838
GHOST: No ghost state for L =  0
GHOST: No ghost state for L =  1
GHOST: No ghost state for L =  2
GHOST: No ghost state for L =  3

KBgen: Kleinman-Bylander projectors: 
   l= 0   rc=  3.417763   el= -1.365098   Ekb= -4.433130   kbcos= -0.707855
   l= 1   rc=  3.375302   el= -0.521201   Ekb=-13.264039   kbcos= -0.535594
   l= 2   rc=  3.872880   el=  0.001991   Ekb= -0.641094   kbcos= -0.062456
   l= 3   rc=  3.970931   el=  0.003093   Ekb= -0.474517   kbcos= -0.018236

KBgen: Total number of Kleinman-Bylander projectors:   16
atom: -------------------------------------------------------------------------

atom: SANKEY-TYPE ORBITALS:
atom: Selected multiple-zeta basis: split     

SPLIT: Orbitals with angular momentum L= 0

SPLIT: Basis orbitals for state 2s

SPLIT: PAO cut-off radius determined from an
SPLIT: energy shift=  0.002000 Ry

   izeta = 1
                 lambda =    1.000000
                     rc =    4.730425
                 energy =   -1.363399
                kinetic =    1.245246
    potential(screened) =   -2.608645
       potential(ionic) =   -8.121105

   izeta = 2
                 rmatch =    2.531849
              splitnorm =    0.280000
                 energy =   -0.959908
                kinetic =    2.409435
    potential(screened) =   -3.369343
       potential(ionic) =   -9.427975

SPLIT: Orbitals with angular momentum L= 1

SPLIT: Basis orbitals for state 2p

SPLIT: PAO cut-off radius determined from an
SPLIT: energy shift=  0.002000 Ry

   izeta = 1
                 lambda =    1.000000
                     rc =    5.924108
                 energy =   -0.519262
                kinetic =    3.672940
    potential(screened) =   -4.192202
       potential(ionic) =   -9.518354

   izeta = 2
                 rmatch =    2.531849
              splitnorm =    0.280000
                 energy =   -0.104258
                kinetic =    6.807538
    potential(screened) =   -6.911796
       potential(ionic) =  -13.149920

POLgen: Perturbative polarization orbital with L=  2

POLgen: Polarization orbital for state 2p

   izeta = 1
                     rc =    5.924108
                 energy =    1.427508
                kinetic =    2.872379
    potential(screened) =   -1.444871
       potential(ionic) =   -5.563644
atom: Total number of Sankey-type orbitals: 13

atm_pop: Valence configuration (for local Pseudopot. screening):
 2s( 2.00)                                                            
 2p( 3.00)                                                            
Vna: chval, zval:    5.00000   5.00000

Vna:  Cut-off radius for the neutral-atom potential:   5.924108

atom: _________________________________________________________________________

<basis_specs>
===============================================================================
Si                   Z=  14    Mass=  28.090        Charge= 0.17977+309
Lmxo=1 Lmxkb= 3    BasisType=split      Semic=F
L=0  Nsemic=0  Cnfigmx=3
          i=1  nzeta=2  polorb=0  (3s)
            splnorm:   0.28000    
               vcte:    0.0000    
               rinn:    0.0000    
               qcoe:    0.0000    
               qyuk:    0.0000    
               qwid:   0.10000E-01
                rcs:    0.0000      0.0000    
            lambdas:    1.0000      1.0000    
L=1  Nsemic=0  Cnfigmx=3
          i=1  nzeta=2  polorb=1  (3p)
            splnorm:   0.28000    
               vcte:    0.0000    
               rinn:    0.0000    
               qcoe:    0.0000    
               qyuk:    0.0000    
               qwid:   0.10000E-01
                rcs:    0.0000      0.0000    
            lambdas:    1.0000      1.0000    
-------------------------------------------------------------------------------
L=0  Nkbl=1  erefs: 0.17977+309
L=1  Nkbl=1  erefs: 0.17977+309
L=2  Nkbl=1  erefs: 0.17977+309
L=3  Nkbl=1  erefs: 0.17977+309
===============================================================================
</basis_specs>

atom: Called for Si                    (Z =  14)

read_vps: Pseudopotential generation method:
read_vps: ATM4.2.7  Troullier-Martins                       
Valence charge for ps generation:    4.00000

xc_check: Exchange-correlation functional:
xc_check: GGA Perdew, Burke & Ernzerhof 1996
V l=0 = -2*Zval/r beyond r=  2.7826
V l=1 = -2*Zval/r beyond r=  2.7826
V l=2 = -2*Zval/r beyond r=  2.9253
V l=3 = -2*Zval/r beyond r=  2.7826
All V_l potentials equal beyond r=  2.8530
This should be close to max(r_c) in ps generation
All pots = -2*Zval/r beyond r=  2.9253

VLOCAL1: 99.0% of the norm of Vloc inside      5.333 Ry
VLOCAL1: 99.9% of the norm of Vloc inside     12.154 Ry
atom: Maximum radius for 4*pi*r*r*local-pseudopot. charge    3.39869
atom: Maximum radius for r*vlocal+2*Zval:    2.96205
GHOST: No ghost state for L =  0
GHOST: No ghost state for L =  1
GHOST: No ghost state for L =  2
GHOST: No ghost state for L =  3

KBgen: Kleinman-Bylander projectors: 
   l= 0   rc=  3.075247   el= -0.794092   Ekb=  5.879390   kbcos=  0.167461
   l= 1   rc=  3.153101   el= -0.300068   Ekb=  2.642817   kbcos=  0.058301
   l= 2   rc=  3.273594   el=  0.001958   Ekb= -1.185135   kbcos= -0.104411
   l= 3   rc=  3.232927   el=  0.003046   Ekb= -0.497174   kbcos= -0.015889

KBgen: Total number of Kleinman-Bylander projectors:   16
atom: -------------------------------------------------------------------------

atom: SANKEY-TYPE ORBITALS:
atom: Selected multiple-zeta basis: split     

SPLIT: Orbitals with angular momentum L= 0

SPLIT: Basis orbitals for state 3s

SPLIT: PAO cut-off radius determined from an
SPLIT: energy shift=  0.002000 Ry

   izeta = 1
                 lambda =    1.000000
                     rc =    6.429618
                 energy =   -0.792283
                kinetic =    0.525293
    potential(screened) =   -1.317576
       potential(ionic) =   -3.744923

   izeta = 2
                 rmatch =    3.998416
              splitnorm =    0.280000
                 energy =   -0.583081
                kinetic =    1.069570
    potential(screened) =   -1.652651
       potential(ionic) =   -4.235185

SPLIT: Orbitals with angular momentum L= 1

SPLIT: Basis orbitals for state 3p

SPLIT: PAO cut-off radius determined from an
SPLIT: energy shift=  0.002000 Ry

   izeta = 1
                 lambda =    1.000000
                     rc =    8.464845
                 energy =   -0.298236
                kinetic =    0.785360
    potential(screened) =   -1.083596
       potential(ionic) =   -3.273779

   izeta = 2
                 rmatch =    4.587816
              splitnorm =    0.280000
                 energy =   -0.131871
                kinetic =    1.403687
    potential(screened) =   -1.535557
       potential(ionic) =   -4.015310

POLgen: Perturbative polarization orbital with L=  2

POLgen: Polarization orbital for state 3p

   izeta = 1
                     rc =    8.464845
                 energy =    0.321949
                kinetic =    1.055677
    potential(screened) =   -0.733728
       potential(ionic) =   -2.672950
atom: Total number of Sankey-type orbitals: 13

atm_pop: Valence configuration (for local Pseudopot. screening):
 3s( 2.00)                                                            
 3p( 2.00)                                                            
Vna: chval, zval:    4.00000   4.00000

Vna:  Cut-off radius for the neutral-atom potential:   8.464845

atom: _________________________________________________________________________

<basis_specs>
===============================================================================
O                    Z=   8    Mass=  16.000        Charge= 0.17977+309
Lmxo=1 Lmxkb= 3    BasisType=split      Semic=F
L=0  Nsemic=0  Cnfigmx=2
          i=1  nzeta=2  polorb=0  (2s)
            splnorm:   0.28000    
               vcte:    0.0000    
               rinn:    0.0000    
               qcoe:    0.0000    
               qyuk:    0.0000    
               qwid:   0.10000E-01
                rcs:    0.0000      0.0000    
            lambdas:    1.0000      1.0000    
L=1  Nsemic=0  Cnfigmx=2
          i=1  nzeta=2  polorb=1  (2p)
            splnorm:   0.28000    
               vcte:    0.0000    
               rinn:    0.0000    
               qcoe:    0.0000    
               qyuk:    0.0000    
               qwid:   0.10000E-01
                rcs:    0.0000      0.0000    
            lambdas:    1.0000      1.0000    
-------------------------------------------------------------------------------
L=0  Nkbl=1  erefs: 0.17977+309
L=1  Nkbl=1  erefs: 0.17977+309
L=2  Nkbl=1  erefs: 0.17977+309
L=3  Nkbl=1  erefs: 0.17977+309
===============================================================================
</basis_specs>

atom: Called for O                     (Z =   8)

read_vps: Pseudopotential generation method:
read_vps: ATM4.2.7  Troullier-Martins                       
Valence charge for ps generation:    6.00000

xc_check: Exchange-correlation functional:
xc_check: GGA Perdew, Burke & Ernzerhof 1996
V l=0 = -2*Zval/r beyond r=  1.1000
V l=1 = -2*Zval/r beyond r=  1.1000
V l=2 = -2*Zval/r beyond r=  2.2154
V l=3 = -2*Zval/r beyond r=  1.1000
All V_l potentials equal beyond r=  2.2154
This should be close to max(r_c) in ps generation
All pots = -2*Zval/r beyond r=  2.2154

VLOCAL1: 99.0% of the norm of Vloc inside      8.845 Ry
VLOCAL1: 99.9% of the norm of Vloc inside     20.157 Ry
atom: Maximum radius for 4*pi*r*r*local-pseudopot. charge    2.67231
atom: Maximum radius for r*vlocal+2*Zval:    2.32897
GHOST: No ghost state for L =  0
GHOST: No ghost state for L =  1
GHOST: No ghost state for L =  2
GHOST: No ghost state for L =  3

KBgen: Kleinman-Bylander projectors: 
   l= 0   rc=  2.243238   el= -1.759686   Ekb=**********   kbcos= -0.171774
   l= 1   rc=  2.328968   el= -0.663873   Ekb=-14.506792   kbcos= -0.519897
   l= 2   rc=  2.573941   el=  0.002031   Ekb= -1.137373   kbcos= -0.019581
   l= 3   rc=  2.606321   el=  0.003153   Ekb= -1.013546   kbcos= -0.003122

KBgen: Total number of Kleinman-Bylander projectors:   16
atom: -------------------------------------------------------------------------

atom: SANKEY-TYPE ORBITALS:
atom: Selected multiple-zeta basis: split     

SPLIT: Orbitals with angular momentum L= 0

SPLIT: Basis orbitals for state 2s

SPLIT: PAO cut-off radius determined from an
SPLIT: energy shift=  0.002000 Ry

   izeta = 1
                 lambda =    1.000000
                     rc =    4.243912
                 energy =   -1.758270
                kinetic =    3.286084
    potential(screened) =   -5.044353
       potential(ionic) =  -12.921184

   izeta = 2
                 rmatch =    2.187845
              splitnorm =    0.280000
                 energy =   -0.885018
                kinetic =    8.134434
    potential(screened) =   -9.019452
       potential(ionic) =  -17.710645

SPLIT: Orbitals with angular momentum L= 1

SPLIT: Basis orbitals for state 2p

SPLIT: PAO cut-off radius determined from an
SPLIT: energy shift=  0.002000 Ry

   izeta = 1
                 lambda =    1.000000
                     rc =    5.314825
                 energy =   -0.661986
                kinetic =    4.917472
    potential(screened) =   -5.579458
       potential(ionic) =  -13.236259

   izeta = 2
                 rmatch =    2.160663
              splitnorm =    0.280000
                 energy =   -0.068760
                kinetic =    9.183374
    potential(screened) =   -9.252135
       potential(ionic) =  -18.274251

POLgen: Perturbative polarization orbital with L=  2

POLgen: Polarization orbital for state 2p

   izeta = 1
                     rc =    5.314825
                 energy =    1.970580
                kinetic =    3.886128
    potential(screened) =   -1.915547
       potential(ionic) =   -7.749584
atom: Total number of Sankey-type orbitals: 13

atm_pop: Valence configuration (for local Pseudopot. screening):
 2s( 2.00)                                                            
 2p( 4.00)                                                            
Vna: chval, zval:    6.00000   6.00000

Vna:  Cut-off radius for the neutral-atom potential:   5.314825

atom: _________________________________________________________________________

prinput: Basis input ----------------------------------------------------------

PAO.BasisType split     

%block ChemicalSpeciesLabel
    1    1 H                       # Species index, atomic number, species label
    2    7 N                       # Species index, atomic number, species label
    3   14 Si                      # Species index, atomic number, species label
    4    8 O                       # Species index, atomic number, species label
%endblock ChemicalSpeciesLabel

%block PAO.Basis                 # Define Basis set
H                     1                    # Species label, number of l-shells
 n=1   0   2 P   1                   # n, l, Nzeta, Polarization, NzetaPol
   6.518      2.141   
   1.000      1.000   
N                     2                    # Species label, number of l-shells
 n=2   0   2                         # n, l, Nzeta 
   4.730      2.532   
   1.000      1.000   
 n=2   1   2 P   1                   # n, l, Nzeta, Polarization, NzetaPol
   5.924      2.532   
   1.000      1.000   
Si                    2                    # Species label, number of l-shells
 n=3   0   2                         # n, l, Nzeta 
   6.430      3.998   
   1.000      1.000   
 n=3   1   2 P   1                   # n, l, Nzeta, Polarization, NzetaPol
   8.465      4.588   
   1.000      1.000   
O                     2                    # Species label, number of l-shells
 n=2   0   2                         # n, l, Nzeta 
   4.244      2.188   
   1.000      1.000   
 n=2   1   2 P   1                   # n, l, Nzeta, Polarization, NzetaPol
   5.315      2.161   
   1.000      1.000   
%endblock PAO.Basis

prinput: ----------------------------------------------------------------------

Dumping basis to NetCDF file H.ion.nc
Dumping basis to NetCDF file N.ion.nc
Dumping basis to NetCDF file Si.ion.nc
Dumping basis to NetCDF file O.ion.nc
coor:   Atomic-coordinates input format  =     Cartesian coordinates
coor:                                          (in Angstroms)

siesta: Atomic coordinates (Bohr) and species
siesta:      4.87999 -10.91663   0.00000  1        1
siesta:      3.12704  -9.95765   0.00000  2        2
siesta:      0.11930 -11.53056   0.00000  3        3
siesta:      0.22530 -14.35597   0.00000  1        4
siesta:     -2.60195  -9.79371   0.00000  2        5
siesta:     -1.55784  -6.54009   0.00000  3        6
siesta:     -2.21206  -2.39996   0.00000  3        7
siesta:     -5.11537  -0.78899   0.00000  2        8
siesta:     -5.20538   1.19971   0.00000  1        9
siesta:     -6.87421  -1.71959   0.00000  1       10
siesta:      0.41213  -0.44256   0.00000  2       11
siesta:      3.53758  -1.31745   0.00000  3       12
siesta:      5.34415   0.87204   0.00000  1       13
siesta:      5.00428  -4.26138   0.00000  2       14
siesta:      2.63035  -6.52849   0.00000  3       15
siesta:      3.55504  10.98222   0.00000  2       16
siesta:      1.04667  13.26917   0.00000  3       17
siesta:      2.25609  15.84169   0.00000  1       18
siesta:     -2.89482  12.00205   0.00000  3       19
siesta:     -6.73014  14.13766   0.00000  3       20
siesta:     -6.43868  16.33018   1.77692  1       21
siesta:     -8.59329  12.20651   0.96870  1       22
siesta:     -7.51667  15.03760  -2.58265  1       23
siesta:     -2.76916   7.70486   0.00000  3       24
siesta:     -4.73268   5.45030   0.00000  4       25
siesta:      0.36210   6.50682   0.00000  2       26
siesta:      0.32805   4.49908   0.00000  1       27
siesta:      3.43026   7.63511   0.00000  3       28
siesta:      5.68852   5.71813   0.00000  4       29
siesta:      5.44483  11.63513   0.00000  1       30

siesta: Automatic unit cell vectors (Ang):
siesta:   15.831468    0.000000    0.000000
siesta:    0.000000   25.450828    0.000000
siesta:    0.000000    0.000000   10.224979

siesta: System type = molecule  

initatomlists: Number of atoms, orbitals, and projectors:     30   302   403

siesta: ******************** Simulation parameters ****************************
siesta:
siesta: The following are some of the parameters of the simulation.
siesta: A complete list of the parameters used, including default values,
siesta: can be found in file out.fdf
siesta:
redata: Spin configuration                          = spin-orbit
redata: Number of spin components                   = 8
redata: Time-Reversal Symmetry                      = F
redata: Spin spiral                                 = F
############################################################
This spin-orbit implementation uses a local approximation.
From 4.2 and onwards the full non-local approximation is implemented
You are strongly advised to use >=4.2 versions!
############################################################
redata: Long output                                 =   F
redata: Number of Atomic Species                    =        4
redata: Charge density info will appear in .RHO file
redata: Write Mulliken Pop.                         = Atomic and Orbital charges
redata: Matel table size (NRTAB)                    =     1024
redata: Mesh Cutoff                                 =   340.0000 Ry
redata: Net charge of the system                    =     0.0000 |e|
redata: Min. number of SCF Iter                     =        1
redata: Max. number of SCF Iter                     =      200
redata: SCF mix quantity                            = Hamiltonian
redata: Mix DM or H after convergence               =   F
redata: Recompute H after scf cycle                 =   F
redata: Mix DM in first SCF step                    =   T
redata: Write Pulay info on disk                    =   F
redata: New DM Occupancy tolerance                  = 0.000000000001
redata: No kicks to SCF
redata: DM Mixing Weight for Kicks                  =     0.5000
redata: Require Harris convergence for SCF          =   F
redata: Harris energy tolerance for SCF             =     0.000100 eV
redata: Require DM convergence for SCF              =   T
redata: DM tolerance for SCF                        =     0.000008
redata: Require EDM convergence for SCF             =   F
redata: EDM tolerance for SCF                       =     0.001000 eV
redata: Require H convergence for SCF               =   T
redata: Hamiltonian tolerance for SCF               =     0.000001 eV
redata: Require (free) Energy convergence for SCF   =   F
redata: (free) Energy tolerance for SCF             =     0.000100 eV
redata: Using Saved Data (generic)                  =   F
redata: Use continuation files for DM               =   F
redata: Neglect nonoverlap interactions             =   F
redata: Method of Calculation                       = Diagonalization
redata: Electronic Temperature                      =   299.9978 K
redata: Fix the spin of the system                  =   F
redata: Dynamics option                             = Single-point calculation
mix.SCF: Pulay mixing                            = Pulay
mix.SCF:    Variant                              = stable
mix.SCF:    History steps                        = 6
mix.SCF:    Linear mixing weight                 =     0.250000
mix.SCF:    Mixing weight                        =     0.250000
mix.SCF:    SVD condition                        = 0.1000E-07
mix.SCF:    Restart steps                        = 24
mix.SCF:    Restart save steps                   = 3
mix.SCF: Spin-component mixing                   all
redata: Save all siesta data in one NC              =   F
redata: ***********************************************************************

%block SCF.Mixers
  Pulay
%endblock SCF.Mixers

%block SCF.Mixer.Pulay
  # Mixing method
  method pulay
  variant stable

  # Mixing options
  weight 0.2500
  weight.linear 0.2500
  history 6
  restart 24
  restart.save 3
%endblock SCF.Mixer.Pulay

DM_history_depth set to one: no extrapolation allowed by default for geometry relaxation
Size of DM history Fstack: 1
Total number of electrons:    98.000000
Total ionic charge:    98.000000

* ProcessorY, Blocksize:    2  24


* Orbital distribution balance (max,min):    62    48


Time-reversal symmetry not used.

siesta: k-grid: Number of k-points =     1
siesta: k-grid: Cutoff (effective) =     5.112 Ang
siesta: k-grid: Supercell and displacements
siesta: k-grid:    1   0   0      0.000
siesta: k-grid:    0   1   0      0.000
siesta: k-grid:    0   0   1      0.000

diag: Algorithm                                     = ELPA-1stage
diag: Parallel over k                               =   F
diag: Use parallel 2D distribution                  =   T
diag: Parallel block-size                           = 24
diag: Parallel distribution                         =     2 x     3
diag: Used triangular part                          = Lower
diag: Absolute tolerance                            =  0.100E-15
diag: Orthogonalization factor                      =  0.100E-05
diag: Memory factor                                 =  1.0000


ts: **************************************************************
ts: Save H and S matrices                           =    F
ts: Save DM and EDM matrices                        =    F
ts: Only save the overlap matrix S                  =    F
ts: **************************************************************

************************ Begin: TS CHECKS AND WARNINGS ************************
************************ End: TS CHECKS AND WARNINGS **************************


                     ====================================
                        Single-point calculation
                     ====================================

outcoor: Atomic coordinates (Ang):                          
    2.58237765   -5.77683044    0.00000000   1       1  H
    1.65475924   -5.26936198    0.00000000   2       2  N
    0.06312884   -6.10170459    0.00000000   3       3  Si
    0.11922324   -7.59684950    0.00000000   1       4  H
   -1.37689205   -5.18260374    0.00000000   2       5  N
   -0.82437190   -3.46086644    0.00000000   3       6  Si
   -1.17057148   -1.27000210    0.00000000   3       7  Si
   -2.70693368   -0.41751578    0.00000000   2       8  N
   -2.75456966    0.63485862    0.00000000   1       9  H
   -3.63767564   -0.90996786    0.00000000   1      10  H
    0.21809179   -0.23419397    0.00000000   2      11  N
    1.87200410   -0.69716230    0.00000000   3      12  Si
    2.82800113    0.46146477    0.00000000   1      13  H
    2.64815008   -2.25502447    0.00000000   2      14  N
    1.39192138   -3.45472722    0.00000000   3      15  Si
    1.88124378    5.81153580    0.00000000   2      16  N
    0.55387226    7.02174010    0.00000000   3      17  Si
    1.19387353    8.38305834    0.00000000   1      18  H
   -1.53187368    6.35120875    0.00000000   3      19  Si
   -3.56143628    7.48132494    0.00000000   3      20  Si
   -3.40720051    8.64155515    0.94030528   1      21  H
   -4.54737100    6.45940432    0.51261370   1      22  H
   -3.97765124    7.95755079   -1.36667834   1      23  H
   -1.46537826    4.07723213    0.00000000   3      24  Si
   -2.50442699    2.88417263    0.00000000   4      25  O
    0.19161332    3.44325694    0.00000000   2      26  N
    0.17359595    2.38081211    0.00000000   1      27  H
    1.81521639    4.04032715    0.00000000   3      28  Si
    3.01023256    3.02590195    0.00000000   4      29  O
    2.88128115    6.15704290    0.00000000   1      30  H

outcell: Unit cell vectors (Ang):
       15.831468    0.000000    0.000000
        0.000000   25.450828    0.000000
        0.000000    0.000000   10.224979

outcell: Cell vector modules (Ang)   :   15.831468   25.450828   10.224979
outcell: Cell angles (23,13,12) (deg):     90.0000     90.0000     90.0000
outcell: Cell volume (Ang**3)        :   4119.8891
<dSpData1D:S at geom step 0
  <sparsity:sparsity for geom step 0
    nrows_g=302 nrows=62 sparsity=.1329 nnzs=12125, refcount: 8>
  <dData1D:(new from dSpData1D) n=12125, refcount: 1>
refcount: 1>
new_DM -- step:     1
Initializing Density Matrix...
DM filled with atomic data:
<dSpData2D:DM initialized from atoms
  <sparsity:sparsity for geom step 0
    nrows_g=302 nrows=62 sparsity=.1329 nnzs=12125, refcount: 9>
  <dData2D:DM n=12125 m=8, refcount: 1>
refcount: 1>
     spin moment: S , {S} =   56.00000   0.00000   0.00000  56.00000
No. of atoms with KB's overlaping orbs in proc 0. Max # of overlaps:      24     179

Initializing spin-orbit part of the Hamiltonian
  Adding spin-orbit effects for H 
  Adding spin-orbit effects for N 
  Adding spin-orbit effects for Si
  Adding spin-orbit effects for O 


New grid distribution:   1
           1       1:   90    1:   72    1:   20
           2       1:   90    1:   72   21:   40
           3       1:   90    1:   72   41:   60
           4       1:   90   73:  144    1:   20
           5       1:   90   73:  144   21:   40
           6       1:   90   73:  144   41:   60

InitMesh: MESH =   180 x   288 x   120 =     6220800
InitMesh: (bp) =    90 x   144 x    60 =      777600
InitMesh: Mesh cutoff (required, used) =   340.000   353.902 Ry
ExtMesh (bp) on 0 =   194 x   176 x   128 =     4370432
New grid distribution:   2
           1      14:   90   24:   43    1:   60
           2       1:   12   44:  144    1:   60
           3       1:   13    1:   43    1:   60
           4      13:   90   44:  123    1:   60
           5      14:   90    1:   23    1:   60
           6      13:   90  124:  144    1:   60
New grid distribution:   3
           1       1:   18   54:  144    1:   60
           2      23:   90   30:   53    1:   60
           3       1:   22    1:   53    1:   60
           4      19:   90   54:  117    1:   60
           5      23:   90    1:   29    1:   60
           6      19:   90  118:  144    1:   60
Setting up quadratic distribution...
ExtMesh (bp) on 0 =   181 x   124 x   168 =     3770592
PhiOnMesh: Number of (b)points on node 0 =                92400
PhiOnMesh: nlist on node 0 =              1750296

stepf: Fermi-Dirac step function

siesta: Program's energy decomposition (eV):
siesta: Ebs     =      -618.947648
siesta: Eions   =      3553.971015
siesta: Ena     =       377.696076
siesta: Ekin    =      3178.708346
siesta: Enl     =     -2994.241413
siesta: Eso     =        -0.003930
siesta: Edftu   =         0.000000
siesta: DEna    =       130.301213
siesta: DUscf   =        75.108036
siesta: DUext   =         0.000000
siesta: Exc     =     -1170.438285
siesta: eta*DQ  =         0.000000
siesta: Emadel  =         0.000000
siesta: Emeta   =         0.000000
siesta: Emolmec =         0.000000
siesta: Ekinion =         0.000000
siesta: Eharris =     -3886.280661
siesta: Etot    =     -3956.840971
siesta: FreeEng =     -3956.845171

        iscf     Eharris(eV)        E_KS(eV)     FreeEng(eV)     dDmax    Ef(eV) dHmax(eV)
   scf:    1    -3886.280661    -3956.840971    -3956.845171  0.970898 -4.941419 21.067039
     spin moment: S , {S} =    2.03171   0.00003   0.00001   2.03171
timer: Routine,Calls,Time,% = IterSCF        1       5.527  21.10
   scf:    2    -4000.042409    -3990.613102    -3990.613104  0.456047 -4.353662 10.170939
     spin moment: S , {S} =    2.00010  -0.00001   0.00004   2.00010
   scf:    3    -3992.798053    -3995.679733    -3995.698700  0.417478 -4.239441  7.522571
     spin moment: S , {S} =    0.23695   0.00001  -0.00000   0.23695
   scf:    4    -3999.543344    -3997.846895    -3997.846895  0.040050 -3.934582  5.317887
     spin moment: S , {S} =    0.00009   0.00001  -0.00000   0.00009
   scf:    5    -3999.395723    -3998.649465    -3998.649466  0.032888 -3.856246  2.783853
     spin moment: S , {S} =    0.00005   0.00000  -0.00000   0.00005
   scf:    6    -3999.304484    -3998.976074    -3998.976080  0.028993 -3.888431  1.060788
     spin moment: S , {S} =    0.00004   0.00000  -0.00000   0.00004
   scf:    7    -3999.189463    -3999.078577    -3999.078633  0.017364 -3.935435  0.415510
     spin moment: S , {S} =    0.00001   0.00000  -0.00000   0.00001
   scf:    8    -3999.143341    -3999.109779    -3999.110007  0.009243 -3.960563  0.195655
     spin moment: S , {S} =    0.00052   0.00000  -0.00000  -0.00052
   scf:    9    -3999.142674    -3999.125250    -3999.125729  0.006993 -3.970549  0.097410
     spin moment: S , {S} =    0.00133   0.00000   0.00000  -0.00133
   scf:   10    -3999.142052    -3999.133027    -3999.133563  0.006388 -3.972026  0.070827
     spin moment: S , {S} =    0.00101   0.00000   0.00000  -0.00101
   scf:   11    -3999.143073    -3999.137449    -3999.138020  0.006699 -3.971304  0.042635
     spin moment: S , {S} =    0.00042   0.00000   0.00000  -0.00042
   scf:   12    -3999.140245    -3999.138686    -3999.139239  0.004105 -3.970234  0.028470
     spin moment: S , {S} =    0.00007   0.00000   0.00000  -0.00007
   scf:   13    -3999.139650    -3999.139106    -3999.139657  0.002836 -3.969907  0.020187
     spin moment: S , {S} =    0.00001   0.00000   0.00000  -0.00001
   scf:   14    -3999.139439    -3999.139253    -3999.139793  0.001784 -3.969482  0.012380
     spin moment: S , {S} =    0.00001   0.00000   0.00000  -0.00001
   scf:   15    -3999.139392    -3999.139312    -3999.139848  0.001387 -3.969329  0.006882
     spin moment: S , {S} =    0.00002   0.00000   0.00000  -0.00002
   scf:   16    -3999.139353    -3999.139331    -3999.139864  0.000636 -3.969333  0.004291
     spin moment: S , {S} =    0.00002   0.00000   0.00000  -0.00002
   scf:   17    -3999.139350    -3999.139339    -3999.139873  0.000551 -3.969404  0.002445
     spin moment: S , {S} =    0.00001   0.00000   0.00000  -0.00001
   scf:   18    -3999.139345    -3999.139342    -3999.139875  0.000347 -3.969464  0.001164
     spin moment: S , {S} =    0.00000   0.00000   0.00000  -0.00000
   scf:   19    -3999.139343    -3999.139342    -3999.139876  0.000199 -3.969473  0.000717
     spin moment: S , {S} =    0.00000   0.00000   0.00000   0.00000
   scf:   20    -3999.139342    -3999.139342    -3999.139877  0.000069 -3.969452  0.000513
     spin moment: S , {S} =    0.00000   0.00000   0.00000   0.00000
   scf:   21    -3999.139342    -3999.139342    -3999.139877  0.000053 -3.969437  0.000359
     spin moment: S , {S} =    0.00000   0.00000   0.00000   0.00000
   scf:   22    -3999.139342    -3999.139342    -3999.139877  0.000023 -3.969434  0.000249
     spin moment: S , {S} =    0.00000   0.00000   0.00000  -0.00000
   scf:   23    -3999.139343    -3999.139342    -3999.139877  0.000019 -3.969438  0.000154
     spin moment: S , {S} =    0.00000   0.00000   0.00000  -0.00000
   scf:   24    -3999.139343    -3999.139342    -3999.139877  0.000017 -3.969441  0.000071
     spin moment: S , {S} =    0.00000   0.00000   0.00000  -0.00000
mix: Pulay -- resetting history
   scf:   25    -3999.139342    -3999.139342    -3999.139877  0.000006 -3.969442  0.000041
     spin moment: S , {S} =    0.00000  -0.00000   0.00000  -0.00000
   scf:   26    -3999.139342    -3999.139342    -3999.139877  0.000003 -3.969441  0.000023
     spin moment: S , {S} =    0.00000  -0.00000   0.00000  -0.00000
   scf:   27    -3999.139342    -3999.139342    -3999.139877  0.000003 -3.969441  0.000008
     spin moment: S , {S} =    0.00000  -0.00000   0.00000  -0.00000
   scf:   28    -3999.139342    -3999.139342    -3999.139877  0.000001 -3.969441  0.000005
     spin moment: S , {S} =    0.00000  -0.00000   0.00000  -0.00000
   scf:   29    -3999.139342    -3999.139342    -3999.139877  0.000001 -3.969441  0.000003
     spin moment: S , {S} =    0.00000  -0.00000   0.00000  -0.00000
   scf:   30    -3999.139342    -3999.139342    -3999.139877  0.000000 -3.969441  0.000001
     spin moment: S , {S} =    0.00000  -0.00000   0.00000  -0.00000
   scf:   31    -3999.139342    -3999.139342    -3999.139877  0.000000 -3.969441  0.000001
     spin moment: S , {S} =    0.00000  -0.00000   0.00000  -0.00000

SCF Convergence by DM+H criterion
max |DM_out - DM_in|         :     0.0000000787
max |H_out - H_in|      (eV) :     0.0000009982
SCF cycle converged after 31 iterations

Using DM_out to compute the final energy and forces
No. of atoms with KB's overlaping orbs in proc 0. Max # of overlaps:      24     179

siesta: E_KS(eV) =            -3999.1393

siesta: E_KS - E_eggbox =     -3999.1393
     spin moment: S , {S} =    0.00000  -0.00000   0.00000  -0.00000

siesta: Atomic forces (eV/Ang):
     1   -0.022034    0.043350    0.000003
     2   -0.011528   -0.059714   -0.000005
     3    0.010460    0.045979   -0.000006
     4   -0.059693   -0.023987    0.000007
     5    0.010387   -0.033717   -0.000014
     6    0.089129    0.003706    0.000041
     7   -0.467989    0.186236    0.000034
     8    0.179436   -0.266515   -0.000184
     9    0.063025    0.330773    0.000300
    10    0.111206    0.039915    0.000027
    11    0.015497    0.182507   -0.000066
    12    0.309760    0.109952   -0.000024
    13   -0.144451   -0.127880   -0.000009
    14   -0.071696   -0.087164    0.000026
    15    0.004251    0.047909   -0.000014
    16    0.023231    0.086145    0.007991
    17    0.036540   -0.078708   -0.039868
    18   -0.075034    0.086901    0.008368
    19   -0.062991    0.014260   -0.041424
    20    0.040489   -0.040315    0.023941
    21   -0.168003    0.198221    0.067334
    22   -0.089614    0.023407    0.025829
    23    0.128288    0.007314   -0.039220
    24    0.301500   -0.105119   -0.026385
    25   -0.537860    3.120436    0.002801
    26   -0.067865    0.256447    0.006698
    27    0.070399   -0.302787    0.002851
    28   -0.158777   -0.148693   -0.000842
    29   -2.110201   -3.519311   -0.001105
    30    0.078036    0.208128    0.008158
----------------------------------------
   Tot   -2.576099    0.197675    0.005242
----------------------------------------
   Max    3.519311
   Res    0.558477    sqrt( Sum f_i^2 / 3N )
----------------------------------------
   Max    3.519311    constrained

Stress tensor Voigt[x,y,z,yz,xz,xy] (kbar):       -1.72       -0.17       -0.21       -0.05        0.05        0.31
(Free)E + p*V (eV/cell)    -3997.3429
Target enthalpy (eV/cell)    -3999.1399

mulliken: Atomic and Orbital Populations:

Species: H                   

Atom      Orb        Charge      Spin       Svec
----------------------------------------------------------------
    1  1 1s         0.50982   0.00000     -0.000   0.000  -0.000
    1  2 1s         0.18784   0.00000      0.000   0.000  -0.000
    1  3 2Ppy       0.02811   0.00000     -0.000   0.000  -0.000
    1  4 2Ppz       0.04014   0.00000     -0.000  -0.000  -0.000
    1  5 2Ppx       0.02516   0.00000     -0.000   0.000  -0.000
    1     Total     0.79107   0.00000     -0.000   0.000  -0.000

    4  1 1s         1.02451   0.00000      0.000   0.000   0.000
    4  2 1s         0.09510   0.00000     -0.000  -0.000  -0.000
    4  3 2Ppy       0.03894   0.00000      0.000   0.000   0.000
    4  4 2Ppz       0.02005   0.00000      0.000   0.000  -0.000
    4  5 2Ppx       0.01357   0.00000     -0.000   0.000  -0.000
    4     Total     1.19217   0.00000      0.000   0.000   0.000

    9  1 1s         0.46019   0.00000      0.000   0.000  -0.000
    9  2 1s         0.19583   0.00000     -0.000  -0.000  -0.000
    9  3 2Ppy       0.04724   0.00000     -0.000  -0.000  -0.000
    9  4 2Ppz       0.04533   0.00000     -0.000  -0.000  -0.000
    9  5 2Ppx       0.01181   0.00000      0.000  -0.000  -0.000
    9     Total     0.76041   0.00000     -0.000  -0.000  -0.000

   10  1 1s         0.49037   0.00000      0.000   0.000  -0.000
   10  2 1s         0.19474   0.00000     -0.000   0.000  -0.000
   10  3 2Ppy       0.00769   0.00000      0.000  -0.000  -0.000
   10  4 2Ppz       0.05344   0.00000     -0.000  -0.000  -0.000
   10  5 2Ppx       0.03012   0.00000      0.000   0.000  -0.000
   10     Total     0.77636   0.00000     -0.000  -0.000  -0.000

   13  1 1s         0.96537   0.00000      0.000   0.000   0.000
   13  2 1s         0.10617   0.00000      0.000  -0.000  -0.000
   13  3 2Ppy       0.03533   0.00000     -0.000   0.000  -0.000
   13  4 2Ppz       0.01416   0.00000      0.000   0.000  -0.000
   13  5 2Ppx       0.01892   0.00000     -0.000   0.000  -0.000
   13     Total     1.13995   0.00000      0.000   0.000   0.000

   18  1 1s         1.04903   0.00000     -0.000   0.000   0.000
   18  2 1s         0.08387   0.00000      0.000  -0.000  -0.000
   18  3 2Ppy       0.02795   0.00000      0.000  -0.000  -0.000
   18  4 2Ppz       0.01890   0.00000      0.000   0.000  -0.000
   18  5 2Ppx       0.01758   0.00000      0.000  -0.000   0.000
   18     Total     1.19733   0.00000     -0.000   0.000   0.000

   21  1 1s         1.06626   0.00000     -0.000  -0.000   0.000
   21  2 1s         0.08261   0.00000      0.000   0.000   0.000
   21  3 2Ppy       0.02233   0.00000     -0.000  -0.000  -0.000
   21  4 2Ppz       0.02109   0.00000     -0.000  -0.000  -0.000
   21  5 2Ppx       0.01156   0.00000      0.000   0.000  -0.000
   21     Total     1.20386   0.00000     -0.000   0.000   0.000

   22  1 1s         1.05282   0.00000     -0.000  -0.000   0.000
   22  2 1s         0.08341   0.00000      0.000   0.000  -0.000
   22  3 2Ppy       0.02004   0.00000      0.000   0.000   0.000
   22  4 2Ppz       0.01771   0.00000     -0.000  -0.000  -0.000
   22  5 2Ppx       0.01711   0.00000     -0.000  -0.000  -0.000
   22     Total     1.19109   0.00000     -0.000  -0.000   0.000

   23  1 1s         1.06450   0.00000      0.000   0.000   0.000
   23  2 1s         0.08229   0.00000     -0.000   0.000  -0.000
   23  3 2Ppy       0.01685   0.00000     -0.000  -0.000  -0.000
   23  4 2Ppz       0.02464   0.00000     -0.000   0.000  -0.000
   23  5 2Ppx       0.01346   0.00000      0.000   0.000  -0.000
   23     Total     1.20174   0.00000      0.000   0.000   0.000

   27  1 1s         0.45312   0.00000     -0.000   0.000  -0.000
   27  2 1s         0.19037   0.00000      0.000  -0.000  -0.000
   27  3 2Ppy       0.03800   0.00000     -0.000  -0.000  -0.000
   27  4 2Ppz       0.02265   0.00000     -0.000   0.000  -0.000
   27  5 2Ppx       0.02841   0.00000      0.000   0.000  -0.000
   27     Total     0.73255   0.00000     -0.000   0.000  -0.000

   30  1 1s         0.48553   0.00000     -0.000  -0.000  -0.000
   30  2 1s         0.18892   0.00000     -0.000   0.000  -0.000
   30  3 2Ppy       0.02739   0.00000      0.000   0.000  -0.000
   30  4 2Ppz       0.03446   0.00000      0.000   0.000  -0.000
   30  5 2Ppx       0.02376   0.00000     -0.000  -0.000  -0.000
   30     Total     0.76006   0.00000     -0.000   0.000  -0.000

----------------------------------------------------------------
Total              10.94659   0.00000     -0.000   0.000   0.000


Species: N                   

Atom      Orb        Charge      Spin       Svec
----------------------------------------------------------------
    2  1 2s         1.38024   0.00000      0.000  -0.000  -0.000
    2  2 2s         0.12709   0.00000     -0.000   0.000   0.000
    2  3 2py        1.06890   0.00000      0.000   0.000  -0.000
    2  4 2pz        1.49482   0.00000      0.000   0.000  -0.000
    2  5 2px        1.01661   0.00000      0.000   0.000   0.000
    2  6 2py        0.19584   0.00000     -0.000  -0.000   0.000
    2  7 2pz        0.01447   0.00000     -0.000   0.000  -0.000
    2  8 2px        0.21024   0.00000     -0.000  -0.000   0.000
    2  9 3Pdxy      0.00680   0.00000     -0.000   0.000   0.000
    2 10 3Pdyz      0.00609   0.00000     -0.000  -0.000   0.000
    2 11 3Pdz2      0.00154   0.00000      0.000   0.000  -0.000
    2 12 3Pdxz      0.00304   0.00000     -0.000  -0.000  -0.000
    2 13 3Pdx2-y2   0.00297   0.00000      0.000   0.000  -0.000
    2     Total     5.52865   0.00000      0.000   0.000  -0.000

    5  1 2s         1.55765   0.00000     -0.000   0.000   0.000
    5  2 2s         0.08143   0.00000      0.000  -0.000  -0.000
    5  3 2py        0.90411   0.00000      0.000  -0.000   0.000
    5  4 2pz        1.22278   0.00000     -0.000   0.000   0.000
    5  5 2px        1.14293   0.00000     -0.000   0.000   0.000
    5  6 2py        0.22976   0.00000     -0.000   0.000  -0.000
    5  7 2pz        0.05524   0.00000     -0.000   0.000  -0.000
    5  8 2px        0.14614   0.00000      0.000   0.000  -0.000
    5  9 3Pdxy      0.00854   0.00000     -0.000   0.000   0.000
    5 10 3Pdyz      0.00706   0.00000      0.000  -0.000  -0.000
    5 11 3Pdz2      0.00190   0.00000      0.000  -0.000  -0.000
    5 12 3Pdxz      0.01128   0.00000      0.000   0.000  -0.000
    5 13 3Pdx2-y2   0.00919   0.00000      0.000  -0.000   0.000
    5     Total     5.37801   0.00000     -0.000   0.000   0.000

    8  1 2s         1.27810   0.00000     -0.000   0.000   0.000
    8  2 2s         0.17429   0.00000      0.000   0.000   0.000
    8  3 2py        1.08226   0.00000     -0.000   0.000   0.000
    8  4 2pz        1.55536   0.00000      0.000   0.000  -0.000
    8  5 2px        0.99477   0.00000     -0.000   0.000   0.000
    8  6 2py        0.19352   0.00000      0.000  -0.000   0.000
    8  7 2pz        0.02753   0.00000     -0.000  -0.000  -0.000
    8  8 2px        0.23036   0.00000      0.000  -0.000   0.000
    8  9 3Pdxy      0.00287   0.00000     -0.000   0.000  -0.000
    8 10 3Pdyz      0.00093   0.00000     -0.000   0.000  -0.000
    8 11 3Pdz2      0.00259   0.00000      0.000  -0.000   0.000
    8 12 3Pdxz      0.00239   0.00000      0.000  -0.000  -0.000
    8 13 3Pdx2-y2   0.00415   0.00000     -0.000   0.000  -0.000
    8     Total     5.54911   0.00000     -0.000   0.000   0.000

   11  1 2s         1.45858   0.00000     -0.000  -0.000   0.000
   11  2 2s         0.11193   0.00000      0.000  -0.000   0.000
   11  3 2py        1.24660   0.00000      0.000   0.000   0.000
   11  4 2pz        1.30579   0.00000     -0.000  -0.000   0.000
   11  5 2px        0.80960   0.00000      0.000  -0.000   0.000
   11  6 2py        0.09984   0.00000     -0.000  -0.000  -0.000
   11  7 2pz        0.04143   0.00000      0.000   0.000  -0.000
   11  8 2px        0.31511   0.00000     -0.000   0.000  -0.000
   11  9 3Pdxy      0.00720   0.00000      0.000  -0.000   0.000
   11 10 3Pdyz      0.00561   0.00000      0.000   0.000  -0.000
   11 11 3Pdz2      0.00037   0.00000     -0.000   0.000  -0.000
   11 12 3Pdxz      0.00500   0.00000     -0.000   0.000  -0.000
   11 13 3Pdx2-y2   0.00493   0.00000      0.000   0.000   0.000
   11     Total     5.41200   0.00000     -0.000  -0.000   0.000

   14  1 2s         1.50205   0.00000     -0.000  -0.000   0.000
   14  2 2s         0.10457   0.00000      0.000   0.000  -0.000
   14  3 2py        0.84551   0.00000      0.000  -0.000   0.000
   14  4 2pz        1.23758   0.00000      0.000   0.000   0.000
   14  5 2px        1.16935   0.00000     -0.000   0.000  -0.000
   14  6 2py        0.27750   0.00000     -0.000   0.000  -0.000
   14  7 2pz        0.05471   0.00000     -0.000   0.000   0.000
   14  8 2px        0.13441   0.00000      0.000  -0.000  -0.000
   14  9 3Pdxy      0.00941   0.00000     -0.000   0.000  -0.000
   14 10 3Pdyz      0.00481   0.00000      0.000  -0.000   0.000
   14 11 3Pdz2      0.00149   0.00000     -0.000   0.000   0.000
   14 12 3Pdxz      0.01067   0.00000     -0.000  -0.000  -0.000
   14 13 3Pdx2-y2   0.00805   0.00000     -0.000  -0.000   0.000
   14     Total     5.36011   0.00000      0.000   0.000   0.000

   16  1 2s         1.37008   0.00000     -0.000   0.000   0.000
   16  2 2s         0.13035   0.00000      0.000  -0.000  -0.000
   16  3 2py        0.99120   0.00000     -0.000  -0.000   0.000
   16  4 2pz        1.54622   0.00000     -0.000   0.000   0.000
   16  5 2px        1.07938   0.00000     -0.000   0.000   0.000
   16  6 2py        0.23990   0.00000     -0.000   0.000  -0.000
   16  7 2pz        0.00343   0.00000      0.000   0.000  -0.000
   16  8 2px        0.18092   0.00000      0.000  -0.000  -0.000
   16  9 3Pdxy      0.00167   0.00000     -0.000  -0.000   0.000
   16 10 3Pdyz      0.00474   0.00000     -0.000   0.000  -0.000
   16 11 3Pdz2      0.00097   0.00000     -0.000  -0.000   0.000
   16 12 3Pdxz      0.00235   0.00000      0.000  -0.000  -0.000
   16 13 3Pdx2-y2   0.00605   0.00000     -0.000   0.000  -0.000
   16     Total     5.55728   0.00000     -0.000   0.000   0.000

   26  1 2s         1.35782   0.00000      0.000   0.000   0.000
   26  2 2s         0.13272   0.00000     -0.000  -0.000  -0.000
   26  3 2py        1.11918   0.00000     -0.000  -0.000   0.000
   26  4 2pz        1.52131   0.00000     -0.000   0.000   0.000
   26  5 2px        0.92629   0.00000     -0.000   0.000   0.000
   26  6 2py        0.17361   0.00000      0.000   0.000   0.000
   26  7 2pz        0.00532   0.00000     -0.000  -0.000  -0.000
   26  8 2px        0.27404   0.00000      0.000   0.000  -0.000
   26  9 3Pdxy      0.00077   0.00000     -0.000   0.000  -0.000
   26 10 3Pdyz      0.00093   0.00000     -0.000   0.000  -0.000
   26 11 3Pdz2     -0.00133   0.00000     -0.000  -0.000  -0.000
   26 12 3Pdxz      0.00454   0.00000      0.000  -0.000  -0.000
   26 13 3Pdx2-y2   0.00224   0.00000     -0.000   0.000  -0.000
   26     Total     5.51744   0.00000     -0.000   0.000   0.000

----------------------------------------------------------------
Total              49.24920   0.00000     -0.000   0.000   0.000


Species: Si                  

Atom      Orb        Charge      Spin       Svec
----------------------------------------------------------------
    3  1 3s         0.55051   0.00000      0.000  -0.000  -0.000
    3  2 3s         0.38737   0.00000     -0.000   0.000  -0.000
    3  3 3py        0.08319   0.00000     -0.000   0.000  -0.000
    3  4 3pz        0.53921   0.00000     -0.000  -0.000  -0.000
    3  5 3px        0.36956   0.00000     -0.000  -0.000  -0.000
    3  6 3py        0.49746   0.00000      0.000  -0.000   0.000
    3  7 3pz        0.17523   0.00000      0.000   0.000  -0.000
    3  8 3px        0.23676   0.00000      0.000   0.000   0.000
    3  9 3Pdxy      0.10865   0.00000     -0.000   0.000  -0.000
    3 10 3Pdyz      0.05241   0.00000      0.000  -0.000  -0.000
    3 11 3Pdz2      0.01019   0.00000      0.000  -0.000   0.000
    3 12 3Pdxz      0.13331   0.00000     -0.000   0.000  -0.000
    3 13 3Pdx2-y2   0.32463   0.00000      0.000  -0.000   0.000
    3     Total     3.46847   0.00000      0.000  -0.000  -0.000

    6  1 3s         0.65956   0.00000      0.000  -0.000  -0.000
    6  2 3s         0.37061   0.00000     -0.000   0.000  -0.000
    6  3 3py        0.12598   0.00000     -0.000   0.000  -0.000
    6  4 3pz        0.69717   0.00000      0.000  -0.000  -0.000
    6  5 3px        0.49044   0.00000      0.000  -0.000  -0.000
    6  6 3py        0.46892   0.00000      0.000  -0.000   0.000
    6  7 3pz        0.24287   0.00000     -0.000   0.000  -0.000
    6  8 3px        0.24581   0.00000     -0.000   0.000  -0.000
    6  9 3Pdxy      0.18374   0.00000     -0.000   0.000  -0.000
    6 10 3Pdyz      0.14653   0.00000     -0.000   0.000  -0.000
    6 11 3Pdz2      0.01148   0.00000     -0.000   0.000   0.000
    6 12 3Pdxz      0.03677   0.00000     -0.000  -0.000   0.000
    6 13 3Pdx2-y2   0.18727   0.00000     -0.000  -0.000   0.000
    6     Total     3.86713   0.00000      0.000  -0.000  -0.000

    7  1 3s         0.62969   0.00000     -0.000   0.000  -0.000
    7  2 3s         0.36807   0.00000      0.000  -0.000   0.000
    7  3 3py        0.37234   0.00000      0.000   0.000  -0.000
    7  4 3pz        0.49504   0.00000      0.000   0.000  -0.000
    7  5 3px        0.07805   0.00000      0.000   0.000  -0.000
    7  6 3py        0.30302   0.00000     -0.000  -0.000   0.000
    7  7 3pz        0.20724   0.00000     -0.000  -0.000  -0.000
    7  8 3px        0.42373   0.00000     -0.000  -0.000   0.000
    7  9 3Pdxy      0.20424   0.00000     -0.000  -0.000  -0.000
    7 10 3Pdyz      0.14302   0.00000     -0.000   0.000  -0.000
    7 11 3Pdz2      0.01031   0.00000      0.000   0.000  -0.000
    7 12 3Pdxz      0.15340   0.00000     -0.000  -0.000  -0.000
    7 13 3Pdx2-y2   0.23768   0.00000      0.000  -0.000  -0.000
    7     Total     3.62586   0.00000     -0.000   0.000  -0.000

   12  1 3s         0.54473   0.00000     -0.000   0.000  -0.000
   12  2 3s         0.39784   0.00000      0.000  -0.000  -0.000
   12  3 3py        0.21156   0.00000     -0.000  -0.000  -0.000
   12  4 3pz        0.43397   0.00000      0.000  -0.000  -0.000
   12  5 3px        0.30181   0.00000      0.000   0.000  -0.000
   12  6 3py        0.41181   0.00000      0.000  -0.000   0.000
   12  7 3pz        0.16597   0.00000     -0.000  -0.000  -0.000
   12  8 3px        0.33956   0.00000     -0.000  -0.000   0.000
   12  9 3Pdxy      0.38738   0.00000     -0.000  -0.000  -0.000
   12 10 3Pdyz      0.08173   0.00000      0.000   0.000  -0.000
   12 11 3Pdz2      0.00987   0.00000      0.000   0.000   0.000
   12 12 3Pdxz      0.09309   0.00000      0.000   0.000  -0.000
   12 13 3Pdx2-y2   0.16620   0.00000      0.000   0.000  -0.000
   12     Total     3.54552   0.00000     -0.000  -0.000  -0.000

   15  1 3s         0.66227   0.00000      0.000   0.000   0.000
   15  2 3s         0.36736   0.00000     -0.000  -0.000   0.000
   15  3 3py       -0.02683   0.00000      0.000  -0.000   0.000
   15  4 3pz        0.51214   0.00000     -0.000   0.000   0.000
   15  5 3px        0.39309   0.00000     -0.000   0.000   0.000
   15  6 3py        0.47228   0.00000      0.000   0.000   0.000
   15  7 3pz        0.19891   0.00000     -0.000  -0.000   0.000
   15  8 3px        0.33905   0.00000      0.000  -0.000  -0.000
   15  9 3Pdxy      0.14171   0.00000      0.000  -0.000   0.000
   15 10 3Pdyz      0.12603   0.00000     -0.000  -0.000   0.000
   15 11 3Pdz2      0.01414   0.00000      0.000  -0.000   0.000
   15 12 3Pdxz      0.12563   0.00000     -0.000   0.000   0.000
   15 13 3Pdx2-y2   0.30453   0.00000      0.000  -0.000   0.000
   15     Total     3.63032   0.00000     -0.000  -0.000   0.000

   17  1 3s         0.73090   0.00000      0.000  -0.000  -0.000
   17  2 3s         0.35647   0.00000     -0.000   0.000  -0.000
   17  3 3py        0.09666   0.00000      0.000   0.000  -0.000
   17  4 3pz        0.62419   0.00000      0.000   0.000  -0.000
   17  5 3px        0.35759   0.00000     -0.000   0.000  -0.000
   17  6 3py        0.45375   0.00000     -0.000  -0.000   0.000
   17  7 3pz        0.15215   0.00000      0.000   0.000  -0.000
   17  8 3px        0.33374   0.00000      0.000  -0.000  -0.000
   17  9 3Pdxy      0.15075   0.00000      0.000  -0.000  -0.000
   17 10 3Pdyz      0.02343   0.00000     -0.000   0.000   0.000
   17 11 3Pdz2      0.00899   0.00000      0.000   0.000   0.000
   17 12 3Pdxz      0.12888   0.00000      0.000  -0.000  -0.000
   17 13 3Pdx2-y2   0.12718   0.00000     -0.000  -0.000  -0.000
   17     Total     3.54467   0.00000      0.000   0.000  -0.000

   19  1 3s         0.86142   0.00000     -0.000  -0.000   0.000
   19  2 3s         0.31384   0.00000      0.000   0.000   0.000
   19  3 3py        0.43185   0.00000      0.000   0.000   0.000
   19  4 3pz        0.65951   0.00000     -0.000   0.000   0.000
   19  5 3px        0.35204   0.00000     -0.000   0.000   0.000
   19  6 3py        0.32879   0.00000     -0.000   0.000  -0.000
   19  7 3pz        0.26987   0.00000      0.000  -0.000   0.000
   19  8 3px        0.35790   0.00000      0.000  -0.000   0.000
   19  9 3Pdxy      0.09321   0.00000     -0.000  -0.000  -0.000
   19 10 3Pdyz      0.02911   0.00000     -0.000  -0.000  -0.000
   19 11 3Pdz2      0.01442   0.00000      0.000  -0.000  -0.000
   19 12 3Pdxz      0.05658   0.00000      0.000   0.000  -0.000
   19 13 3Pdx2-y2   0.13158   0.00000      0.000   0.000  -0.000
   19     Total     3.90013   0.00000      0.000  -0.000   0.000

   20  1 3s         0.54078   0.00000     -0.000  -0.000  -0.000
   20  2 3s         0.44391   0.00000      0.000   0.000   0.000
   20  3 3py        0.31020   0.00000     -0.000   0.000  -0.000
   20  4 3pz        0.25472   0.00000     -0.000  -0.000  -0.000
   20  5 3px        0.45469   0.00000     -0.000   0.000  -0.000
   20  6 3py        0.38763   0.00000      0.000  -0.000  -0.000
   20  7 3pz        0.42346   0.00000     -0.000   0.000   0.000
   20  8 3px        0.27760   0.00000      0.000  -0.000  -0.000
   20  9 3Pdxy      0.07003   0.00000      0.000  -0.000   0.000
   20 10 3Pdyz      0.08420   0.00000      0.000  -0.000   0.000
   20 11 3Pdz2      0.05098   0.00000     -0.000  -0.000   0.000
   20 12 3Pdxz      0.07234   0.00000     -0.000   0.000   0.000
   20 13 3Pdx2-y2   0.04583   0.00000      0.000   0.000   0.000
   20     Total     3.41638   0.00000     -0.000  -0.000  -0.000

   24  1 3s         0.60155   0.00000     -0.000  -0.000  -0.000
   24  2 3s         0.37247   0.00000      0.000  -0.000  -0.000
   24  3 3py        0.27306   0.00000     -0.000  -0.000  -0.000
   24  4 3pz        0.40301   0.00000      0.000  -0.000  -0.000
   24  5 3px        0.17501   0.00000      0.000  -0.000  -0.000
   24  6 3py        0.39023   0.00000      0.000   0.000  -0.000
   24  7 3pz        0.19476   0.00000     -0.000  -0.000  -0.000
   24  8 3px        0.35732   0.00000     -0.000  -0.000  -0.000
   24  9 3Pdxy      0.14214   0.00000      0.000   0.000   0.000
   24 10 3Pdyz      0.14070   0.00000     -0.000  -0.000   0.000
   24 11 3Pdz2      0.01306   0.00000     -0.000  -0.000  -0.000
   24 12 3Pdxz      0.12254   0.00000     -0.000  -0.000  -0.000
   24 13 3Pdx2-y2   0.34278   0.00000      0.000  -0.000  -0.000
   24     Total     3.52863   0.00000     -0.000  -0.000  -0.000

   28  1 3s         0.43265   0.00000      0.000  -0.000  -0.000
   28  2 3s         0.37767   0.00000     -0.000   0.000  -0.000
   28  3 3py        0.13883   0.00000     -0.000  -0.000  -0.000
   28  4 3pz        0.39674   0.00000      0.000   0.000  -0.000
   28  5 3px        0.17702   0.00000      0.000   0.000  -0.000
   28  6 3py        0.38046   0.00000      0.000   0.000  -0.000
   28  7 3pz        0.20520   0.00000     -0.000   0.000  -0.000
   28  8 3px        0.38087   0.00000      0.000  -0.000  -0.000
   28  9 3Pdxy      0.14425   0.00000     -0.000  -0.000  -0.000
   28 10 3Pdyz      0.12314   0.00000     -0.000  -0.000  -0.000
   28 11 3Pdz2      0.01409   0.00000      0.000  -0.000  -0.000
   28 12 3Pdxz      0.15721   0.00000      0.000   0.000  -0.000
   28 13 3Pdx2-y2   0.35340   0.00000     -0.000  -0.000  -0.000
   28     Total     3.28152   0.00000      0.000  -0.000  -0.000

----------------------------------------------------------------
Total              85.05784   0.00000      0.000  -0.000  -0.000


Species: O                   

Atom      Orb        Charge      Spin       Svec
----------------------------------------------------------------
   25  1 2s         1.75276   0.00000     -0.000   0.000   0.000
   25  2 2s         0.05664   0.00000      0.000  -0.000   0.000
   25  3 2py        1.45798   0.00000     -0.000   0.000   0.000
   25  4 2pz        1.53083   0.00000      0.000   0.000   0.000
   25  5 2px        1.59361   0.00000     -0.000  -0.000   0.000
   25  6 2py        0.04033   0.00000      0.000  -0.000  -0.000
   25  7 2pz       -0.00483   0.00000     -0.000  -0.000   0.000
   25  8 2px        0.02618   0.00000      0.000   0.000   0.000
   25  9 3Pdxy      0.00664   0.00000     -0.000   0.000  -0.000
   25 10 3Pdyz      0.00571   0.00000     -0.000  -0.000  -0.000
   25 11 3Pdz2      0.00115   0.00000      0.000   0.000  -0.000
   25 12 3Pdxz      0.00422   0.00000     -0.000   0.000  -0.000
   25 13 3Pdx2-y2   0.00716   0.00000     -0.000   0.000  -0.000
   25     Total     6.47837   0.00000     -0.000   0.000   0.000

   29  1 2s         1.74583   0.00000     -0.000   0.000   0.000
   29  2 2s         0.06583   0.00000      0.000  -0.000   0.000
   29  3 2py        1.47803   0.00000     -0.000   0.000   0.000
   29  4 2pz        1.53418   0.00000     -0.000  -0.000   0.000
   29  5 2px        1.52380   0.00000      0.000   0.000   0.000
   29  6 2py        0.04354   0.00000      0.000  -0.000   0.000
   29  7 2pz        0.00389   0.00000     -0.000   0.000   0.000
   29  8 2px        0.04017   0.00000     -0.000  -0.000   0.000
   29  9 3Pdxy      0.00799   0.00000     -0.000  -0.000   0.000
   29 10 3Pdyz      0.00470   0.00000      0.000   0.000  -0.000
   29 11 3Pdz2      0.00136   0.00000      0.000  -0.000   0.000
   29 12 3Pdxz      0.00622   0.00000      0.000  -0.000  -0.000
   29 13 3Pdx2-y2   0.00825   0.00000     -0.000  -0.000  -0.000
   29     Total     6.46380   0.00000     -0.000  -0.000   0.000

----------------------------------------------------------------
Total              98.00000   0.00000     -0.000   0.000  -0.000


siesta: Eigenvalues (eV):
ik =     1
  -22.9779  -22.9779  -22.6825  -22.6825  -22.0163  -22.0163  -21.2035  -21.2035  -20.9638  -20.9638
  -20.4491  -20.4491  -19.3726  -19.3726  -19.1918  -19.1918  -18.6031  -18.6031  -15.3632  -15.3632
  -14.4175  -14.4175  -13.6712  -13.6712  -13.5482  -13.5482  -13.3369  -13.3369  -12.8567  -12.8567
  -12.3960  -12.3960  -12.0529  -12.0529  -11.7904  -11.7904  -11.4509  -11.4509  -11.3365  -11.3365
  -10.7882  -10.7882  -10.7833  -10.7833  -10.1281  -10.1281   -9.8975   -9.8975   -9.6127   -9.6127
   -9.4240   -9.4240   -9.1978   -9.1978   -9.0485   -9.0485   -8.8121   -8.8121   -8.7631   -8.7631
   -8.5251   -8.5251   -8.1538   -8.1538   -8.1487   -8.1487   -8.0868   -8.0868   -8.0154   -8.0154
   -7.8454   -7.8454   -7.3985   -7.3985   -7.2927   -7.2927   -7.2697   -7.2697   -6.8746   -6.8746
   -6.7255   -6.7255   -6.6394   -6.6394   -6.5328   -6.5328   -6.2861   -6.2861   -6.1480   -6.1480
   -6.0037   -6.0037   -5.6689   -5.6689   -5.5326   -5.5326   -4.1605   -4.1605   -3.7783   -3.7783
   -2.9144   -2.9144   -2.5495   -2.5495   -2.2384   -2.2384   -2.1654   -2.1654   -2.0638   -2.0638
   -1.9528   -1.9528   -1.6531   -1.6531   -1.5887   -1.5887   -1.5059   -1.5059   -1.2647   -1.2647
   -1.1139   -1.1139   -0.5254   -0.5254   -0.4334   -0.4334   -0.2471   -0.2471   -0.1642   -0.1642
   -0.1312   -0.1312   -0.0578   -0.0578    0.2089    0.2089    0.3491    0.3491    0.6381    0.6381
    0.7162    0.7162    0.7774    0.7774    1.0243    1.0243    1.3186    1.3186    1.3725    1.3725
    1.4927    1.4927    1.7953    1.7953    1.9811    1.9811    2.1708    2.1708    2.3490    2.3490
    2.5416    2.5416    2.7046    2.7046    2.8980    2.8980    2.9356    2.9356    2.9914    2.9914
    3.0780    3.0780    3.1163    3.1163    3.1694    3.1694    3.6313    3.6313    3.8772    3.8772
    3.9811    3.9811    4.1581    4.1581    4.3234    4.3234    4.3619    4.3619    4.4946    4.4946
    4.4989    4.4989    4.5698    4.5698    4.7722    4.7722    5.0283    5.0283    5.1618    5.1618
    5.2553    5.2553    5.5023    5.5023    5.5211    5.5211    5.9002    5.9002    5.9103    5.9103
    6.0567    6.0567    6.1463    6.1463    6.1999    6.1999    6.4804    6.4804    6.6254    6.6254
    6.7745    6.7745    6.8226    6.8226    6.8695    6.8695    7.1216    7.1216    7.4514    7.4514
    7.4759    7.4759    7.6140    7.6140    7.7192    7.7192    7.9128    7.9128    8.0637    8.0637
    8.3124    8.3124    8.4125    8.4125    8.4867    8.4867    8.6154    8.6154    8.7029    8.7029
    8.8882    8.8882    9.1553    9.1553    9.1764    9.1764    9.4836    9.4836    9.6952    9.6952
    9.7956    9.7956    9.9006    9.9006   10.0045   10.0045   10.0785   10.0785   10.0941   10.0941
   10.4069   10.4069   10.7175   10.7175   10.8180   10.8180   11.1518   11.1518   11.2452   11.2452
   11.5364   11.5364   11.6540   11.6540   11.8016   11.8016   11.9145   11.9145   11.9234   11.9234
   12.2692   12.2692   12.5856   12.5856   12.6554   12.6554   12.7928   12.7928   12.8100   12.8100
   13.0662   13.0662   13.2945   13.2945   13.4289   13.4289   13.6504   13.6504   13.8291   13.8291
   14.0324   14.0324   14.1473   14.1473   14.6387   14.6387   14.7991   14.7991   15.0409   15.0409
   15.3210   15.3210   15.6019   15.6019   15.9992   15.9992   16.1804   16.1804   16.4484   16.4484
   16.7285   16.7285   16.9606   16.9606   17.1152   17.1152   17.4465   17.4465   17.7305   17.7305
   18.1129   18.1129   18.1338   18.1338   18.6796   18.6796   18.7093   18.7093   19.0438   19.0438
   19.0813   19.0813   19.8069   19.8069   20.0443   20.0443   20.3042   20.3042   20.8675   20.8675
   21.0678   21.0678   21.3980   21.3980   21.8384   21.8384   22.4091   22.4091   22.6185   22.6185
   22.8585   22.8585   23.1033   23.1033   23.2188   23.2188   23.3108   23.3108   23.7083   23.7083
   24.8038   24.8038   25.1416   25.1416   25.2757   25.2757   25.7476   25.7476   26.2057   26.2057
   26.5391   26.5391   26.8894   26.8894   27.3007   27.3007   28.1230   28.1230   28.2715   28.2715
   28.5867   28.5867   29.0591   29.0591   29.7937   29.7937   30.8015   30.8015   30.8976   30.8976
   31.0194   31.0194   31.3597   31.3597   31.5139   31.5139   31.7785   31.7785   32.1662   32.1662
   32.3569   32.3569   32.9419   32.9419   33.6693   33.6693   33.7929   33.7929   34.5647   34.5647
   34.8092   34.8092   34.8739   34.8739   34.9344   34.9344   36.0303   36.0303   36.1044   36.1044
   36.6482   36.6482   37.3011   37.3011   37.7737   37.7737   38.4354   38.4354   38.5940   38.5940
   39.2398   39.2398   39.3625   39.3625   39.8789   39.8789   40.7794   40.7794   40.9088   40.9088
   41.4693   41.4693   41.5047   41.5047   41.7189   41.7189   42.0237   42.0237   42.9262   42.9262
   43.1678   43.1678   43.5113   43.5113   44.0653   44.0653   44.2670   44.2670   44.3760   44.3760
   44.8921   44.8921   45.3099   45.3099   45.4277   45.4277   45.6871   45.6871   46.5533   46.5533
   46.7259   46.7259   47.0946   47.0946   47.2786   47.2786   47.8435   47.8435   48.4050   48.4050
   49.0378   49.0378   49.0919   49.0919   49.3347   49.3347   49.6347   49.6347   50.3319   50.3319
   50.5024   50.5024   50.8617   50.8617   51.1451   51.1451   51.8601   51.8601   52.6367   52.6367
   53.2579   53.2579   54.2460   54.2460   54.3423   54.3423   55.6115   55.6115   55.6620   55.6620
   56.8919   56.8919   57.1232   57.1232   57.3582   57.3582   57.5729   57.5729   59.0624   59.0624
   59.3378   59.3378   59.8019   59.8019   60.5551   60.5551   61.2900   61.2900   61.3421   61.3421
   62.4453   62.4453   62.7911   62.7911   63.2541   63.2541   64.7633   64.7633   65.5142   65.5142
   66.4592   66.4592   67.2302   67.2302   67.6735   67.6735   67.8873   67.8873   69.2660   69.2660
   69.9994   69.9994   71.6454   71.6454   75.2962   75.2962   84.2446   84.2446   92.5086   92.5086
   93.2249   93.2249   94.3332   94.3332   96.4559   96.4559   99.5132   99.5132  100.7712  100.7712
  102.9564  102.9564  103.3187  103.3187  115.7693  115.7693  122.3984  122.3984  123.9430  123.9430
  139.4058  139.4058  144.6567  144.6567
siesta: Fermi energy =      -3.969441 eV

siesta: Program's energy decomposition (eV):
siesta: Ebs     =     -1114.888123
siesta: Eions   =      3553.971015
siesta: Ena     =       377.696076
siesta: Ekin    =      2751.787295
siesta: Enl     =     -2532.686809
siesta: Eso     =        -0.004726
siesta: Edftu   =         0.000000
siesta: DEna    =        37.378735
siesta: DUscf   =        13.948219
siesta: DUext   =         0.000000
siesta: Exc     =     -1093.287118
siesta: eta*DQ  =         0.000000
siesta: Emadel  =         0.000000
siesta: Emeta   =         0.000000
siesta: Emolmec =         0.000000
siesta: Ekinion =         0.000000
siesta: Eharris =     -3999.139342
siesta: Etot    =     -3999.139342
siesta: FreeEng =     -3999.139877

siesta: Final energy (eV):
siesta:  Band Struct. =   -1114.888123
siesta:       Kinetic =    2751.787295
siesta:       Hartree =    7760.159069
siesta:       Edftu   =       0.000000
siesta:       Eso     =      -0.004726
siesta:    Ext. field =       0.000000
siesta:   Exch.-corr. =   -1093.287118
siesta:  Ion-electron =  -17968.047670
siesta:       Ion-ion =    4550.253807
siesta:       Ekinion =       0.000000
siesta:         Total =   -3999.139342
siesta:         Fermi =      -3.969441

siesta: Atomic forces (eV/Ang):
siesta:      1   -0.022034    0.043350    0.000003
siesta:      2   -0.011528   -0.059714   -0.000005
siesta:      3    0.010460    0.045979   -0.000006
siesta:      4   -0.059693   -0.023987    0.000007
siesta:      5    0.010387   -0.033717   -0.000014
siesta:      6    0.089129    0.003706    0.000041
siesta:      7   -0.467989    0.186236    0.000034
siesta:      8    0.179436   -0.266515   -0.000184
siesta:      9    0.063025    0.330773    0.000300
siesta:     10    0.111206    0.039915    0.000027
siesta:     11    0.015497    0.182507   -0.000066
siesta:     12    0.309760    0.109952   -0.000024
siesta:     13   -0.144451   -0.127880   -0.000009
siesta:     14   -0.071696   -0.087164    0.000026
siesta:     15    0.004251    0.047909   -0.000014
siesta:     16    0.023231    0.086145    0.007991
siesta:     17    0.036540   -0.078708   -0.039868
siesta:     18   -0.075034    0.086901    0.008368
siesta:     19   -0.062991    0.014260   -0.041424
siesta:     20    0.040489   -0.040315    0.023941
siesta:     21   -0.168003    0.198221    0.067334
siesta:     22   -0.089614    0.023407    0.025829
siesta:     23    0.128288    0.007314   -0.039220
siesta:     24    0.301500   -0.105119   -0.026385
siesta:     25   -0.537860    3.120436    0.002801
siesta:     26   -0.067865    0.256447    0.006698
siesta:     27    0.070399   -0.302787    0.002851
siesta:     28   -0.158777   -0.148693   -0.000842
siesta:     29   -2.110201   -3.519311   -0.001105
siesta:     30    0.078036    0.208128    0.008158
siesta: ----------------------------------------
siesta:    Tot   -2.576099    0.197675    0.005242

siesta: Stress tensor (static) (eV/Ang**3):
siesta:    -0.001072    0.000191    0.000033
siesta:     0.000191   -0.000108   -0.000029
siesta:     0.000033   -0.000029   -0.000129

siesta: Cell volume =       4119.889116 Ang**3

siesta: Pressure (static):
siesta:                Solid            Molecule  Units
siesta:           0.00000475          0.00000960  Ry/Bohr**3
siesta:           0.00043618          0.00088112  eV/Ang**3
siesta:           0.69884020          1.41172758  kBar
(Free)E+ p_basis*V_orbitals  =       -3978.011792
(Free)Eharris+ p_basis*V_orbitals  =       -3978.011792
     spin moment: S , {S} =    0.00000  -0.00000   0.00000  -0.00000

siesta: Electric dipole (a.u.)  =   -0.217126    2.818127   -0.012909
siesta: Electric dipole (Debye) =   -0.551880    7.162970   -0.032813

cite: Please see "AT.bib" for an exhaustive BiBTeX file.
cite: Please clearly indicate Siesta version in published work: v4.1.5-1-g384057250
cite: This calculation has made use of the following articles
cite: which are encouraged to be cited in a published work.
        Primary SIESTA paper
          DOI: www.doi.org/10.1088/0953-8984/14/11/302
        Spin-orbit coupling (on-site approximation)
          DOI: www.doi.org/10.1088/0953-8984/19/19/489001


WARNING: alloc-realloc-dealloc name mismatch
         Name: atomlist isa
         Size:              -120. Bytes
         Node:     0
         Subsequent mismatches will not be reported
>> End of run:  22-MAY-2023   9:59:50
Job completed
