Siesta Version  : v4.1.5-1-g384057250
Architecture    : unknown
Compiler version: GNU Fortran (Debian 6.3.0-18+deb9u1) 6.3.0 20170516
Compiler flags  : mpifort -O2 -fPIC -ftree-vectorize
PP flags        : -DFC_HAVE_ABORT -DMPI -DSIESTA__FLOOK -DSIESTA__METIS -DSIESTA__MUMPS -DCDF -DNCDF -DNCDF_4 -DNCDF_PARALLEL -DSIESTA__TIME -DSIESTA__ELPA -DSIESTA__DIAG_2STAGE
Libraries       : libncdf.a libfdict.a libsiestaLAPACK.a libsiestaBLAS.a -lscalapack-openmpi -lz -lflookall -ldl -lmetis -lzmumps -lcmumps -ldmumps -lmumps_common -lpord -lsmumps -lesmumps -lscotch -lscotcherr -fopenmp -lnetcdff -lnetcdf -lhdf5_hl -lhdf5 -lhdf5_fortran -lelpa -llapack -lblas -lblacs-openmpi
PARALLEL version
NetCDF support
NetCDF-4 support
NetCDF-4 MPI-IO support
METIS ordering support
Lua support

* Running on 32 nodes in parallel
>> Start of run:  24-FEB-2022  14:12:15

                           ***********************       
                           *  WELCOME TO SIESTA  *       
                           ***********************       

reinit: Reading from standard input
reinit: Dumped input in INPUT_TMP.25531
************************** Dump of input data file ****************************
SystemLabel      ribosa
NumberOfAtoms    18
NumberOfSpecies  3
%block ChemicalSpeciesLabel
    1    1  H
    2    8  O
    3   14  Si
%endblock ChemicalSpeciesLabel
AtomicCoordinatesFormat NotScaledCartesianAng
%block AtomicCoordinatesAndAtomicSpecies
   -0.70572441    8.81469146    1.75531598   1       1  H
   -0.00051591    8.11436777    1.66888610   2       2  O
    0.82006423    7.70850736    3.17105309   3       3  Si
   -0.09011235    6.96632882    4.12285375   1       4  H
    1.24129333    8.99574942    3.86022610   1       5  H
    2.89223334    6.71566844    2.59025153   3       6  Si
    3.81272117    6.87849363    3.77299113   1       7  H
    2.71185018    5.02966146    2.10382559   2       8  O
    2.31733451    4.55067984    0.55282812   3       9  Si
    3.28016206    3.52741423   -0.00074615   1      10  H
    0.97572212    3.88056378    0.78998402   1      11  H
    3.34557889    7.96591788    0.65176188   3      12  Si
    2.92639968    9.43376967    0.70135137   1      13  H
    2.13035451    6.52713775   -0.78148662   3      14  Si
    0.70905752    6.96616296   -1.05210820   1      15  H
    2.83798596    6.34893256   -2.10625758   1      16  H
    5.05295828    7.76180264    0.34801243   2      17  O
    5.31848455    7.93660005   -0.59691467   1      18  H
%endblock AtomicCoordinatesAndAtomicSpecies
%include ../defaults.fdf
************************** End of input data file *****************************

reinit: -----------------------------------------------------------------------
reinit: System Name: 
reinit: -----------------------------------------------------------------------
reinit: System Label: ribosa
reinit: -----------------------------------------------------------------------

initatom: Reading input for the pseudopotentials and atomic orbitals ----------
Species number:   1 Atomic number:    1 Label: H
Species number:   2 Atomic number:    8 Label: O
Species number:   3 Atomic number:   14 Label: Si

Ground state valence configuration:   1s01
Reading pseudopotential information in formatted form from H.psf

Pseudopotential generated from a relativistic atomic calculation

Valence configuration for pseudopotential generation:
1s( 1.00) rc: 0.01
2p( 0.00) rc: 0.60
3d( 0.00) rc: 1.99
4f( 0.00) rc: 2.49
Ground state valence configuration:   2s02  2p04
Reading pseudopotential information in formatted form from O.psf

Pseudopotential generated from a relativistic atomic calculation

Valence configuration for pseudopotential generation:
2s( 2.00) rc: 0.45
2p( 4.00) rc: 0.92
3d( 0.00) rc: 2.24
4f( 0.00) rc: 0.25
Ground state valence configuration:   3s02  3p02
Reading pseudopotential information in formatted form from Si.psf

Pseudopotential generated from a relativistic atomic calculation

Valence configuration for pseudopotential generation:
3s( 2.00) rc: 1.67
3p( 2.00) rc: 2.04
3d( 0.00) rc: 2.89
4f( 0.00) rc: 0.25
For H, standard SIESTA heuristics set lmxkb to 2
 (one more than the basis l, including polarization orbitals).
Use PS.lmax or PS.KBprojectors blocks to override.
For O, standard SIESTA heuristics set lmxkb to 3
 (one more than the basis l, including polarization orbitals).
Use PS.lmax or PS.KBprojectors blocks to override.
For Si, standard SIESTA heuristics set lmxkb to 3
 (one more than the basis l, including polarization orbitals).
Use PS.lmax or PS.KBprojectors blocks to override.

<basis_specs>
===============================================================================
H                    Z=   1    Mass=  1.0100        Charge= 0.17977+309
Lmxo=0 Lmxkb= 2    BasisType=split      Semic=F
L=0  Nsemic=0  Cnfigmx=1
          i=1  nzeta=2  polorb=1  (1s)
            splnorm:   0.62000    
               vcte:    0.0000    
               rinn:    0.0000    
               qcoe:    0.0000    
               qyuk:    0.0000    
               qwid:   0.10000E-01
                rcs:    0.0000      0.0000    
            lambdas:    1.0000      1.0000    
-------------------------------------------------------------------------------
L=0  Nkbl=1  erefs: 0.17977+309
L=1  Nkbl=1  erefs: 0.17977+309
L=2  Nkbl=1  erefs: 0.17977+309
===============================================================================
</basis_specs>

atom: Called for H                     (Z =   1)

read_vps: Pseudopotential generation method:
read_vps: ATM4.2.7  Troullier-Martins                       
Valence charge for ps generation:    1.00000

xc_check: Exchange-correlation functional:
xc_check: GGA Perdew, Burke & Ernzerhof 1996
V l=0 = -2*Zval/r beyond r=  0.0098
V l=1 = -2*Zval/r beyond r=  0.5817
V l=2 = -2*Zval/r beyond r=  1.9372
All V_l potentials equal beyond r=  1.9372
This should be close to max(r_c) in ps generation
All pots = -2*Zval/r beyond r=  1.9372

VLOCAL1: 99.0% of the norm of Vloc inside     11.567 Ry
VLOCAL1: 99.9% of the norm of Vloc inside     26.362 Ry
atom: Maximum radius for 4*pi*r*r*local-pseudopot. charge    2.25106
atom: Maximum radius for r*vlocal+2*Zval:    1.91306
GHOST: No ghost state for L =  0
GHOST: No ghost state for L =  1
GHOST: No ghost state for L =  2

KBgen: Kleinman-Bylander projectors: 
   l= 0   rc=  2.036604   el= -0.477180   Ekb= -6.081590   kbcos= -0.277285
   l= 1   rc=  2.195416   el=  0.001076   Ekb= -0.926943   kbcos= -0.034643
   l= 2   rc=  2.251056   el=  0.002010   Ekb= -0.130941   kbcos= -0.009788

KBgen: Total number of Kleinman-Bylander projectors:    9
atom: -------------------------------------------------------------------------

atom: SANKEY-TYPE ORBITALS:
atom: Selected multiple-zeta basis: split     

SPLIT: Orbitals with angular momentum L= 0

SPLIT: Basis orbitals for state 1s

SPLIT: PAO cut-off radius determined from an
SPLIT: energy shift=  0.002000 Ry

   izeta = 1
                 lambda =    1.000000
                     rc =    6.518340
                 energy =   -0.475305
                kinetic =    0.912139
    potential(screened) =   -1.387444
       potential(ionic) =   -1.907295

   izeta = 2
                 rmatch =    2.141150
              splitnorm =    0.620000
                 energy =    0.566467
                kinetic =    3.772856
    potential(screened) =   -3.206389
       potential(ionic) =   -3.759093

POLgen: Perturbative polarization orbital with L=  1

POLgen: Polarization orbital for state 1s

   izeta = 1
                     rc =    6.518340
                 energy =    0.533861
                kinetic =    1.121086
    potential(screened) =   -0.587225
       potential(ionic) =   -1.053027
atom: Total number of Sankey-type orbitals:  5

atm_pop: Valence configuration (for local Pseudopot. screening):
 1s( 1.00)                                                            
Vna: chval, zval:    1.00000   1.00000

Vna:  Cut-off radius for the neutral-atom potential:   6.518340

atom: _________________________________________________________________________

<basis_specs>
===============================================================================
O                    Z=   8    Mass=  16.000        Charge= 0.17977+309
Lmxo=1 Lmxkb= 3    BasisType=split      Semic=F
L=0  Nsemic=0  Cnfigmx=2
          i=1  nzeta=2  polorb=0  (2s)
            splnorm:   0.28000    
               vcte:    0.0000    
               rinn:    0.0000    
               qcoe:    0.0000    
               qyuk:    0.0000    
               qwid:   0.10000E-01
                rcs:    0.0000      0.0000    
            lambdas:    1.0000      1.0000    
L=1  Nsemic=0  Cnfigmx=2
          i=1  nzeta=2  polorb=1  (2p)
            splnorm:   0.28000    
               vcte:    0.0000    
               rinn:    0.0000    
               qcoe:    0.0000    
               qyuk:    0.0000    
               qwid:   0.10000E-01
                rcs:    0.0000      0.0000    
            lambdas:    1.0000      1.0000    
-------------------------------------------------------------------------------
L=0  Nkbl=1  erefs: 0.17977+309
L=1  Nkbl=1  erefs: 0.17977+309
L=2  Nkbl=1  erefs: 0.17977+309
L=3  Nkbl=1  erefs: 0.17977+309
===============================================================================
</basis_specs>

atom: Called for O                     (Z =   8)

read_vps: Pseudopotential generation method:
read_vps: ATM4.2.7  Troullier-Martins                       
Valence charge for ps generation:    6.00000

xc_check: Exchange-correlation functional:
xc_check: GGA Perdew, Burke & Ernzerhof 1996
V l=0 = -2*Zval/r beyond r=  1.1000
V l=1 = -2*Zval/r beyond r=  1.1000
V l=2 = -2*Zval/r beyond r=  2.2154
V l=3 = -2*Zval/r beyond r=  1.1000
All V_l potentials equal beyond r=  2.2154
This should be close to max(r_c) in ps generation
All pots = -2*Zval/r beyond r=  2.2154

VLOCAL1: 99.0% of the norm of Vloc inside      8.845 Ry
VLOCAL1: 99.9% of the norm of Vloc inside     20.157 Ry
atom: Maximum radius for 4*pi*r*r*local-pseudopot. charge    2.67231
atom: Maximum radius for r*vlocal+2*Zval:    2.32897
GHOST: No ghost state for L =  0
GHOST: No ghost state for L =  1
GHOST: No ghost state for L =  2
GHOST: No ghost state for L =  3

KBgen: Kleinman-Bylander projectors: 
   l= 0   rc=  2.243238   el= -1.759686   Ekb=**********   kbcos= -0.171774
   l= 1   rc=  2.328968   el= -0.663873   Ekb=-14.506792   kbcos= -0.519897
   l= 2   rc=  2.573941   el=  0.002031   Ekb= -1.137373   kbcos= -0.019581
   l= 3   rc=  2.606321   el=  0.003153   Ekb= -1.013546   kbcos= -0.003122

KBgen: Total number of Kleinman-Bylander projectors:   16
atom: -------------------------------------------------------------------------

atom: SANKEY-TYPE ORBITALS:
atom: Selected multiple-zeta basis: split     

SPLIT: Orbitals with angular momentum L= 0

SPLIT: Basis orbitals for state 2s

SPLIT: PAO cut-off radius determined from an
SPLIT: energy shift=  0.002000 Ry

   izeta = 1
                 lambda =    1.000000
                     rc =    4.243912
                 energy =   -1.758270
                kinetic =    3.286084
    potential(screened) =   -5.044353
       potential(ionic) =  -12.921184

   izeta = 2
                 rmatch =    2.187845
              splitnorm =    0.280000
                 energy =   -0.885018
                kinetic =    8.134434
    potential(screened) =   -9.019452
       potential(ionic) =  -17.710645

SPLIT: Orbitals with angular momentum L= 1

SPLIT: Basis orbitals for state 2p

SPLIT: PAO cut-off radius determined from an
SPLIT: energy shift=  0.002000 Ry

   izeta = 1
                 lambda =    1.000000
                     rc =    5.314825
                 energy =   -0.661986
                kinetic =    4.917472
    potential(screened) =   -5.579458
       potential(ionic) =  -13.236259

   izeta = 2
                 rmatch =    2.160663
              splitnorm =    0.280000
                 energy =   -0.068760
                kinetic =    9.183374
    potential(screened) =   -9.252135
       potential(ionic) =  -18.274251

POLgen: Perturbative polarization orbital with L=  2

POLgen: Polarization orbital for state 2p

   izeta = 1
                     rc =    5.314825
                 energy =    1.970580
                kinetic =    3.886128
    potential(screened) =   -1.915547
       potential(ionic) =   -7.749584
atom: Total number of Sankey-type orbitals: 13

atm_pop: Valence configuration (for local Pseudopot. screening):
 2s( 2.00)                                                            
 2p( 4.00)                                                            
Vna: chval, zval:    6.00000   6.00000

Vna:  Cut-off radius for the neutral-atom potential:   5.314825

atom: _________________________________________________________________________

<basis_specs>
===============================================================================
Si                   Z=  14    Mass=  28.090        Charge= 0.17977+309
Lmxo=1 Lmxkb= 3    BasisType=split      Semic=F
L=0  Nsemic=0  Cnfigmx=3
          i=1  nzeta=2  polorb=0  (3s)
            splnorm:   0.28000    
               vcte:    0.0000    
               rinn:    0.0000    
               qcoe:    0.0000    
               qyuk:    0.0000    
               qwid:   0.10000E-01
                rcs:    0.0000      0.0000    
            lambdas:    1.0000      1.0000    
L=1  Nsemic=0  Cnfigmx=3
          i=1  nzeta=2  polorb=1  (3p)
            splnorm:   0.28000    
               vcte:    0.0000    
               rinn:    0.0000    
               qcoe:    0.0000    
               qyuk:    0.0000    
               qwid:   0.10000E-01
                rcs:    0.0000      0.0000    
            lambdas:    1.0000      1.0000    
-------------------------------------------------------------------------------
L=0  Nkbl=1  erefs: 0.17977+309
L=1  Nkbl=1  erefs: 0.17977+309
L=2  Nkbl=1  erefs: 0.17977+309
L=3  Nkbl=1  erefs: 0.17977+309
===============================================================================
</basis_specs>

atom: Called for Si                    (Z =  14)

read_vps: Pseudopotential generation method:
read_vps: ATM4.2.7  Troullier-Martins                       
Valence charge for ps generation:    4.00000

xc_check: Exchange-correlation functional:
xc_check: GGA Perdew, Burke & Ernzerhof 1996
V l=0 = -2*Zval/r beyond r=  2.7826
V l=1 = -2*Zval/r beyond r=  2.7826
V l=2 = -2*Zval/r beyond r=  2.9253
V l=3 = -2*Zval/r beyond r=  2.7826
All V_l potentials equal beyond r=  2.8530
This should be close to max(r_c) in ps generation
All pots = -2*Zval/r beyond r=  2.9253

VLOCAL1: 99.0% of the norm of Vloc inside      5.333 Ry
VLOCAL1: 99.9% of the norm of Vloc inside     12.154 Ry
atom: Maximum radius for 4*pi*r*r*local-pseudopot. charge    3.39869
atom: Maximum radius for r*vlocal+2*Zval:    2.96205
GHOST: No ghost state for L =  0
GHOST: No ghost state for L =  1
GHOST: No ghost state for L =  2
GHOST: No ghost state for L =  3

KBgen: Kleinman-Bylander projectors: 
   l= 0   rc=  3.075247   el= -0.794092   Ekb=  5.879390   kbcos=  0.167461
   l= 1   rc=  3.153101   el= -0.300068   Ekb=  2.642817   kbcos=  0.058301
   l= 2   rc=  3.273594   el=  0.001958   Ekb= -1.185135   kbcos= -0.104411
   l= 3   rc=  3.232927   el=  0.003046   Ekb= -1.061051   kbcos= -0.011037

KBgen: Total number of Kleinman-Bylander projectors:   16
atom: -------------------------------------------------------------------------

atom: SANKEY-TYPE ORBITALS:
atom: Selected multiple-zeta basis: split     

SPLIT: Orbitals with angular momentum L= 0

SPLIT: Basis orbitals for state 3s

SPLIT: PAO cut-off radius determined from an
SPLIT: energy shift=  0.002000 Ry

   izeta = 1
                 lambda =    1.000000
                     rc =    6.429618
                 energy =   -0.792283
                kinetic =    0.525293
    potential(screened) =   -1.317576
       potential(ionic) =   -3.744923

   izeta = 2
                 rmatch =    3.998416
              splitnorm =    0.280000
                 energy =   -0.583081
                kinetic =    1.069570
    potential(screened) =   -1.652651
       potential(ionic) =   -4.235185

SPLIT: Orbitals with angular momentum L= 1

SPLIT: Basis orbitals for state 3p

SPLIT: PAO cut-off radius determined from an
SPLIT: energy shift=  0.002000 Ry

   izeta = 1
                 lambda =    1.000000
                     rc =    8.464845
                 energy =   -0.298236
                kinetic =    0.785360
    potential(screened) =   -1.083596
       potential(ionic) =   -3.273779

   izeta = 2
                 rmatch =    4.587816
              splitnorm =    0.280000
                 energy =   -0.131871
                kinetic =    1.403687
    potential(screened) =   -1.535557
       potential(ionic) =   -4.015310

POLgen: Perturbative polarization orbital with L=  2

POLgen: Polarization orbital for state 3p

   izeta = 1
                     rc =    8.464845
                 energy =    0.321949
                kinetic =    1.055677
    potential(screened) =   -0.733728
       potential(ionic) =   -2.672950
atom: Total number of Sankey-type orbitals: 13

atm_pop: Valence configuration (for local Pseudopot. screening):
 3s( 2.00)                                                            
 3p( 2.00)                                                            
Vna: chval, zval:    4.00000   4.00000

Vna:  Cut-off radius for the neutral-atom potential:   8.464845

atom: _________________________________________________________________________

prinput: Basis input ----------------------------------------------------------

PAO.BasisType split     

%block ChemicalSpeciesLabel
    1    1 H                       # Species index, atomic number, species label
    2    8 O                       # Species index, atomic number, species label
    3   14 Si                      # Species index, atomic number, species label
%endblock ChemicalSpeciesLabel

%block PAO.Basis                 # Define Basis set
H                     1                    # Species label, number of l-shells
 n=1   0   2 P   1                   # n, l, Nzeta, Polarization, NzetaPol
   6.518      2.141   
   1.000      1.000   
O                     2                    # Species label, number of l-shells
 n=2   0   2                         # n, l, Nzeta 
   4.244      2.188   
   1.000      1.000   
 n=2   1   2 P   1                   # n, l, Nzeta, Polarization, NzetaPol
   5.315      2.161   
   1.000      1.000   
Si                    2                    # Species label, number of l-shells
 n=3   0   2                         # n, l, Nzeta 
   6.430      3.998   
   1.000      1.000   
 n=3   1   2 P   1                   # n, l, Nzeta, Polarization, NzetaPol
   8.465      4.588   
   1.000      1.000   
%endblock PAO.Basis

prinput: ----------------------------------------------------------------------

Dumping basis to NetCDF file H.ion.nc
Dumping basis to NetCDF file O.ion.nc
Dumping basis to NetCDF file Si.ion.nc
coor:   Atomic-coordinates input format  =     Cartesian coordinates
coor:                                          (in Angstroms)

siesta: Atomic coordinates (Bohr) and species
siesta:     -1.33363  16.65736   3.31707  1        1
siesta:     -0.00097  15.33394   3.15374  2        2
siesta:      1.54970  14.56697   5.99242  3        3
siesta:     -0.17029  13.16446   7.79107  1        4
siesta:      2.34571  16.99951   7.29477  1        5
siesta:      5.46553  12.69078   4.89487  3        6
siesta:      7.20500  12.99847   7.12992  1        7
siesta:      5.12466   9.50469   3.97566  2        8
siesta:      4.37913   8.59954   1.04469  3        9
siesta:      6.19861   6.66585  -0.00141  1       10
siesta:      1.84385   7.33321   1.49285  1       11
siesta:      6.32223  15.05341   1.23165  3       12
siesta:      5.53010  17.82725   1.32536  1       13
siesta:      4.02579  12.33451  -1.47680  3       14
siesta:      1.33993  13.16415  -1.98820  1       15
siesta:      5.36302  11.99775  -3.98025  1       16
siesta:      9.54871  14.66769   0.65765  2       17
siesta:     10.05048  14.99801  -1.12801  1       18

siesta: Automatic unit cell vectors (Ang):
siesta:   14.215213    0.000000    0.000000
siesta:    0.000000   14.093032    0.000000
siesta:    0.000000    0.000000   14.526675

siesta: System type = molecule  

initatomlists: Number of atoms, orbitals, and projectors:     18   154   218

coxmol: Writing XMOL coordinates into file ribosa.xyz                                                          

siesta: ******************** Simulation parameters ****************************
siesta:
siesta: The following are some of the parameters of the simulation.
siesta: A complete list of the parameters used, including default values,
siesta: can be found in file out.fdf
siesta:
redata: Spin configuration                          = collinear
redata: Number of spin components                   = 2
redata: Time-Reversal Symmetry                      = T
redata: Spin spiral                                 = F
redata: Long output                                 =   F
redata: Number of Atomic Species                    =        3
redata: Charge density info will appear in .RHO file
redata: Write Mulliken Pop.                         = Atomic and Orbital charges
redata: Matel table size (NRTAB)                    =     1024
redata: Mesh Cutoff                                 =   340.0000 Ry
redata: Net charge of the system                    =     0.0000 |e|
redata: Min. number of SCF Iter                     =        0
redata: Max. number of SCF Iter                     =      400
redata: SCF convergence failure will abort job
redata: SCF mix quantity                            = Hamiltonian
redata: Mix DM or H after convergence               =   F
redata: Recompute H after scf cycle                 =   F
redata: Mix DM in first SCF step                    =   T
redata: Write Pulay info on disk                    =   F
redata: New DM Occupancy tolerance                  = 0.000000000001
redata: No kicks to SCF
redata: DM Mixing Weight for Kicks                  =     0.5000
redata: Require Harris convergence for SCF          =   F
redata: Harris energy tolerance for SCF             =     0.000100 eV
redata: Require DM convergence for SCF              =   T
redata: DM tolerance for SCF                        =     0.000100
redata: Require EDM convergence for SCF             =   F
redata: EDM tolerance for SCF                       =     0.001000 eV
redata: Require H convergence for SCF               =   T
redata: Hamiltonian tolerance for SCF               =     0.001000 eV
redata: Require (free) Energy convergence for SCF   =   F
redata: (free) Energy tolerance for SCF             =     0.000100 eV
redata: Antiferro initial spin density              =   F
redata: Using Saved Data (generic)                  =   F
redata: Use continuation files for DM               =   F
redata: Neglect nonoverlap interactions             =   F
redata: Method of Calculation                       = Diagonalization
redata: Electronic Temperature                      =   299.9978 K
redata: Fix the spin of the system                  =   F
redata: Dynamics option                             = CG coord. optimization
redata: Variable cell                               =   F
redata: Use continuation files for CG               =   F
redata: Max atomic displ per move                   =     0.3000 Ang
redata: Maximum number of optimization moves        =      500
redata: Force tolerance                             =     0.0050 eV/Ang
mix.SCF: Pulay mixing                            = Pulay
mix.SCF:    Variant                              = stable
mix.SCF:    History steps                        = 18
mix.SCF:    Linear mixing weight                 =     0.250000
mix.SCF:    Mixing weight                        =     0.250000
mix.SCF:    SVD condition                        = 0.1000E-07
mix.SCF:    Restart steps                        = 36
mix.SCF:    Restart save steps                   = 6
mix.SCF: Spin-component mixing                   all
redata: Save all siesta data in one NC              =   F
redata: ***********************************************************************

%block SCF.Mixers
  Pulay
%endblock SCF.Mixers

%block SCF.Mixer.Pulay
  # Mixing method
  method pulay
  variant stable

  # Mixing options
  weight 0.2500
  weight.linear 0.2500
  history 18
  restart 36
  restart.save 6
%endblock SCF.Mixer.Pulay

DM_history_depth set to one: no extrapolation allowed by default for geometry relaxation
Size of DM history Fstack: 1
Total number of electrons:    48.000000
Total ionic charge:    48.000000

* ProcessorY, Blocksize:    4   4


* Orbital distribution balance (max,min):     8     4

 Kpoints in:            1 . Kpoints trimmed:            1

siesta: k-grid: Number of k-points =     1
siesta: k-grid: Cutoff (effective) =     7.047 Ang
siesta: k-grid: Supercell and displacements
siesta: k-grid:    1   0   0      0.000
siesta: k-grid:    0   1   0      0.000
siesta: k-grid:    0   0   1      0.000

diag: Algorithm                                     = ELPA-1stage
diag: Parallel over k                               =   F
diag: Use parallel 2D distribution                  =   T
diag: Parallel block-size                           = 4
diag: Parallel distribution                         =     4 x     8
diag: Used triangular part                          = Lower
diag: Absolute tolerance                            =  0.100E-15
diag: Orthogonalization factor                      =  0.100E-05
diag: Memory factor                                 =  1.5000


ts: **************************************************************
ts: Save H and S matrices                           =    F
ts: Save DM and EDM matrices                        =    F
ts: Only save the overlap matrix S                  =    F
ts: **************************************************************

************************ Begin: TS CHECKS AND WARNINGS ************************
************************ End: TS CHECKS AND WARNINGS **************************


                     ====================================
                        Begin CG opt. move =      0
                     ====================================

outcoor: Atomic coordinates (Ang):                          
   -0.70572441    8.81469146    1.75531598   1       1  H
   -0.00051591    8.11436777    1.66888610   2       2  O
    0.82006423    7.70850736    3.17105309   3       3  Si
   -0.09011235    6.96632882    4.12285375   1       4  H
    1.24129333    8.99574942    3.86022610   1       5  H
    2.89223334    6.71566844    2.59025153   3       6  Si
    3.81272117    6.87849363    3.77299113   1       7  H
    2.71185018    5.02966146    2.10382559   2       8  O
    2.31733451    4.55067984    0.55282812   3       9  Si
    3.28016206    3.52741423   -0.00074615   1      10  H
    0.97572212    3.88056378    0.78998402   1      11  H
    3.34557889    7.96591788    0.65176188   3      12  Si
    2.92639968    9.43376967    0.70135137   1      13  H
    2.13035451    6.52713775   -0.78148662   3      14  Si
    0.70905752    6.96616296   -1.05210820   1      15  H
    2.83798596    6.34893256   -2.10625758   1      16  H
    5.05295828    7.76180264    0.34801243   2      17  O
    5.31848455    7.93660005   -0.59691467   1      18  H

outcell: Unit cell vectors (Ang):
       14.215213    0.000000    0.000000
        0.000000   14.093032    0.000000
        0.000000    0.000000   14.526675

outcell: Cell vector modules (Ang)   :   14.215213   14.093032   14.526675
outcell: Cell angles (23,13,12) (deg):     90.0000     90.0000     90.0000
outcell: Cell volume (Ang**3)        :   2910.2078
<dSpData1D:S at geom step 0
  <sparsity:sparsity for geom step 0
    nrows_g=154 nrows=8 sparsity=.0497 nnzs=1178, refcount: 7>
  <dData1D:(new from dSpData1D) n=1178, refcount: 1>
refcount: 1>
new_DM -- step:     1
Initializing Density Matrix...
DM filled with atomic data:
<dSpData2D:DM initialized from atoms
  <sparsity:sparsity for geom step 0
    nrows_g=154 nrows=8 sparsity=.0497 nnzs=1178, refcount: 8>
  <dData2D:DM n=1178 m=2, refcount: 1>
refcount: 1>
     spin moment: S , {S} =   26.00000       0.0       0.0  26.00000
No. of atoms with KB's overlaping orbs in proc 0. Max # of overlaps:      17     138
New grid distribution:   1
           1       1:   80    1:   20    1:   11
           2       1:   80    1:   20   12:   21
           3       1:   80    1:   20   22:   31
           4       1:   80    1:   20   32:   41
           5       1:   80    1:   20   42:   51
           6       1:   80    1:   20   52:   61
           7       1:   80    1:   20   62:   71
           8       1:   80    1:   20   72:   81
           9       1:   80   21:   40    1:   11
          10       1:   80   21:   40   12:   21
          11       1:   80   21:   40   22:   31
          12       1:   80   21:   40   32:   41
          13       1:   80   21:   40   42:   51
          14       1:   80   21:   40   52:   61
          15       1:   80   21:   40   62:   71
          16       1:   80   21:   40   72:   81
          17       1:   80   41:   60    1:   11
          18       1:   80   41:   60   12:   21
          19       1:   80   41:   60   22:   31
          20       1:   80   41:   60   32:   41
          21       1:   80   41:   60   42:   51
          22       1:   80   41:   60   52:   61
          23       1:   80   41:   60   62:   71
          24       1:   80   41:   60   72:   81
          25       1:   80   61:   80    1:   11
          26       1:   80   61:   80   12:   21
          27       1:   80   61:   80   22:   31
          28       1:   80   61:   80   32:   41
          29       1:   80   61:   80   42:   51
          30       1:   80   61:   80   52:   61
          31       1:   80   61:   80   62:   71
          32       1:   80   61:   80   72:   81

InitMesh: MESH =   160 x   160 x   162 =     4147200
InitMesh: (bp) =    80 x    80 x    81 =      518400
InitMesh: Mesh cutoff (required, used) =   340.000   343.716 Ry
ExtMesh (bp) on 0 =   184 x   124 x   111 =     2532576
New grid distribution:   2
           1      18:   80    1:   32    8:   15
           2      17:   80   33:   39   70:   81
           3      17:   80    1:   32   16:   69
           4      18:   80   33:   39    1:    7
           5       1:   16    1:   32   16:   63
           6       1:   17   48:   80   16:   31
           7       1:   17    1:   31    1:    8
           8       1:   16   31:   39   64:   81
           9      18:   80    1:   32    1:    7
          10      18:   80   40:   46    9:   15
          11      17:   80   33:   39   16:   69
          12       1:   16   33:   39   16:   63
          13       1:   17    1:   31    9:   15
          14       1:   17   32:   39    1:    8
          15       1:   16    1:   30   64:   81
          16      17:   80    1:   32   70:   81
          17       1:   17   48:   80    1:    8
          18      18:   80   47:   80    9:   15
          19       1:   17   40:   47   16:   31
          20       1:   17   47:   80   32:   81
          21      18:   80   40:   47   16:   66
          22      18:   80   33:   39    8:   15
          23       1:   17   40:   47    1:    8
          24      18:   80   40:   46   67:   81
          25      18:   80   47:   80    1:    8
          26       1:   17   48:   80    9:   15
          27      18:   80   48:   80   16:   66
          28       1:   17   32:   39    9:   15
          29       1:   17   40:   46   32:   81
          30      18:   80   40:   46    1:    8
          31       1:   17   40:   47    9:   15
          32      18:   80   47:   80   67:   81
New grid distribution:   3
           1      25:   80    1:   26    1:   12
           2       1:   24    1:   24   13:   27
           3       1:   29   41:   56    1:   13
           4      23:   80    1:   32   28:   69
           5       1:   22    1:   30   28:   67
           6      30:   80   41:   51   13:   27
           7       1:   22    1:   21   68:   81
           8      23:   80    1:   26   70:   81
           9       1:   24    1:   21    1:   12
          10      25:   80    1:   30   13:   27
          11      25:   80   31:   40   13:   27
          12      23:   80   33:   39   28:   69
          13      25:   80   40:   47   28:   69
          14      25:   80   27:   40    1:   12
          15       1:   22   31:   39   28:   67
          16       1:   24   25:   40   13:   27
          17       1:   29   57:   80    1:   13
          18      30:   80   52:   80   13:   27
          19       1:   29   55:   80   14:   27
          20       1:   29   41:   54   14:   27
          21      23:   80   27:   39   70:   81
          22       1:   24   40:   49   28:   63
          23       1:   24   40:   52   64:   81
          24      25:   80   51:   80   70:   81
          25      30:   80   53:   80    1:   12
          26      25:   80   40:   50   70:   81
          27       1:   22   22:   39   68:   81
          28      25:   80   48:   80   28:   69
          29       1:   24   50:   80   28:   63
          30      30:   80   41:   52    1:   12
          31       1:   24   22:   40    1:   12
          32       1:   24   53:   80   64:   81
Setting up quadratic distribution...
ExtMesh (bp) on 0 =   167 x   136 x   108 =     2452896
PhiOnMesh: Number of (b)points on node 0 =                16128
PhiOnMesh: nlist on node 0 =               171923

stepf: Fermi-Dirac step function

siesta: Program's energy decomposition (eV):
siesta: Ebs     =      -384.568484
siesta: Eions   =      1993.464565
siesta: Ena     =       123.004852
siesta: Ekin    =      1614.856392
siesta: Enl     =     -1171.830578
siesta: Eso     =         0.000000
siesta: Edftu   =         0.000000
siesta: DEna    =       -16.310086
siesta: DUscf   =        19.984823
siesta: DUext   =         0.000000
siesta: Exc     =      -567.927424
siesta: eta*DQ  =         0.000000
siesta: Emadel  =         0.000000
siesta: Emeta   =         0.000000
siesta: Emolmec =         0.000000
siesta: Ekinion =         0.000000
siesta: Eharris =     -1989.185067
siesta: Etot    =     -1991.686585
siesta: FreeEng =     -1991.686585

        iscf     Eharris(eV)        E_KS(eV)     FreeEng(eV)     dDmax    Ef(eV) dHmax(eV)
   scf:    1    -1989.185067    -1991.686585    -1991.686585  0.943489 -5.415659 16.646642
     spin moment: S , {S} =   -0.00000       0.0       0.0  -0.00000
timer: Routine,Calls,Time,% = IterSCF        1       0.932  10.00
   scf:    2    -2005.361032    -2000.085746    -2000.085746  0.066765 -4.878614  5.357507
     spin moment: S , {S} =   -0.00000       0.0       0.0  -0.00000
   scf:    3    -2002.067360    -2001.304921    -2001.304921  0.037728 -3.667180  2.831802
     spin moment: S , {S} =   -0.00000       0.0       0.0  -0.00000
   scf:    4    -2002.301910    -2001.813219    -2001.813219  0.052148 -5.310695  1.193712
     spin moment: S , {S} =    0.00000       0.0       0.0   0.00000
   scf:    5    -2002.015787    -2001.927661    -2001.927661  0.024763 -5.028288  0.852192
     spin moment: S , {S} =   -0.00000       0.0       0.0  -0.00000
   scf:    6    -2001.992657    -2001.971203    -2001.971203  0.020412 -5.123688  0.524584
     spin moment: S , {S} =   -0.00000       0.0       0.0  -0.00000
   scf:    7    -2001.989503    -2001.987006    -2001.987006  0.007782 -5.016175  0.256415
     spin moment: S , {S} =   -0.00000       0.0       0.0  -0.00000
   scf:    8    -2001.998490    -2001.993604    -2001.993604  0.007105 -5.072153  0.089735
     spin moment: S , {S} =   -0.00000       0.0       0.0  -0.00000
   scf:    9    -2001.995611    -2001.994577    -2001.994577  0.003125 -5.059635  0.032812
     spin moment: S , {S} =   -0.00000       0.0       0.0  -0.00000
   scf:   10    -2001.994763    -2001.994682    -2001.994682  0.001195 -5.054461  0.019569
     spin moment: S , {S} =   -0.00000       0.0       0.0  -0.00000
   scf:   11    -2001.994697    -2001.994698    -2001.994698  0.000332 -5.056845  0.009425
     spin moment: S , {S} =   -0.00000       0.0       0.0  -0.00000
   scf:   12    -2001.994701    -2001.994701    -2001.994701  0.000143 -5.054976  0.004146
     spin moment: S , {S} =   -0.00000       0.0       0.0  -0.00000
   scf:   13    -2001.994703    -2001.994702    -2001.994702  0.000030 -5.055252  0.001423
     spin moment: S , {S} =   -0.00000       0.0       0.0  -0.00000
   scf:   14    -2001.994702    -2001.994702    -2001.994702  0.000026 -5.055565  0.001016
     spin moment: S , {S} =   -0.00000       0.0       0.0  -0.00000
   scf:   15    -2001.994702    -2001.994702    -2001.994702  0.000010 -5.055409  0.000210
     spin moment: S , {S} =   -0.00000       0.0       0.0  -0.00000

SCF Convergence by DM+H criterion
max |DM_out - DM_in|         :     0.0000099997
max |H_out - H_in|      (eV) :     0.0002099260
SCF cycle converged after 15 iterations

Using DM_out to compute the final energy and forces
No. of atoms with KB's overlaping orbs in proc 0. Max # of overlaps:      17     138

siesta: E_KS(eV) =            -2001.9947

siesta: E_KS - E_eggbox =     -2001.9947
     spin moment: S , {S} =   -0.00000       0.0       0.0  -0.00000

siesta: Atomic forces (eV/Ang):
     1    0.107992   -0.154812    0.065344
     2    0.053764   -2.556147    1.937025
     3    0.127437    0.162438    0.044295
     4   -0.063667   -0.243841    0.037186
     5   -0.020081   -0.073470    0.006885
     6   -0.591421    0.046220   -0.049387
     7    0.178672   -0.311555   -0.026537
     8    1.717560   -0.639391    1.097060
     9   -1.173951   -0.519036   -1.637885
    10    0.304937   -0.080113    0.047860
    11    0.017896   -0.135449   -0.193953
    12    0.008019   -0.100624   -0.091995
    13    0.085357   -0.240406    0.138662
    14    0.033574   -0.084595   -0.066154
    15   -0.005584   -0.087210   -0.042016
    16    0.085194   -0.012300   -0.080936
    17    2.404494   -1.934251    1.902525
    18    0.021828   -0.020344    0.067592
----------------------------------------
   Tot    3.292018   -6.984887    3.155571
----------------------------------------
   Max    2.556147
   Res    0.784876    sqrt( Sum f_i^2 / 3N )
----------------------------------------
   Max    2.556147    constrained

Stress tensor Voigt[x,y,z,yz,xz,xy] (kbar):       -0.33        0.37       -1.71       -0.79       -0.24       -0.50
(Free)E + p*V (eV/cell)    -2000.9781
Target enthalpy (eV/cell)    -2001.9947

mulliken: Atomic and Orbital Populations:

mulliken: Spin UP 

Species: H                   
Atom  Qatom  Qorb
               1s      1s      2Ppy    2Ppz    2Ppx    
   1  0.365   0.197   0.105   0.022   0.025   0.016
   4  0.602   0.535   0.042   0.008   0.007   0.009
   5  0.597   0.532   0.043   0.012   0.005   0.006
   7  0.600   0.532   0.041   0.004   0.013   0.010
  10  0.602   0.536   0.042   0.011   0.003   0.010
  11  0.596   0.536   0.042   0.007   0.001   0.010
  13  0.601   0.532   0.041   0.016   0.007   0.005
  15  0.601   0.529   0.041   0.008   0.009   0.014
  16  0.608   0.540   0.039   0.007   0.013   0.009
  18  0.373   0.203   0.104   0.029   0.021   0.016

Species: O                   
Atom  Qatom  Qorb
               2s      2s      2py     2pz     2px     2py     2pz     2px     
               3Pdxy   3Pdyz   3Pdz2   3Pdxz   3Pdx2-y2
   2  3.275   0.849   0.035   0.796   0.800   0.751   0.007   0.003   0.022
              0.004   0.002   0.004   0.002   0.000
   8  3.285   0.867   0.019   0.742   0.756   0.879   0.013   0.015  -0.018
              0.002   0.003   0.003   0.002   0.002
  17  3.262   0.840   0.041   0.891   0.713   0.724  -0.011   0.022   0.028
              0.002   0.001   0.005   0.002   0.002

Species: Si                  
Atom  Qatom  Qorb
               3s      3s      3py     3pz     3px     3py     3pz     3px     
               3Pdxy   3Pdyz   3Pdz2   3Pdxz   3Pdx2-y2
   3  1.665   0.225   0.240   0.172   0.119   0.190   0.180   0.142   0.153
              0.040   0.065   0.046   0.063   0.030
   6  1.748   0.256   0.229   0.154   0.166   0.213   0.105   0.190   0.169
              0.068   0.058   0.050   0.041   0.048
   9  1.670   0.223   0.239   0.197   0.162   0.112   0.161   0.105   0.208
              0.059   0.065   0.059   0.052   0.027
  12  1.767   0.252   0.229   0.122   0.298   0.119   0.215   0.119   0.124
              0.089   0.033   0.046   0.056   0.065
  14  1.783   0.289   0.219   0.315   0.183   0.120   0.115   0.175   0.213
              0.026   0.030   0.032   0.035   0.032

mulliken: Qtot =       24.000

mulliken: Spin DOWN 

Species: H                   
Atom  Qatom  Qorb
               1s      1s      2Ppy    2Ppz    2Ppx    
   1  0.365   0.197   0.105   0.022   0.025   0.016
   4  0.602   0.535   0.042   0.008   0.007   0.009
   5  0.597   0.532   0.043   0.012   0.005   0.006
   7  0.600   0.532   0.041   0.004   0.013   0.010
  10  0.602   0.536   0.042   0.011   0.003   0.010
  11  0.596   0.536   0.042   0.007   0.001   0.010
  13  0.601   0.532   0.041   0.016   0.007   0.005
  15  0.601   0.529   0.041   0.008   0.009   0.014
  16  0.608   0.540   0.039   0.007   0.013   0.009
  18  0.373   0.203   0.104   0.029   0.021   0.016

Species: O                   
Atom  Qatom  Qorb
               2s      2s      2py     2pz     2px     2py     2pz     2px     
               3Pdxy   3Pdyz   3Pdz2   3Pdxz   3Pdx2-y2
   2  3.275   0.849   0.035   0.796   0.800   0.751   0.007   0.003   0.022
              0.004   0.002   0.004   0.002   0.000
   8  3.285   0.867   0.019   0.742   0.756   0.879   0.013   0.015  -0.018
              0.002   0.003   0.003   0.002   0.002
  17  3.262   0.840   0.041   0.891   0.713   0.724  -0.011   0.022   0.028
              0.002   0.001   0.005   0.002   0.002

Species: Si                  
Atom  Qatom  Qorb
               3s      3s      3py     3pz     3px     3py     3pz     3px     
               3Pdxy   3Pdyz   3Pdz2   3Pdxz   3Pdx2-y2
   3  1.665   0.225   0.240   0.172   0.119   0.190   0.180   0.142   0.153
              0.040   0.065   0.046   0.063   0.030
   6  1.748   0.256   0.229   0.154   0.166   0.213   0.105   0.190   0.169
              0.068   0.058   0.050   0.041   0.048
   9  1.670   0.223   0.239   0.197   0.162   0.112   0.161   0.105   0.208
              0.059   0.065   0.059   0.052   0.027
  12  1.767   0.252   0.229   0.122   0.298   0.119   0.215   0.119   0.124
              0.089   0.033   0.046   0.056   0.065
  14  1.783   0.289   0.219   0.315   0.183   0.120   0.115   0.175   0.213
              0.026   0.030   0.032   0.035   0.032

mulliken: Qtot =       24.000

                     ====================================
                        Begin CG opt. move =      1
                     ====================================

outcoor: Atomic coordinates (Ang):                          
   -0.70010728    8.80663902    1.75871480   1       1  H
    0.00228061    7.98141144    1.76963921   2       2  O
    0.82669280    7.71695648    3.17335707   3       3  Si
   -0.09342395    6.95364558    4.12478796   1       4  H
    1.24024881    8.99192790    3.86058422   1       5  H
    2.86147094    6.71807252    2.58768268   3       6  Si
    3.82201465    6.86228829    3.77161081   1       7  H
    2.80118794    4.99640395    2.16088847   2       8  O
    2.25627224    4.52368251    0.46763462   3       9  Si
    3.29602314    3.52324718    0.00174325   1      10  H
    0.97665297    3.87351847    0.77989567   1      11  H
    3.34599599    7.96068400    0.64697683   3      12  Si
    2.93083949    9.42126513    0.70856378   1      13  H
    2.13210085    6.52273760   -0.78492757   3      14  Si
    0.70876705    6.96162678   -1.05429364   1      15  H
    2.84241726    6.34829279   -2.11046741   1      16  H
    5.17802646    7.66119383    0.44697101   2      17  O
    5.31961990    7.93554189   -0.59339892   1      18  H

outcell: Unit cell vectors (Ang):
       14.215213    0.000000    0.000000
        0.000000   14.093032    0.000000
        0.000000    0.000000   14.526675

outcell: Cell vector modules (Ang)   :   14.215213   14.093032   14.526675
outcell: Cell angles (23,13,12) (deg):     90.0000     90.0000     90.0000
outcell: Cell volume (Ang**3)        :   2910.2078
<dSpData1D:S at geom step 1
  <sparsity:sparsity for geom step 1
    nrows_g=154 nrows=8 sparsity=.0497 nnzs=1178, refcount: 7>
  <dData1D:(new from dSpData1D) n=1178, refcount: 1>
refcount: 1>
new_DM -- step:     2
Re-using DM from previous geometries...
Number of DMs in history: 1
 DM extrapolation coefficients: 
1   1.00000
New DM after history re-use:
<dSpData2D:SpM extrapolated using coords
  <sparsity:sparsity for geom step 1
    nrows_g=154 nrows=8 sparsity=.0497 nnzs=1178, refcount: 9>
  <dData2D:(temp array for extrapolation) n=1178 m=2, refcount: 1>
refcount: 1>
     spin moment: S , {S} =    0.00000       0.0       0.0   0.00000
Note: For starting DM, Qtot, Tr[D*S] =         48.00000000         47.81864488
No. of atoms with KB's overlaping orbs in proc 0. Max # of overlaps:      17     138
New grid distribution:   1
           1       1:   80    1:   20    1:   11
           2       1:   80    1:   20   12:   21
           3       1:   80    1:   20   22:   31
           4       1:   80    1:   20   32:   41
           5       1:   80    1:   20   42:   51
           6       1:   80    1:   20   52:   61
           7       1:   80    1:   20   62:   71
           8       1:   80    1:   20   72:   81
           9       1:   80   21:   40    1:   11
          10       1:   80   21:   40   12:   21
          11       1:   80   21:   40   22:   31
          12       1:   80   21:   40   32:   41
          13       1:   80   21:   40   42:   51
          14       1:   80   21:   40   52:   61
          15       1:   80   21:   40   62:   71
          16       1:   80   21:   40   72:   81
          17       1:   80   41:   60    1:   11
          18       1:   80   41:   60   12:   21
          19       1:   80   41:   60   22:   31
          20       1:   80   41:   60   32:   41
          21       1:   80   41:   60   42:   51
          22       1:   80   41:   60   52:   61
          23       1:   80   41:   60   62:   71
          24       1:   80   41:   60   72:   81
          25       1:   80   61:   80    1:   11
          26       1:   80   61:   80   12:   21
          27       1:   80   61:   80   22:   31
          28       1:   80   61:   80   32:   41
          29       1:   80   61:   80   42:   51
          30       1:   80   61:   80   52:   61
          31       1:   80   61:   80   62:   71
          32       1:   80   61:   80   72:   81

InitMesh: MESH =   160 x   160 x   162 =     4147200
InitMesh: (bp) =    80 x    80 x    81 =      518400
InitMesh: Mesh cutoff (required, used) =   340.000   343.716 Ry
ExtMesh (bp) on 0 =   184 x   124 x   111 =     2532576
New grid distribution:   2
           1      18:   80    1:   32    8:   15
           2       1:   17    1:   31    1:    8
           3      17:   80    1:   32   16:   69
           4      18:   80   33:   39    1:    7
           5       1:   16    1:   32   16:   63
           6       1:   17   48:   80   16:   31
           7       1:   17    1:   31    9:   15
           8       1:   16   31:   39   64:   81
           9      18:   80    1:   32    1:    7
          10      18:   80   40:   46    9:   15
          11      17:   80   33:   39   16:   69
          12       1:   16   33:   39   16:   63
          13      18:   80   33:   39    8:   15
          14       1:   17   32:   39    1:    8
          15       1:   16    1:   30   64:   81
          16      17:   80    1:   31   70:   81
          17       1:   17   48:   80    1:    8
          18      18:   80   47:   80    9:   15
          19       1:   17   40:   47   16:   31
          20       1:   17   47:   80   32:   81
          21      18:   80   40:   47   16:   64
          22       1:   17   40:   46   32:   81
          23       1:   17   40:   47    1:    8
          24      18:   80   40:   46   65:   81
          25      18:   80   47:   80    1:    8
          26       1:   17   48:   80    9:   15
          27      18:   80   48:   80   16:   64
          28       1:   17   32:   39    9:   15
          29      17:   80   32:   39   70:   81
          30      18:   80   40:   46    1:    8
          31       1:   17   40:   47    9:   15
          32      18:   80   47:   80   65:   81
New grid distribution:   3
           1      25:   80    1:   26    1:   12
           2       1:   24    1:   24   13:   27
           3       1:   29   41:   56    1:   13
           4      23:   80    1:   32   28:   69
           5       1:   22    1:   30   28:   67
           6      30:   80   41:   51   13:   27
           7       1:   22    1:   21   68:   81
           8      23:   80    1:   26   70:   81
           9       1:   24    1:   21    1:   12
          10      25:   80    1:   30   13:   27
          11      25:   80   31:   40   13:   27
          12      23:   80   33:   39   28:   69
          13      25:   80   40:   47   28:   69
          14      25:   80   27:   40    1:   12
          15       1:   22   31:   39   28:   67
          16       1:   24   25:   40   13:   27
          17       1:   29   57:   80    1:   13
          18      30:   80   52:   80   13:   27
          19       1:   29   55:   80   14:   27
          20       1:   29   41:   54   14:   27
          21      23:   80   27:   39   70:   81
          22       1:   24   40:   49   28:   63
          23       1:   24   40:   52   64:   81
          24      25:   80   51:   80   70:   81
          25      30:   80   53:   80    1:   12
          26      25:   80   40:   50   70:   81
          27       1:   22   22:   39   68:   81
          28      25:   80   48:   80   28:   69
          29       1:   24   50:   80   28:   63
          30      30:   80   41:   52    1:   12
          31       1:   24   22:   40    1:   12
          32       1:   24   53:   80   64:   81
Setting up quadratic distribution...
ExtMesh (bp) on 0 =   167 x   136 x   108 =     2452896
PhiOnMesh: Number of (b)points on node 0 =                16128
PhiOnMesh: nlist on node 0 =               172997

        iscf     Eharris(eV)        E_KS(eV)     FreeEng(eV)     dDmax    Ef(eV) dHmax(eV)
   scf:    1    -2002.184084    -2001.170913    -2001.170913  0.106725 -5.112429  2.286954
     spin moment: S , {S} =   -0.00000       0.0       0.0  -0.00000
   scf:    2    -1999.723023    -2000.858179    -2000.858179  0.048421 -3.945002  3.645822
     spin moment: S , {S} =    0.00000       0.0       0.0   0.00000
   scf:    3    -2001.546959    -2001.378698    -2001.378698  0.029274 -5.378783  0.395635
     spin moment: S , {S} =   -0.00000       0.0       0.0  -0.00000
   scf:    4    -2001.384340    -2001.382017    -2001.382017  0.002933 -5.377938  0.094482
     spin moment: S , {S} =   -0.00000       0.0       0.0  -0.00000
   scf:    5    -2001.382608    -2001.382354    -2001.382354  0.001038 -5.373805  0.027897
     spin moment: S , {S} =   -0.00000       0.0       0.0  -0.00000
   scf:    6    -2001.382423    -2001.382392    -2001.382392  0.000497 -5.372978  0.008901
     spin moment: S , {S} =    0.00000       0.0       0.0   0.00000
   scf:    7    -2001.382413    -2001.382403    -2001.382403  0.000292 -5.372676  0.003165
     spin moment: S , {S} =    0.00000       0.0       0.0   0.00000
   scf:    8    -2001.382406    -2001.382405    -2001.382405  0.000118 -5.372535  0.000898
     spin moment: S , {S} =    0.00000       0.0       0.0   0.00000
   scf:    9    -2001.382405    -2001.382405    -2001.382405  0.000061 -5.372596  0.000222
     spin moment: S , {S} =    0.00000       0.0       0.0   0.00000

SCF Convergence by DM+H criterion
max |DM_out - DM_in|         :     0.0000614271
max |H_out - H_in|      (eV) :     0.0002220852
SCF cycle converged after 9 iterations

Using DM_out to compute the final energy and forces
No. of atoms with KB's overlaping orbs in proc 0. Max # of overlaps:      17     138

siesta: E_KS(eV) =            -2001.3824
     spin moment: S , {S} =    0.00000       0.0       0.0   0.00000

siesta: Atomic forces (eV/Ang):
     1    1.975867   -2.457829    0.088116
     2   -3.954148    5.193133    1.688819
     3    0.936147   -0.885814    2.574306
     4    0.310257    0.231102    0.032484
     5    0.071561    0.159665    0.013955
     6    0.090330   -0.608902    0.261653
     7   -0.157402    0.085409   -0.322623
     8    0.554232    4.849999   -3.625934
     9    0.997946    0.503377    1.532794
    10   -0.290118    0.051836   -0.136971
    11   -0.698022   -0.401163   -0.070184
    12    1.531944   -0.730253    0.389280
    13    0.146755    0.038225    0.043820
    14    0.064176    0.128157   -0.322654
    15    0.029089   -0.030082   -0.064072
    16    0.024318   -0.050865   -0.088038
    17   -4.328102    1.954517   -3.092976
    18    0.038262   -0.799945    2.702245
----------------------------------------
   Tot   -2.656906    7.230567    1.604019
----------------------------------------
   Max    5.193133
   Res    1.661420    sqrt( Sum f_i^2 / 3N )
----------------------------------------
   Max    5.193133    constrained

Stress tensor Voigt[x,y,z,yz,xz,xy] (kbar):        1.53        1.97       -0.06        0.16       -0.48       -1.28
(Free)E + p*V (eV/cell)    -2003.4670
Target enthalpy (eV/cell)    -2001.3824

mulliken: Atomic and Orbital Populations:

mulliken: Spin UP 

Species: H                   
Atom  Qatom  Qorb
               1s      1s      2Ppy    2Ppz    2Ppx    
   1  0.356   0.221   0.084   0.019   0.019   0.013
   4  0.602   0.539   0.041   0.008   0.005   0.009
   5  0.599   0.532   0.044   0.011   0.005   0.006
   7  0.602   0.538   0.039   0.003   0.012   0.010
  10  0.602   0.538   0.041   0.011   0.002   0.011
  11  0.596   0.529   0.045   0.009   0.003   0.010
  13  0.601   0.530   0.041   0.017   0.008   0.007
  15  0.601   0.529   0.040   0.008   0.009   0.014
  16  0.606   0.539   0.039   0.007   0.012   0.009
  18  0.385   0.234   0.084   0.028   0.018   0.020

Species: O                   
Atom  Qatom  Qorb
               2s      2s      2py     2pz     2px     2py     2pz     2px     
               3Pdxy   3Pdyz   3Pdz2   3Pdxz   3Pdx2-y2
   2  3.277   0.857   0.028   0.784   0.807   0.760   0.003   0.008   0.017
              0.004   0.002   0.004   0.002   0.001
   8  3.280   0.889   0.015   0.734   0.751   0.880   0.013   0.006  -0.019
              0.002   0.002   0.003   0.002   0.002
  17  3.259   0.886   0.024   0.891   0.693   0.734  -0.013   0.017   0.013
              0.002   0.002   0.006   0.002   0.002

Species: Si                  
Atom  Qatom  Qorb
               3s      3s      3py     3pz     3px     3py     3pz     3px     
               3Pdxy   3Pdyz   3Pdz2   3Pdxz   3Pdx2-y2
   3  1.672   0.210   0.245   0.165   0.117   0.188   0.183   0.143   0.153
              0.044   0.069   0.055   0.067   0.033
   6  1.758   0.259   0.228   0.146   0.173   0.212   0.117   0.181   0.169
              0.075   0.064   0.047   0.041   0.047
   9  1.655   0.239   0.238   0.201   0.164   0.096   0.161   0.102   0.221
              0.058   0.052   0.052   0.043   0.027
  12  1.766   0.276   0.221   0.125   0.308   0.116   0.213   0.119   0.122
              0.079   0.031   0.041   0.052   0.061
  14  1.783   0.287   0.219   0.306   0.180   0.119   0.116   0.177   0.216
              0.027   0.031   0.035   0.035   0.035

mulliken: Qtot =       24.000

mulliken: Spin DOWN 

Species: H                   
Atom  Qatom  Qorb
               1s      1s      2Ppy    2Ppz    2Ppx    
   1  0.356   0.221   0.084   0.019   0.019   0.013
   4  0.602   0.539   0.041   0.008   0.005   0.009
   5  0.599   0.532   0.044   0.011   0.005   0.006
   7  0.602   0.538   0.039   0.003   0.012   0.010
  10  0.602   0.538   0.041   0.011   0.002   0.011
  11  0.596   0.529   0.045   0.009   0.003   0.010
  13  0.601   0.530   0.041   0.017   0.008   0.007
  15  0.601   0.529   0.040   0.008   0.009   0.014
  16  0.606   0.539   0.039   0.007   0.012   0.009
  18  0.385   0.234   0.084   0.028   0.018   0.020

Species: O                   
Atom  Qatom  Qorb
               2s      2s      2py     2pz     2px     2py     2pz     2px     
               3Pdxy   3Pdyz   3Pdz2   3Pdxz   3Pdx2-y2
   2  3.277   0.857   0.028   0.784   0.807   0.760   0.003   0.008   0.017
              0.004   0.002   0.004   0.002   0.001
   8  3.280   0.889   0.015   0.734   0.751   0.880   0.013   0.006  -0.019
              0.002   0.002   0.003   0.002   0.002
  17  3.259   0.886   0.024   0.891   0.693   0.734  -0.013   0.017   0.013
              0.002   0.002   0.006   0.002   0.002

Species: Si                  
Atom  Qatom  Qorb
               3s      3s      3py     3pz     3px     3py     3pz     3px     
               3Pdxy   3Pdyz   3Pdz2   3Pdxz   3Pdx2-y2
   3  1.672   0.210   0.245   0.165   0.117   0.188   0.183   0.143   0.153
              0.044   0.069   0.055   0.067   0.033
   6  1.758   0.259   0.228   0.146   0.173   0.212   0.117   0.181   0.169
              0.075   0.064   0.047   0.041   0.047
   9  1.655   0.239   0.238   0.201   0.164   0.096   0.161   0.102   0.221
              0.058   0.052   0.052   0.043   0.027
  12  1.766   0.276   0.221   0.125   0.308   0.116   0.213   0.119   0.122
              0.079   0.031   0.041   0.052   0.061
  14  1.783   0.287   0.219   0.306   0.180   0.119   0.116   0.177   0.216
              0.027   0.031   0.035   0.035   0.035

mulliken: Qtot =       24.000

                     ====================================
                        Begin CG opt. move =      2
                     ====================================

outcoor: Atomic coordinates (Ang):                          
   -0.70316191    8.81101799    1.75686650   1       1  H
    0.00075984    8.05371399    1.71484899   2       2  O
    0.82308814    7.71236179    3.17210415   3       3  Si
   -0.09162308    6.96054281    4.12373613   1       4  H
    1.24081683    8.99400607    3.86038947   1       5  H
    2.87819974    6.71676517    2.58907964   3       6  Si
    3.81696079    6.87110086    3.77236144   1       7  H
    2.75260546    5.01448961    2.12985729   2       8  O
    2.28947831    4.53836384    0.51396342   3       9  Si
    3.28739778    3.52551325    0.00038950   1      10  H
    0.97614677    3.87734976    0.78538178   1      11  H
    3.34576917    7.96353022    0.64957897   3      12  Si
    2.92842509    9.42806518    0.70464162   1      13  H
    2.13115118    6.52513043   -0.78305636   3      14  Si
    0.70892501    6.96409359   -1.05310518   1      15  H
    2.84000749    6.34864070   -2.10817807   1      16  H
    5.11001354    7.71590558    0.39315667   2      17  O
    5.31900249    7.93611732   -0.59531081   1      18  H

outcell: Unit cell vectors (Ang):
       14.215213    0.000000    0.000000
        0.000000   14.093032    0.000000
        0.000000    0.000000   14.526675

outcell: Cell vector modules (Ang)   :   14.215213   14.093032   14.526675
outcell: Cell angles (23,13,12) (deg):     90.0000     90.0000     90.0000
outcell: Cell volume (Ang**3)        :   2910.2078
<dSpData1D:S at geom step 2
  <sparsity:sparsity for geom step 2
    nrows_g=154 nrows=8 sparsity=.0497 nnzs=1178, refcount: 7>
  <dData1D:(new from dSpData1D) n=1178, refcount: 1>
refcount: 1>
new_DM -- step:     3
Re-using DM from previous geometries...
Number of DMs in history: 1
 DM extrapolation coefficients: 
1   1.00000
New DM after history re-use:
<dSpData2D:SpM extrapolated using coords
  <sparsity:sparsity for geom step 2
    nrows_g=154 nrows=8 sparsity=.0497 nnzs=1178, refcount: 9>
  <dData2D:(temp array for extrapolation) n=1178 m=2, refcount: 1>
refcount: 1>
     spin moment: S , {S} =   -0.00000       0.0       0.0  -0.00000
Note: For starting DM, Qtot, Tr[D*S] =         48.00000000         48.06421328
No. of atoms with KB's overlaping orbs in proc 0. Max # of overlaps:      17     138
New grid distribution:   1
           1       1:   80    1:   20    1:   11
           2       1:   80    1:   20   12:   21
           3       1:   80    1:   20   22:   31
           4       1:   80    1:   20   32:   41
           5       1:   80    1:   20   42:   51
           6       1:   80    1:   20   52:   61
           7       1:   80    1:   20   62:   71
           8       1:   80    1:   20   72:   81
           9       1:   80   21:   40    1:   11
          10       1:   80   21:   40   12:   21
          11       1:   80   21:   40   22:   31
          12       1:   80   21:   40   32:   41
          13       1:   80   21:   40   42:   51
          14       1:   80   21:   40   52:   61
          15       1:   80   21:   40   62:   71
          16       1:   80   21:   40   72:   81
          17       1:   80   41:   60    1:   11
          18       1:   80   41:   60   12:   21
          19       1:   80   41:   60   22:   31
          20       1:   80   41:   60   32:   41
          21       1:   80   41:   60   42:   51
          22       1:   80   41:   60   52:   61
          23       1:   80   41:   60   62:   71
          24       1:   80   41:   60   72:   81
          25       1:   80   61:   80    1:   11
          26       1:   80   61:   80   12:   21
          27       1:   80   61:   80   22:   31
          28       1:   80   61:   80   32:   41
          29       1:   80   61:   80   42:   51
          30       1:   80   61:   80   52:   61
          31       1:   80   61:   80   62:   71
          32       1:   80   61:   80   72:   81

InitMesh: MESH =   160 x   160 x   162 =     4147200
InitMesh: (bp) =    80 x    80 x    81 =      518400
InitMesh: Mesh cutoff (required, used) =   340.000   343.716 Ry
ExtMesh (bp) on 0 =   184 x   124 x   111 =     2532576
New grid distribution:   2
           1      18:   80    1:   32    8:   15
           2       1:   17    1:   31    1:    8
           3      17:   80    1:   32   16:   69
           4      18:   80   33:   39    1:    7
           5       1:   16    1:   32   16:   63
           6       1:   17   48:   80   16:   31
           7       1:   17    1:   31    9:   15
           8       1:   16   31:   39   64:   81
           9      18:   80    1:   32    1:    7
          10      18:   80   40:   46    9:   15
          11      17:   80   33:   39   16:   69
          12       1:   16   33:   39   16:   63
          13      18:   80   33:   39    8:   15
          14       1:   17   32:   39    1:    8
          15       1:   16    1:   30   64:   81
          16      17:   80    1:   31   70:   81
          17       1:   17   48:   80    1:    8
          18      18:   80   47:   80    9:   15
          19       1:   17   40:   47   16:   31
          20       1:   17   47:   80   32:   81
          21      18:   80   40:   47   16:   65
          22       1:   17   40:   46   32:   81
          23       1:   17   40:   47    1:    8
          24      18:   80   40:   46   66:   81
          25      18:   80   47:   80    1:    8
          26       1:   17   48:   80    9:   15
          27      18:   80   48:   80   16:   65
          28       1:   17   32:   39    9:   15
          29      17:   80   32:   39   70:   81
          30      18:   80   40:   46    1:    8
          31       1:   17   40:   47    9:   15
          32      18:   80   47:   80   66:   81
New grid distribution:   3
           1      25:   80    1:   26    1:   12
           2       1:   24    1:   24   13:   27
           3       1:   29   41:   56    1:   13
           4      23:   80    1:   32   28:   69
           5       1:   22    1:   30   28:   67
           6      30:   80   41:   51   13:   27
           7       1:   22    1:   21   68:   81
           8      23:   80    1:   26   70:   81
           9       1:   24    1:   21    1:   12
          10      25:   80    1:   30   13:   27
          11      25:   80   31:   40   13:   27
          12      23:   80   33:   39   28:   69
          13      25:   80   40:   47   28:   69
          14      25:   80   27:   40    1:   12
          15       1:   22   31:   39   28:   67
          16       1:   24   25:   40   13:   27
          17       1:   29   57:   80    1:   13
          18      30:   80   52:   80   13:   27
          19       1:   29   55:   80   14:   27
          20       1:   29   41:   54   14:   27
          21      23:   80   27:   39   70:   81
          22       1:   24   40:   49   28:   63
          23       1:   24   40:   52   64:   81
          24      25:   80   51:   80   70:   81
          25      30:   80   53:   80    1:   12
          26      25:   80   40:   50   70:   81
          27       1:   22   22:   39   68:   81
          28      25:   80   48:   80   28:   69
          29       1:   24   50:   80   28:   63
          30      30:   80   41:   52    1:   12
          31       1:   24   22:   40    1:   12
          32       1:   24   53:   80   64:   81
Setting up quadratic distribution...
ExtMesh (bp) on 0 =   167 x   136 x   108 =     2452896
PhiOnMesh: Number of (b)points on node 0 =                16128
PhiOnMesh: nlist on node 0 =               172365

        iscf     Eharris(eV)        E_KS(eV)     FreeEng(eV)     dDmax    Ef(eV) dHmax(eV)
   scf:    1    -2001.154450    -2001.841246    -2001.841246  0.039846 -5.430812  1.038049
     spin moment: S , {S} =    0.00000       0.0       0.0   0.00000
   scf:    2    -2001.420393    -2001.745306    -2001.745306  0.018926 -4.981690  2.316583
     spin moment: S , {S} =    0.00000       0.0       0.0   0.00000
   scf:    3    -2001.938230    -2001.893991    -2001.893991  0.014322 -5.273580  0.215428
     spin moment: S , {S} =   -0.00000       0.0       0.0  -0.00000
   scf:    4    -2001.895792    -2001.895052    -2001.895052  0.001308 -5.267320  0.054602
     spin moment: S , {S} =   -0.00000       0.0       0.0  -0.00000
   scf:    5    -2001.895226    -2001.895155    -2001.895155  0.000559 -5.269829  0.005419
     spin moment: S , {S} =    0.00000       0.0       0.0   0.00000
   scf:    6    -2001.895168    -2001.895162    -2001.895162  0.000144 -5.269659  0.002730
     spin moment: S , {S} =    0.00000       0.0       0.0   0.00000
   scf:    7    -2001.895166    -2001.895164    -2001.895164  0.000101 -5.269688  0.000682
     spin moment: S , {S} =    0.00000       0.0       0.0   0.00000
   scf:    8    -2001.895164    -2001.895164    -2001.895164  0.000027 -5.269648  0.000363
     spin moment: S , {S} =   -0.00000       0.0       0.0  -0.00000

SCF Convergence by DM+H criterion
max |DM_out - DM_in|         :     0.0000269788
max |H_out - H_in|      (eV) :     0.0003625187
SCF cycle converged after 8 iterations

Using DM_out to compute the final energy and forces
No. of atoms with KB's overlaping orbs in proc 0. Max # of overlaps:      17     138

siesta: E_KS(eV) =            -2001.8952
     spin moment: S , {S} =   -0.00000       0.0       0.0  -0.00000

siesta: Atomic forces (eV/Ang):
     1    1.118635   -1.285461    0.021095
     2   -1.851502    0.187769   -3.617086
     3    0.392267   -0.318433    1.074313
     4    0.181257   -0.120242    0.066982
     5    0.021154    0.028933    0.016489
     6   -0.292968   -0.236002    0.084768
     7    0.086864   -0.165585   -0.261650
     8    0.754267    2.417510    3.605045
     9   -0.141800    0.071332    0.149607
    10    0.025270   -0.137244   -0.064857
    11   -0.299214   -0.241620   -0.143785
    12    0.834026   -0.399079    0.111903
    13    0.127088   -0.144756    0.095243
    14    0.049166    0.015002   -0.186043
    15    0.011006   -0.062101   -0.052209
    16    0.056961   -0.031229   -0.083768
    17   -0.039290    2.173591   -3.684557
    18   -0.074242   -0.369201    1.430751
----------------------------------------
   Tot    0.958945    1.383185   -1.437757
----------------------------------------
   Max    3.684557
   Res    1.073889    sqrt( Sum f_i^2 / 3N )
----------------------------------------
   Max    3.684557    constrained

Stress tensor Voigt[x,y,z,yz,xz,xy] (kbar):        0.57        1.38       -0.62       -0.18       -0.39       -0.83
(Free)E + p*V (eV/cell)    -2002.6999
Target enthalpy (eV/cell)    -2001.8952

mulliken: Atomic and Orbital Populations:

mulliken: Spin UP 

Species: H                   
Atom  Qatom  Qorb
               1s      1s      2Ppy    2Ppz    2Ppx    
   1  0.359   0.207   0.095   0.021   0.022   0.014
   4  0.602   0.537   0.042   0.008   0.006   0.009
   5  0.598   0.532   0.043   0.011   0.005   0.006
   7  0.601   0.535   0.040   0.003   0.013   0.010
  10  0.602   0.537   0.042   0.011   0.002   0.011
  11  0.596   0.533   0.043   0.008   0.002   0.010
  13  0.601   0.531   0.041   0.016   0.007   0.006
  15  0.601   0.529   0.041   0.008   0.009   0.014
  16  0.608   0.540   0.039   0.007   0.013   0.009
  18  0.378   0.215   0.095   0.029   0.021   0.018

Species: O                   
Atom  Qatom  Qorb
               2s      2s      2py     2pz     2px     2py     2pz     2px     
               3Pdxy   3Pdyz   3Pdz2   3Pdxz   3Pdx2-y2
   2  3.277   0.853   0.033   0.791   0.804   0.755   0.005   0.005   0.019
              0.004   0.002   0.004   0.002   0.001
   8  3.283   0.873   0.021   0.738   0.753   0.881   0.013   0.011  -0.019
              0.002   0.003   0.003   0.002   0.002
  17  3.263   0.870   0.023   0.891   0.705   0.730  -0.011   0.020   0.021
              0.002   0.002   0.006   0.002   0.002

Species: Si                  
Atom  Qatom  Qorb
               3s      3s      3py     3pz     3px     3py     3pz     3px     
               3Pdxy   3Pdyz   3Pdz2   3Pdxz   3Pdx2-y2
   3  1.668   0.217   0.243   0.169   0.118   0.189   0.181   0.143   0.153
              0.042   0.067   0.050   0.065   0.031
   6  1.753   0.257   0.229   0.151   0.169   0.212   0.110   0.186   0.169
              0.072   0.061   0.048   0.041   0.047
   9  1.663   0.229   0.239   0.199   0.163   0.104   0.161   0.104   0.214
              0.059   0.059   0.056   0.048   0.027
  12  1.764   0.262   0.226   0.123   0.303   0.118   0.214   0.119   0.123
              0.084   0.032   0.044   0.054   0.063
  14  1.783   0.288   0.219   0.311   0.181   0.120   0.115   0.176   0.214
              0.027   0.031   0.033   0.035   0.034

mulliken: Qtot =       24.000

mulliken: Spin DOWN 

Species: H                   
Atom  Qatom  Qorb
               1s      1s      2Ppy    2Ppz    2Ppx    
   1  0.359   0.207   0.095   0.021   0.022   0.014
   4  0.602   0.537   0.042   0.008   0.006   0.009
   5  0.598   0.532   0.043   0.011   0.005   0.006
   7  0.601   0.535   0.040   0.003   0.013   0.010
  10  0.602   0.537   0.042   0.011   0.002   0.011
  11  0.596   0.533   0.043   0.008   0.002   0.010
  13  0.601   0.531   0.041   0.016   0.007   0.006
  15  0.601   0.529   0.041   0.008   0.009   0.014
  16  0.608   0.540   0.039   0.007   0.013   0.009
  18  0.378   0.215   0.095   0.029   0.021   0.018

Species: O                   
Atom  Qatom  Qorb
               2s      2s      2py     2pz     2px     2py     2pz     2px     
               3Pdxy   3Pdyz   3Pdz2   3Pdxz   3Pdx2-y2
   2  3.277   0.853   0.033   0.791   0.804   0.755   0.005   0.005   0.019
              0.004   0.002   0.004   0.002   0.001
   8  3.283   0.873   0.021   0.738   0.753   0.881   0.013   0.011  -0.019
              0.002   0.003   0.003   0.002   0.002
  17  3.263   0.870   0.023   0.891   0.705   0.730  -0.011   0.020   0.021
              0.002   0.002   0.006   0.002   0.002

Species: Si                  
Atom  Qatom  Qorb
               3s      3s      3py     3pz     3px     3py     3pz     3px     
               3Pdxy   3Pdyz   3Pdz2   3Pdxz   3Pdx2-y2
   3  1.668   0.217   0.243   0.169   0.118   0.189   0.181   0.143   0.153
              0.042   0.067   0.050   0.065   0.031
   6  1.753   0.257   0.229   0.151   0.169   0.212   0.110   0.186   0.169
              0.072   0.061   0.048   0.041   0.047
   9  1.663   0.229   0.239   0.199   0.163   0.104   0.161   0.104   0.214
              0.059   0.059   0.056   0.048   0.027
  12  1.764   0.262   0.226   0.123   0.303   0.118   0.214   0.119   0.123
              0.084   0.032   0.044   0.054   0.063
  14  1.783   0.288   0.219   0.311   0.181   0.120   0.115   0.176   0.214
              0.027   0.031   0.033   0.035   0.034

mulliken: Qtot =       24.000

cgvc: Finished line minimization    1.  Mean atomic displacement =    0.0610

                     ====================================
                        Begin CG opt. move =      3
                     ====================================

outcoor: Atomic coordinates (Ang):                          
   -0.68891775    8.79391226    1.75865477   1       1  H
   -0.01723510    7.99431090    1.72367011   2       2  O
    0.83023312    7.71294418    3.18435763   3       3  Si
   -0.09126337    6.95343707    4.12532645   1       4  H
    1.24055513    8.99254383    3.86072650   1       5  H
    2.86095139    6.71541641    2.58877708   3       6  Si
    3.82215450    6.86189739    3.76899904   1       7  H
    2.80169111    5.02432253    2.19374233   2       8  O
    2.25982126    4.52664766    0.47620522   3       9  Si
    3.29498083    3.52216062    0.00086279   1      10  H
    0.97345968    3.87158162    0.77922836   1      11  H
    3.35464901    7.95695793    0.64853629   3      12  Si
    2.93179781    9.42078658    0.70896220   1      13  H
    2.13246922    6.52325604   -0.78658219   3      14  Si
    0.70890560    6.96135331   -1.05465757   1      15  H
    2.84264583    6.34802016   -2.11099344   1      16  H
    5.16732285    7.69211539    0.40044683   2      17  O
    5.31875314    7.93178334   -0.57878538   1      18  H

outcell: Unit cell vectors (Ang):
       14.215213    0.000000    0.000000
        0.000000   14.093032    0.000000
        0.000000    0.000000   14.526675

outcell: Cell vector modules (Ang)   :   14.215213   14.093032   14.526675
outcell: Cell angles (23,13,12) (deg):     90.0000     90.0000     90.0000
outcell: Cell volume (Ang**3)        :   2910.2078
<dSpData1D:S at geom step 3
  <sparsity:sparsity for geom step 3
    nrows_g=154 nrows=8 sparsity=.0497 nnzs=1178, refcount: 7>
  <dData1D:(new from dSpData1D) n=1178, refcount: 1>
refcount: 1>
new_DM -- step:     4
Re-using DM from previous geometries...
Number of DMs in history: 1
 DM extrapolation coefficients: 
1   1.00000
New DM after history re-use:
<dSpData2D:SpM extrapolated using coords
  <sparsity:sparsity for geom step 3
    nrows_g=154 nrows=8 sparsity=.0497 nnzs=1178, refcount: 9>
  <dData2D:(temp array for extrapolation) n=1178 m=2, refcount: 1>
refcount: 1>
     spin moment: S , {S} =   -0.00000       0.0       0.0  -0.00000
No. of atoms with KB's overlaping orbs in proc 0. Max # of overlaps:      17     138
New grid distribution:   1
           1       1:   80    1:   20    1:   11
           2       1:   80    1:   20   12:   21
           3       1:   80    1:   20   22:   31
           4       1:   80    1:   20   32:   41
           5       1:   80    1:   20   42:   51
           6       1:   80    1:   20   52:   61
           7       1:   80    1:   20   62:   71
           8       1:   80    1:   20   72:   81
           9       1:   80   21:   40    1:   11
          10       1:   80   21:   40   12:   21
          11       1:   80   21:   40   22:   31
          12       1:   80   21:   40   32:   41
          13       1:   80   21:   40   42:   51
          14       1:   80   21:   40   52:   61
          15       1:   80   21:   40   62:   71
          16       1:   80   21:   40   72:   81
          17       1:   80   41:   60    1:   11
          18       1:   80   41:   60   12:   21
          19       1:   80   41:   60   22:   31
          20       1:   80   41:   60   32:   41
          21       1:   80   41:   60   42:   51
          22       1:   80   41:   60   52:   61
          23       1:   80   41:   60   62:   71
          24       1:   80   41:   60   72:   81
          25       1:   80   61:   80    1:   11
          26       1:   80   61:   80   12:   21
          27       1:   80   61:   80   22:   31
          28       1:   80   61:   80   32:   41
          29       1:   80   61:   80   42:   51
          30       1:   80   61:   80   52:   61
          31       1:   80   61:   80   62:   71
          32       1:   80   61:   80   72:   81

InitMesh: MESH =   160 x   160 x   162 =     4147200
InitMesh: (bp) =    80 x    80 x    81 =      518400
InitMesh: Mesh cutoff (required, used) =   340.000   343.716 Ry
ExtMesh (bp) on 0 =   184 x   124 x   111 =     2532576
New grid distribution:   2
           1      18:   80    1:   32    8:   15
           2       1:   17    1:   31    1:    8
           3      17:   80    1:   32   16:   69
           4      18:   80   33:   39    1:    7
           5       1:   16    1:   32   16:   62
           6       1:   17    1:   31    9:   15
           7       1:   17   32:   39    1:    8
           8       1:   16    1:   30   63:   81
           9      18:   80    1:   32    1:    7
          10      18:   80   40:   46    9:   15
          11      17:   80   33:   39   16:   69
          12       1:   16   33:   39   16:   62
          13       1:   17   48:   80   16:   31
          14      18:   80   33:   39    8:   15
          15       1:   16   31:   39   63:   81
          16      17:   80    1:   31   70:   81
          17       1:   17   48:   80    1:    8
          18      18:   80   47:   80    9:   15
          19       1:   17   40:   47   16:   31
          20       1:   17   47:   80   32:   81
          21      18:   80   40:   47   16:   65
          22       1:   17   40:   46   32:   81
          23       1:   17   40:   47    1:    8
          24      18:   80   40:   46   66:   81
          25      18:   80   47:   80    1:    8
          26       1:   17   48:   80    9:   15
          27      18:   80   48:   80   16:   65
          28       1:   17   32:   39    9:   15
          29      17:   80   32:   39   70:   81
          30      18:   80   40:   46    1:    8
          31       1:   17   40:   47    9:   15
          32      18:   80   47:   80   66:   81
New grid distribution:   3
           1      25:   80    1:   26    1:   12
           2       1:   24    1:   24   13:   27
           3       1:   28   41:   56    1:   13
           4      23:   80    1:   32   28:   69
           5       1:   22    1:   30   28:   67
           6      29:   80   41:   51   13:   27
           7       1:   22    1:   21   68:   81
           8      23:   80    1:   26   70:   81
           9       1:   24    1:   21    1:   12
          10      25:   80    1:   30   13:   27
          11      25:   80   31:   40   13:   27
          12      23:   80   33:   39   28:   69
          13      25:   80   40:   47   28:   69
          14      25:   80   27:   40    1:   12
          15       1:   22   31:   39   28:   67
          16       1:   24   25:   40   13:   27
          17       1:   28   57:   80    1:   13
          18      29:   80   52:   80   13:   27
          19       1:   28   55:   80   14:   27
          20       1:   22   22:   39   68:   81
          21      23:   80   27:   39   70:   81
          22       1:   24   40:   49   28:   63
          23       1:   24   40:   52   64:   81
          24      25:   80   51:   80   70:   81
[...]
    0.97532570    3.78759311    0.62834917   1      11  H
    3.43865634    7.88699958    0.65210818   3      12  Si
    3.02000676    9.33777727    0.71693917   1      13  H
    2.19970943    6.49377566   -0.79626550   3      14  Si
    0.78441968    6.96309115   -0.98678890   1      15  H
    2.84435510    6.34065937   -2.15322729   1      16  H
    5.15224344    7.75155493    0.35689047   2      17  O
    5.41834104    7.93550762   -0.58265379   1      18  H

outcell: Unit cell vectors (Ang):
       14.215213    0.000000    0.000000
        0.000000   14.093032    0.000000
        0.000000    0.000000   14.526675

outcell: Cell vector modules (Ang)   :   14.215213   14.093032   14.526675
outcell: Cell angles (23,13,12) (deg):     90.0000     90.0000     90.0000
outcell: Cell volume (Ang**3)        :   2910.2078
<dSpData1D:S at geom step 243
  <sparsity:sparsity for geom step 243
    nrows_g=154 nrows=8 sparsity=.0497 nnzs=1178, refcount: 7>
  <dData1D:(new from dSpData1D) n=1178, refcount: 1>
refcount: 1>
new_DM -- step:   244
Re-using DM from previous geometries...
Number of DMs in history: 1
 DM extrapolation coefficients: 
1   1.00000
New DM after history re-use:
<dSpData2D:SpM extrapolated using coords
  <sparsity:sparsity for geom step 243
    nrows_g=154 nrows=8 sparsity=.0497 nnzs=1178, refcount: 9>
  <dData2D:(temp array for extrapolation) n=1178 m=2, refcount: 1>
refcount: 1>
     spin moment: S , {S} =    0.00000       0.0       0.0   0.00000
No. of atoms with KB's overlaping orbs in proc 0. Max # of overlaps:      17     138
New grid distribution:   1
           1       1:   80    1:   20    1:   11
           2       1:   80    1:   20   12:   21
           3       1:   80    1:   20   22:   31
           4       1:   80    1:   20   32:   41
           5       1:   80    1:   20   42:   51
           6       1:   80    1:   20   52:   61
           7       1:   80    1:   20   62:   71
           8       1:   80    1:   20   72:   81
           9       1:   80   21:   40    1:   11
          10       1:   80   21:   40   12:   21
          11       1:   80   21:   40   22:   31
          12       1:   80   21:   40   32:   41
          13       1:   80   21:   40   42:   51
          14       1:   80   21:   40   52:   61
          15       1:   80   21:   40   62:   71
          16       1:   80   21:   40   72:   81
          17       1:   80   41:   60    1:   11
          18       1:   80   41:   60   12:   21
          19       1:   80   41:   60   22:   31
          20       1:   80   41:   60   32:   41
          21       1:   80   41:   60   42:   51
          22       1:   80   41:   60   52:   61
          23       1:   80   41:   60   62:   71
          24       1:   80   41:   60   72:   81
          25       1:   80   61:   80    1:   11
          26       1:   80   61:   80   12:   21
          27       1:   80   61:   80   22:   31
          28       1:   80   61:   80   32:   41
          29       1:   80   61:   80   42:   51
          30       1:   80   61:   80   52:   61
          31       1:   80   61:   80   62:   71
          32       1:   80   61:   80   72:   81

InitMesh: MESH =   160 x   160 x   162 =     4147200
InitMesh: (bp) =    80 x    80 x    81 =      518400
InitMesh: Mesh cutoff (required, used) =   340.000   343.716 Ry
ExtMesh (bp) on 0 =   184 x   124 x   111 =     2532576
New grid distribution:   2
           1      18:   80    1:   32    8:   15
           2       1:   17    1:   31    1:    8
           3      17:   80    1:   32   16:   69
           4      18:   80   33:   39    1:    7
           5       1:   16    1:   32   16:   63
           6       1:   17   48:   80   16:   31
           7       1:   17    1:   31    9:   15
           8       1:   16   31:   39   64:   81
           9      18:   80    1:   32    1:    7
          10      18:   80   40:   46    9:   15
          11      17:   80   33:   39   16:   69
          12       1:   16   33:   39   16:   63
          13      18:   80   33:   39    8:   15
          14       1:   17   32:   39    1:    8
          15       1:   16    1:   30   64:   81
          16      17:   80    1:   31   70:   81
          17       1:   17   48:   80    1:    8
          18      18:   80   47:   80    9:   15
          19       1:   17   40:   47   16:   31
          20       1:   17   47:   80   32:   81
          21      18:   80   40:   47   16:   65
          22       1:   17   40:   46   32:   81
          23       1:   17   40:   47    1:    8
          24      18:   80   40:   46   66:   81
          25      18:   80   47:   80    1:    8
          26       1:   17   48:   80    9:   15
          27      18:   80   48:   80   16:   65
          28       1:   17   32:   39    9:   15
          29      17:   80   32:   39   70:   81
          30      18:   80   40:   46    1:    8
          31       1:   17   40:   47    9:   15
          32      18:   80   47:   80   66:   81
New grid distribution:   3
           1      25:   80    1:   25    1:   11
           2       1:   24    1:   24   13:   27
           3       1:   24   25:   40   13:   27
           4      23:   80    1:   32   28:   69
           5       1:   22    1:   30   28:   66
           6      30:   80   41:   51   13:   27
           7       1:   22    1:   21   67:   81
           8      23:   80    1:   26   70:   81
           9       1:   24    1:   21    1:   12
          10      25:   80    1:   30   12:   27
          11      25:   80   31:   40   12:   27
          12      23:   80   33:   39   28:   69
          13      25:   80   40:   47   28:   69
          14       1:   29   56:   80    1:   13
          15       1:   22   22:   39   67:   81
          16      23:   80   27:   39   70:   81
          17       1:   29   41:   54   14:   27
          18      30:   80   52:   80   13:   27
          19       1:   29   55:   80   14:   27
          20       1:   24   40:   49   28:   62
          21      25:   80   26:   40    1:   11
          22       1:   22   31:   39   28:   66
          23       1:   24   40:   52   63:   81
          24      25:   80   51:   80   70:   81
          25      30:   80   53:   80    1:   12
          26      25:   80   40:   50   70:   81
          27       1:   29   41:   55    1:   13
          28      25:   80   48:   80   28:   69
          29       1:   24   50:   80   28:   62
          30      30:   80   41:   52    1:   12
          31       1:   24   22:   40    1:   12
          32       1:   24   53:   80   63:   81
Setting up quadratic distribution...
ExtMesh (bp) on 0 =   167 x   136 x   108 =     2452896
PhiOnMesh: Number of (b)points on node 0 =                16128
PhiOnMesh: nlist on node 0 =               173532

        iscf     Eharris(eV)        E_KS(eV)     FreeEng(eV)     dDmax    Ef(eV) dHmax(eV)
   scf:    1    -2002.543357    -2002.542907    -2002.542907  0.000057 -5.087569  0.000893
     spin moment: S , {S} =    0.00000       0.0       0.0   0.00000

SCF Convergence by DM+H criterion
max |DM_out - DM_in|         :     0.0000566259
max |H_out - H_in|      (eV) :     0.0008933511
SCF cycle converged after 1 iterations

Using DM_out to compute the final energy and forces
No. of atoms with KB's overlaping orbs in proc 0. Max # of overlaps:      17     138

siesta: E_KS(eV) =            -2002.5429
     spin moment: S , {S} =    0.00000       0.0       0.0   0.00000

siesta: Atomic forces (eV/Ang):
     1    0.000817   -0.000968    0.001789
     2    0.000141   -0.000471   -0.000769
     3   -0.000633    0.001681   -0.000501
     4   -0.000525   -0.000255    0.000502
     5    0.001123   -0.001493   -0.000101
     6    0.000890   -0.000333    0.000211
     7    0.000577    0.001787    0.000259
     8   -0.001598   -0.000106   -0.001176
     9    0.000331   -0.001692    0.000587
    10    0.000367    0.000061   -0.000907
    11    0.001076   -0.000665   -0.001809
    12    0.000781    0.000338   -0.000183
    13   -0.000538   -0.000106   -0.000237
    14   -0.000791    0.000160   -0.000215
    15    0.000859    0.004996   -0.001726
    16   -0.000519   -0.000452    0.001766
    17   -0.000028    0.000567   -0.003978
    18    0.000063    0.001030    0.001842
----------------------------------------
   Tot    0.002393    0.004081   -0.004646
----------------------------------------
   Max    0.004996
   Res    0.001259    sqrt( Sum f_i^2 / 3N )
----------------------------------------
   Max    0.004996    constrained

Stress tensor Voigt[x,y,z,yz,xz,xy] (kbar):       -1.04       -0.51       -1.07        0.07       -0.03       -0.05
(Free)E + p*V (eV/cell)    -2000.9563
Target enthalpy (eV/cell)    -2002.5429

mulliken: Atomic and Orbital Populations:

mulliken: Spin UP 

Species: H                   
Atom  Qatom  Qorb
               1s      1s      2Ppy    2Ppz    2Ppx    
   1  0.365   0.198   0.105   0.023   0.025   0.014
   4  0.601   0.536   0.042   0.009   0.005   0.009
   5  0.600   0.535   0.042   0.013   0.005   0.006
   7  0.600   0.534   0.042   0.002   0.012   0.010
  10  0.601   0.536   0.042   0.010   0.003   0.010
  11  0.599   0.534   0.043   0.009   0.002   0.011
  13  0.599   0.530   0.043   0.015   0.007   0.004
  15  0.598   0.525   0.042   0.008   0.009   0.014
  16  0.610   0.541   0.039   0.007   0.013   0.009
  18  0.372   0.201   0.105   0.029   0.022   0.016

Species: O                   
Atom  Qatom  Qorb
               2s      2s      2py     2pz     2px     2py     2pz     2px     
               3Pdxy   3Pdyz   3Pdz2   3Pdxz   3Pdx2-y2
   2  3.275   0.850   0.035   0.801   0.800   0.743   0.006   0.003   0.024
              0.004   0.002   0.004   0.002   0.000
   8  3.284   0.871   0.023   0.741   0.755   0.877   0.014   0.010  -0.019
              0.002   0.003   0.003   0.002   0.002
  17  3.262   0.837   0.043   0.894   0.714   0.721  -0.011   0.023   0.029
              0.002   0.001   0.005   0.002   0.002

Species: Si                  
Atom  Qatom  Qorb
               3s      3s      3py     3pz     3px     3py     3pz     3px     
               3Pdxy   3Pdyz   3Pdz2   3Pdxz   3Pdx2-y2
   3  1.661   0.229   0.239   0.157   0.125   0.191   0.190   0.135   0.153
              0.039   0.066   0.047   0.058   0.032
   6  1.758   0.259   0.229   0.155   0.171   0.204   0.108   0.187   0.174
              0.074   0.060   0.048   0.044   0.045
   9  1.662   0.226   0.239   0.203   0.163   0.109   0.163   0.099   0.214
              0.062   0.056   0.056   0.047   0.025
  12  1.769   0.249   0.230   0.133   0.295   0.115   0.210   0.123   0.126
              0.090   0.032   0.045   0.059   0.062
  14  1.783   0.286   0.220   0.312   0.167   0.134   0.116   0.184   0.208
              0.026   0.031   0.036   0.032   0.031

mulliken: Qtot =       24.000

mulliken: Spin DOWN 

Species: H                   
Atom  Qatom  Qorb
               1s      1s      2Ppy    2Ppz    2Ppx    
   1  0.365   0.198   0.105   0.023   0.025   0.014
   4  0.601   0.536   0.042   0.009   0.005   0.009
   5  0.600   0.535   0.042   0.013   0.005   0.006
   7  0.600   0.534   0.042   0.002   0.012   0.010
  10  0.601   0.536   0.042   0.010   0.003   0.010
  11  0.599   0.534   0.043   0.009   0.002   0.011
  13  0.599   0.530   0.043   0.015   0.007   0.004
  15  0.598   0.525   0.042   0.008   0.009   0.014
  16  0.610   0.541   0.039   0.007   0.013   0.009
  18  0.372   0.201   0.105   0.029   0.022   0.016

Species: O                   
Atom  Qatom  Qorb
               2s      2s      2py     2pz     2px     2py     2pz     2px     
               3Pdxy   3Pdyz   3Pdz2   3Pdxz   3Pdx2-y2
   2  3.275   0.850   0.035   0.801   0.800   0.743   0.006   0.003   0.024
              0.004   0.002   0.004   0.002   0.000
   8  3.284   0.871   0.023   0.741   0.755   0.877   0.014   0.010  -0.019
              0.002   0.003   0.003   0.002   0.002
  17  3.262   0.837   0.043   0.894   0.714   0.721  -0.011   0.023   0.029
              0.002   0.001   0.005   0.002   0.002

Species: Si                  
Atom  Qatom  Qorb
               3s      3s      3py     3pz     3px     3py     3pz     3px     
               3Pdxy   3Pdyz   3Pdz2   3Pdxz   3Pdx2-y2
   3  1.661   0.229   0.239   0.157   0.125   0.191   0.190   0.135   0.153
              0.039   0.066   0.047   0.058   0.032
   6  1.758   0.259   0.229   0.155   0.171   0.204   0.108   0.187   0.174
              0.074   0.060   0.048   0.044   0.045
   9  1.662   0.226   0.239   0.203   0.163   0.109   0.163   0.099   0.214
              0.062   0.056   0.056   0.047   0.025
  12  1.769   0.249   0.230   0.133   0.295   0.115   0.210   0.123   0.126
              0.090   0.032   0.045   0.059   0.062
  14  1.783   0.286   0.220   0.312   0.167   0.134   0.116   0.184   0.208
              0.026   0.031   0.036   0.032   0.031

mulliken: Qtot =       24.000

outcoor: Relaxed atomic coordinates (Ang):                  
   -0.70874451    8.71626483    1.79121898   1       1  H
   -0.00115591    8.01754401    1.70514593   2       2  O
    0.83250491    7.73127101    3.21678575   3       3  Si
   -0.08903545    6.95761847    4.12722085   1       4  H
    1.15514124    9.07214172    3.85673934   1       5  H
    2.86934562    6.70590658    2.60751977   3       6  Si
    3.82183330    6.78187320    3.76816827   1       7  H
    2.75348308    5.02206910    2.15005908   2       8  O
    2.28589231    4.52354032    0.52588330   3       9  Si
    3.28915034    3.52335398    0.00101543   1      10  H
    0.97532570    3.78759311    0.62834917   1      11  H
    3.43865634    7.88699958    0.65210818   3      12  Si
    3.02000676    9.33777727    0.71693917   1      13  H
    2.19970943    6.49377566   -0.79626550   3      14  Si
    0.78441968    6.96309115   -0.98678890   1      15  H
    2.84435510    6.34065937   -2.15322729   1      16  H
    5.15224344    7.75155493    0.35689047   2      17  O
    5.41834104    7.93550762   -0.58265379   1      18  H

coxmol: Writing XMOL coordinates into file ribosa.xyz                                                          

siesta: Eigenvalues (eV):
  ik is       eps
   1  1  -24.7159  -24.6933  -24.0583  -14.6720  -14.2695  -13.6107  -12.7563  -11.9836  -11.4935  -11.1257
          -9.8793   -9.7881   -9.5409   -9.2163   -8.9063   -8.6634   -8.5419   -8.2775   -7.9196   -7.3951
   -7.2761   -7.1960   -6.6582   -6.2352   -2.2533   -1.9570   -1.2410   -1.1319   -0.7802   -0.3134
    0.0576    0.2784    0.4128    0.6892    0.9401    1.1765    1.3228    1.4762    1.6604    1.8351
    2.0828    2.7675    2.9506    3.2491    3.6549    3.9805    4.2622    4.9505    5.0995    5.3978
    5.6252    5.7798    6.0167    6.2929    6.5257    6.9543    7.2666    7.5341    7.8909    8.3976
    8.8570    8.9457    9.4819    9.7171    9.9206   10.1701   10.4392   10.8295   10.9222   11.3970
   11.9233   12.2481   12.5474   12.9415   13.3595   13.4603   13.8762   14.8111   15.2182   15.4824
   15.8532   16.1364   16.3089   16.3937   16.8433   17.2154   17.4677   17.8677   18.6012   18.8888
   19.4134   20.1014   20.2844   20.4141   21.1496   21.5861   21.7347   22.0612   22.3595   22.5067
   22.8854   23.3829   23.7098   23.8728   24.3460   24.7594   25.1324   25.5408   25.8213   26.3660
   26.8759   27.4073   28.1488   28.6941   29.4958   30.2192   31.0683   33.7412   36.5151   36.8765
   37.0352   38.6847   39.2535   40.2121   41.2818   44.9557   46.6918   47.4286   47.9812   48.7889
   49.1954   49.8291   50.7335   51.2395   52.2821   53.1611   54.0843   55.0473   56.8198   57.1557
   58.6827   59.1417   60.0821   61.2176   62.0211   62.4883   62.7533   66.5565   80.7817   90.4401
   91.9896   94.2282   98.8552  101.5031
   1  2  -24.7159  -24.6933  -24.0583  -14.6720  -14.2695  -13.6107  -12.7563  -11.9836  -11.4935  -11.1257
          -9.8793   -9.7881   -9.5409   -9.2163   -8.9063   -8.6634   -8.5419   -8.2775   -7.9196   -7.3951
   -7.2761   -7.1960   -6.6582   -6.2352   -2.2533   -1.9570   -1.2410   -1.1319   -0.7802   -0.3134
    0.0576    0.2784    0.4128    0.6892    0.9401    1.1765    1.3228    1.4762    1.6604    1.8351
    2.0828    2.7675    2.9506    3.2491    3.6549    3.9805    4.2622    4.9505    5.0995    5.3978
    5.6252    5.7798    6.0167    6.2929    6.5257    6.9543    7.2666    7.5341    7.8909    8.3976
    8.8570    8.9457    9.4819    9.7171    9.9206   10.1701   10.4392   10.8295   10.9222   11.3970
   11.9233   12.2481   12.5474   12.9415   13.3595   13.4603   13.8762   14.8111   15.2182   15.4824
   15.8532   16.1364   16.3089   16.3937   16.8433   17.2154   17.4677   17.8677   18.6012   18.8888
   19.4134   20.1014   20.2844   20.4141   21.1496   21.5861   21.7347   22.0612   22.3595   22.5067
   22.8854   23.3829   23.7098   23.8728   24.3460   24.7594   25.1324   25.5408   25.8213   26.3660
   26.8759   27.4073   28.1488   28.6941   29.4958   30.2192   31.0683   33.7412   36.5151   36.8765
   37.0352   38.6847   39.2535   40.2121   41.2818   44.9557   46.6918   47.4286   47.9812   48.7889
   49.1954   49.8291   50.7335   51.2395   52.2821   53.1611   54.0843   55.0473   56.8198   57.1557
   58.6827   59.1417   60.0821   61.2176   62.0211   62.4883   62.7533   66.5565   80.7817   90.4401
   91.9896   94.2282   98.8552  101.5031
siesta: Fermi energy =      -5.087569 eV

siesta: Program's energy decomposition (eV):
siesta: Ebs     =      -557.738384
siesta: Eions   =      1993.464565
siesta: Ena     =       122.923862
siesta: Ekin    =      1459.351967
siesta: Enl     =     -1042.726864
siesta: Eso     =         0.000000
siesta: Edftu   =         0.000000
siesta: DEna    =       -12.652205
siesta: DUscf   =         6.880369
siesta: DUext   =         0.000000
siesta: Exc     =      -542.855471
siesta: eta*DQ  =         0.000000
siesta: Emadel  =         0.000000
siesta: Emeta   =         0.000000
siesta: Emolmec =         0.000000
siesta: Ekinion =         0.000000
siesta: Eharris =     -2002.543357
siesta: Etot    =     -2002.542907
siesta: FreeEng =     -2002.542907

siesta: Final energy (eV):
siesta:  Band Struct. =    -557.738384
siesta:       Kinetic =    1459.351967
siesta:       Hartree =    3285.398357
siesta:       Edftu   =       0.000000
siesta:       Eso     =       0.000000
siesta:    Ext. field =       0.000000
siesta:   Exch.-corr. =    -542.855471
siesta:  Ion-electron =   -7884.105925
siesta:       Ion-ion =    1679.668165
siesta:       Ekinion =       0.000000
siesta:         Total =   -2002.542907
siesta:         Fermi =      -5.087569

siesta: Stress tensor (static) (eV/Ang**3):
siesta:    -0.000648   -0.000028   -0.000017
siesta:    -0.000028   -0.000319    0.000045
siesta:    -0.000017    0.000045   -0.000669

siesta: Cell volume =       2910.207843 Ang**3

siesta: Pressure (static):
siesta:                Solid            Molecule  Units
siesta:           0.00000594          0.00000594  Ry/Bohr**3
siesta:           0.00054520          0.00054497  eV/Ang**3
siesta:           0.87352027          0.87314293  kBar
(Free)E+ p_basis*V_orbitals  =       -1990.900418
(Free)Eharris+ p_basis*V_orbitals  =       -1990.900868
     spin moment: S , {S} =    0.00000       0.0       0.0   0.00000

siesta: Electric dipole (a.u.)  =   -0.411170    0.716298   -0.408538
siesta: Electric dipole (Debye) =   -1.045090    1.820650   -1.038399

cite: Please see "ribosa.bib" for an exhaustive BiBTeX file.
cite: Please clearly indicate Siesta version in published work: v4.1.5-1-g384057250
cite: This calculation has made use of the following articles
cite: which are encouraged to be cited in a published work.
        Primary SIESTA paper
          DOI: www.doi.org/10.1088/0953-8984/14/11/302


WARNING: alloc-realloc-dealloc name mismatch
         Name: atomlist isa
         Size:               -72. Bytes
         Node:     0
         Subsequent mismatches will not be reported
>> End of run:  24-FEB-2022  14:34:44
Job completed
