Siesta Version  : v4.1.5-1-g384057250
Architecture    : gcc
Compiler version: GNU Fortran (Debian 10.2.1-6) 10.2.1 20210110
Compiler flags  : mpifort -O2 -fPIC -ftree-vectorize -fallow-argument-mismatch
PP flags        : -DFC_HAVE_ABORT -DMPI -DSIESTA__FLOOK -DSIESTA__METIS -DSIESTA__MUMPS -DCDF -DNCDF -DNCDF_4 -DNCDF_PARALLEL -DSIESTA__MRRR -DSIESTA__ELPA
Libraries       : libncdf.a libfdict.a  -lflookall -ldl -lnetcdff -lnetcdf -lhdf5_hl -lhdf5 -lhdf5_fortran -lz -lscalapack-openmpi -lopenblas -lmetis -lzmumps -lcmumps -ldmumps -lmumps_common -lpord -lsmumps -lesmumps -lscotch -lscotcherr -fopenmp -lelpa
PARALLEL version
NetCDF support
NetCDF-4 support
NetCDF-4 MPI-IO support
METIS ordering support
Lua support

* Running on 6 nodes in parallel
>> Start of run:  22-MAY-2023   9:28:43

                           ***********************       
                           *  WELCOME TO SIESTA  *       
                           ***********************       

reinit: Reading from standard input
reinit: Dumped input in INPUT_TMP.26569
************************** Dump of input data file ****************************
SystemLabel      AT
NumberOfAtoms    30
NumberOfSpecies  4
%block ChemicalSpeciesLabel
    1    1  H
    2    7  N
    3   14  Si
    4    8  O
%endblock ChemicalSpeciesLabel
# Single point calculation
MD.TypeOfRun                CG
MD.Steps                    0
SCF.MustConverge            F # In case it does not. There can be 2 very close atoms
AtomicCoordinatesFormat NotScaledCartesianAng
%block AtomicCoordinatesAndAtomicSpecies
2.582377650    -5.776830440   0.000000000       1
1.654759240    -5.269361980   0.000000000       2
0.063128840    -6.101704590   0.000000000       3
0.119223240    -7.596849500   0.000000000       1
-1.376892050   -5.182603740   0.000000000       2
-0.824371900   -3.460866440   0.000000000       3
-1.170571480   -1.270002100   0.000000000       3
-2.706933680   -0.417515780   0.000000000       2
-2.754569660   0.634858620    0.000000000       1
-3.637675640   -0.909967860   0.000000000       1
0.218091790    -0.234193970   0.000000000       2
1.872004100    -0.697162300   0.000000000       3
2.828001130    0.461464770    0.000000000       1
2.648150080    -2.255024470   0.000000000       2
1.391921380    -3.454727220   0.000000000       3
1.912434492    3.978467813    0.000000000       2
0.585062972    5.188672113    0.000000000       3
1.225064242    6.549990353    0.000000000       1
-1.500682968   4.518140763    0.000000000       3
-3.530245568   5.648256953    0.000000000       3
-3.376009798   6.808487163    0.940305280       1
-4.516180288   4.626336333    0.512613700       1
-3.946460528   6.124482803    -1.366678340      1
-1.434187548   2.244164143    0.000000000       3
-2.473236278   1.051104643    0.000000000       4
0.222804032    1.610188953    0.000000000       2
0.204786662    0.547744123    0.000000000       1
1.846407102    2.207259163    0.000000000       3
3.041423272    1.192833963    0.000000000       4
2.912471862    4.323974913    0.000000000       1
%endblock AtomicCoordinatesAndAtomicSpecies
%include ../../../Defaults.fdf
************************** End of input data file *****************************

reinit: -----------------------------------------------------------------------
reinit: System Name: 
reinit: -----------------------------------------------------------------------
reinit: System Label: AT
reinit: -----------------------------------------------------------------------

initatom: Reading input for the pseudopotentials and atomic orbitals ----------
Species number:   1 Atomic number:    1 Label: H
Species number:   2 Atomic number:    7 Label: N
Species number:   3 Atomic number:   14 Label: Si
Species number:   4 Atomic number:    8 Label: O

Ground state valence configuration:   1s01
Reading pseudopotential information in formatted form from H.psf

Pseudopotential generated from a relativistic atomic calculation

Valence configuration for pseudopotential generation:
1s( 1.00) rc: 0.01
2p( 0.00) rc: 0.60
3d( 0.00) rc: 1.99
4f( 0.00) rc: 2.49
Ground state valence configuration:   2s02  2p03
Reading pseudopotential information in formatted form from N.psf

Pseudopotential generated from a relativistic atomic calculation

Valence configuration for pseudopotential generation:
2s( 2.00) rc: 0.94
2p( 3.00) rc: 0.59
3d( 0.00) rc: 3.46
4f( 0.00) rc: 2.47
Ground state valence configuration:   3s02  3p02
Reading pseudopotential information in formatted form from Si.psf

Pseudopotential generated from a relativistic atomic calculation

Valence configuration for pseudopotential generation:
3s( 2.00) rc: 1.67
3p( 2.00) rc: 2.04
3d( 0.00) rc: 2.89
4f( 0.00) rc: 2.49
Ground state valence configuration:   2s02  2p04
Reading pseudopotential information in formatted form from O.psf

Pseudopotential generated from a relativistic atomic calculation

Valence configuration for pseudopotential generation:
2s( 2.00) rc: 0.45
2p( 4.00) rc: 0.92
3d( 0.00) rc: 2.24
4f( 0.00) rc: 0.25
For H, standard SIESTA heuristics set lmxkb to 2
 (one more than the basis l, including polarization orbitals).
Use PS.lmax or PS.KBprojectors blocks to override.
For N, standard SIESTA heuristics set lmxkb to 3
 (one more than the basis l, including polarization orbitals).
Use PS.lmax or PS.KBprojectors blocks to override.
For Si, standard SIESTA heuristics set lmxkb to 3
 (one more than the basis l, including polarization orbitals).
Use PS.lmax or PS.KBprojectors blocks to override.
For O, standard SIESTA heuristics set lmxkb to 3
 (one more than the basis l, including polarization orbitals).
Use PS.lmax or PS.KBprojectors blocks to override.

<basis_specs>
===============================================================================
H                    Z=   1    Mass=  1.0100        Charge= 0.17977+309
Lmxo=0 Lmxkb= 2    BasisType=split      Semic=F
L=0  Nsemic=0  Cnfigmx=1
          i=1  nzeta=2  polorb=1  (1s)
            splnorm:   0.62000    
               vcte:    0.0000    
               rinn:    0.0000    
               qcoe:    0.0000    
               qyuk:    0.0000    
               qwid:   0.10000E-01
                rcs:    0.0000      0.0000    
            lambdas:    1.0000      1.0000    
-------------------------------------------------------------------------------
L=0  Nkbl=1  erefs: 0.17977+309
L=1  Nkbl=1  erefs: 0.17977+309
L=2  Nkbl=1  erefs: 0.17977+309
===============================================================================
</basis_specs>

atom: Called for H                     (Z =   1)

read_vps: Pseudopotential generation method:
read_vps: ATM4.2.7  Troullier-Martins                       
Valence charge for ps generation:    1.00000

xc_check: Exchange-correlation functional:
xc_check: GGA Perdew, Burke & Ernzerhof 1996
V l=0 = -2*Zval/r beyond r=  0.0098
V l=1 = -2*Zval/r beyond r=  0.5817
V l=2 = -2*Zval/r beyond r=  1.9372
All V_l potentials equal beyond r=  1.9372
This should be close to max(r_c) in ps generation
All pots = -2*Zval/r beyond r=  1.9372

VLOCAL1: 99.0% of the norm of Vloc inside     11.567 Ry
VLOCAL1: 99.9% of the norm of Vloc inside     26.362 Ry
atom: Maximum radius for 4*pi*r*r*local-pseudopot. charge    2.25106
atom: Maximum radius for r*vlocal+2*Zval:    1.91306
GHOST: No ghost state for L =  0
GHOST: No ghost state for L =  1
GHOST: No ghost state for L =  2

KBgen: Kleinman-Bylander projectors: 
   l= 0   rc=  2.036604   el= -0.477180   Ekb= -6.081590   kbcos= -0.277285
   l= 1   rc=  2.195416   el=  0.001076   Ekb= -0.926943   kbcos= -0.034643
   l= 2   rc=  2.251056   el=  0.002010   Ekb= -0.130941   kbcos= -0.009788

KBgen: Total number of Kleinman-Bylander projectors:    9
atom: -------------------------------------------------------------------------

atom: SANKEY-TYPE ORBITALS:
atom: Selected multiple-zeta basis: split     

SPLIT: Orbitals with angular momentum L= 0

SPLIT: Basis orbitals for state 1s

SPLIT: PAO cut-off radius determined from an
SPLIT: energy shift=  0.002000 Ry

   izeta = 1
                 lambda =    1.000000
                     rc =    6.518340
                 energy =   -0.475305
                kinetic =    0.912139
    potential(screened) =   -1.387444
       potential(ionic) =   -1.907295

   izeta = 2
                 rmatch =    2.141150
              splitnorm =    0.620000
                 energy =    0.566467
                kinetic =    3.772856
    potential(screened) =   -3.206389
       potential(ionic) =   -3.759093

POLgen: Perturbative polarization orbital with L=  1

POLgen: Polarization orbital for state 1s

   izeta = 1
                     rc =    6.518340
                 energy =    0.533861
                kinetic =    1.121086
    potential(screened) =   -0.587225
       potential(ionic) =   -1.053027
atom: Total number of Sankey-type orbitals:  5

atm_pop: Valence configuration (for local Pseudopot. screening):
 1s( 1.00)                                                            
Vna: chval, zval:    1.00000   1.00000

Vna:  Cut-off radius for the neutral-atom potential:   6.518340

atom: _________________________________________________________________________

<basis_specs>
===============================================================================
N                    Z=   7    Mass=  14.010        Charge= 0.17977+309
Lmxo=1 Lmxkb= 3    BasisType=split      Semic=F
L=0  Nsemic=0  Cnfigmx=2
          i=1  nzeta=2  polorb=0  (2s)
            splnorm:   0.28000    
               vcte:    0.0000    
               rinn:    0.0000    
               qcoe:    0.0000    
               qyuk:    0.0000    
               qwid:   0.10000E-01
                rcs:    0.0000      0.0000    
            lambdas:    1.0000      1.0000    
L=1  Nsemic=0  Cnfigmx=2
          i=1  nzeta=2  polorb=1  (2p)
            splnorm:   0.28000    
               vcte:    0.0000    
               rinn:    0.0000    
               qcoe:    0.0000    
               qyuk:    0.0000    
               qwid:   0.10000E-01
                rcs:    0.0000      0.0000    
            lambdas:    1.0000      1.0000    
-------------------------------------------------------------------------------
L=0  Nkbl=1  erefs: 0.17977+309
L=1  Nkbl=1  erefs: 0.17977+309
L=2  Nkbl=1  erefs: 0.17977+309
L=3  Nkbl=1  erefs: 0.17977+309
===============================================================================
</basis_specs>

atom: Called for N                     (Z =   7)

read_vps: Pseudopotential generation method:
read_vps: ATM4.2.7  Troullier-Martins                       
Valence charge for ps generation:    5.00000

xc_check: Exchange-correlation functional:
xc_check: GGA Perdew, Burke & Ernzerhof 1996
V l=0 = -2*Zval/r beyond r=  1.2889
V l=1 = -2*Zval/r beyond r=  1.2889
V l=2 = -2*Zval/r beyond r=  3.4178
V l=3 = -2*Zval/r beyond r=  2.4084
All V_l potentials equal beyond r=  3.3753
This should be close to max(r_c) in ps generation
All pots = -2*Zval/r beyond r=  3.4178

VLOCAL1: 99.0% of the norm of Vloc inside      3.810 Ry
VLOCAL1: 99.9% of the norm of Vloc inside      8.683 Ry
atom: Maximum radius for 4*pi*r*r*local-pseudopot. charge    4.02088
atom: Maximum radius for r*vlocal+2*Zval:    3.54838
GHOST: No ghost state for L =  0
GHOST: No ghost state for L =  1
GHOST: No ghost state for L =  2
GHOST: No ghost state for L =  3

KBgen: Kleinman-Bylander projectors: 
   l= 0   rc=  3.417763   el= -1.365098   Ekb= -4.433130   kbcos= -0.707855
   l= 1   rc=  3.375302   el= -0.521201   Ekb=-13.264039   kbcos= -0.535594
   l= 2   rc=  3.872880   el=  0.001991   Ekb= -0.641094   kbcos= -0.062456
   l= 3   rc=  3.970931   el=  0.003093   Ekb= -0.474517   kbcos= -0.018236

KBgen: Total number of Kleinman-Bylander projectors:   16
atom: -------------------------------------------------------------------------

atom: SANKEY-TYPE ORBITALS:
atom: Selected multiple-zeta basis: split     

SPLIT: Orbitals with angular momentum L= 0

SPLIT: Basis orbitals for state 2s

SPLIT: PAO cut-off radius determined from an
SPLIT: energy shift=  0.002000 Ry

   izeta = 1
                 lambda =    1.000000
                     rc =    4.730425
                 energy =   -1.363399
                kinetic =    1.245246
    potential(screened) =   -2.608645
       potential(ionic) =   -8.121105

   izeta = 2
                 rmatch =    2.531849
              splitnorm =    0.280000
                 energy =   -0.959908
                kinetic =    2.409435
    potential(screened) =   -3.369343
       potential(ionic) =   -9.427975

SPLIT: Orbitals with angular momentum L= 1

SPLIT: Basis orbitals for state 2p

SPLIT: PAO cut-off radius determined from an
SPLIT: energy shift=  0.002000 Ry

   izeta = 1
                 lambda =    1.000000
                     rc =    5.924108
                 energy =   -0.519262
                kinetic =    3.672940
    potential(screened) =   -4.192202
       potential(ionic) =   -9.518354

   izeta = 2
                 rmatch =    2.531849
              splitnorm =    0.280000
                 energy =   -0.104258
                kinetic =    6.807538
    potential(screened) =   -6.911796
       potential(ionic) =  -13.149920

POLgen: Perturbative polarization orbital with L=  2

POLgen: Polarization orbital for state 2p

   izeta = 1
                     rc =    5.924108
                 energy =    1.427508
                kinetic =    2.872379
    potential(screened) =   -1.444871
       potential(ionic) =   -5.563644
atom: Total number of Sankey-type orbitals: 13

atm_pop: Valence configuration (for local Pseudopot. screening):
 2s( 2.00)                                                            
 2p( 3.00)                                                            
Vna: chval, zval:    5.00000   5.00000

Vna:  Cut-off radius for the neutral-atom potential:   5.924108

atom: _________________________________________________________________________

<basis_specs>
===============================================================================
Si                   Z=  14    Mass=  28.090        Charge= 0.17977+309
Lmxo=1 Lmxkb= 3    BasisType=split      Semic=F
L=0  Nsemic=0  Cnfigmx=3
          i=1  nzeta=2  polorb=0  (3s)
            splnorm:   0.28000    
               vcte:    0.0000    
               rinn:    0.0000    
               qcoe:    0.0000    
               qyuk:    0.0000    
               qwid:   0.10000E-01
                rcs:    0.0000      0.0000    
            lambdas:    1.0000      1.0000    
L=1  Nsemic=0  Cnfigmx=3
          i=1  nzeta=2  polorb=1  (3p)
            splnorm:   0.28000    
               vcte:    0.0000    
               rinn:    0.0000    
               qcoe:    0.0000    
               qyuk:    0.0000    
               qwid:   0.10000E-01
                rcs:    0.0000      0.0000    
            lambdas:    1.0000      1.0000    
-------------------------------------------------------------------------------
L=0  Nkbl=1  erefs: 0.17977+309
L=1  Nkbl=1  erefs: 0.17977+309
L=2  Nkbl=1  erefs: 0.17977+309
L=3  Nkbl=1  erefs: 0.17977+309
===============================================================================
</basis_specs>

atom: Called for Si                    (Z =  14)

read_vps: Pseudopotential generation method:
read_vps: ATM4.2.7  Troullier-Martins                       
Valence charge for ps generation:    4.00000

xc_check: Exchange-correlation functional:
xc_check: GGA Perdew, Burke & Ernzerhof 1996
V l=0 = -2*Zval/r beyond r=  2.7826
V l=1 = -2*Zval/r beyond r=  2.7826
V l=2 = -2*Zval/r beyond r=  2.9253
V l=3 = -2*Zval/r beyond r=  2.7826
All V_l potentials equal beyond r=  2.8530
This should be close to max(r_c) in ps generation
All pots = -2*Zval/r beyond r=  2.9253

VLOCAL1: 99.0% of the norm of Vloc inside      5.333 Ry
VLOCAL1: 99.9% of the norm of Vloc inside     12.154 Ry
atom: Maximum radius for 4*pi*r*r*local-pseudopot. charge    3.39869
atom: Maximum radius for r*vlocal+2*Zval:    2.96205
GHOST: No ghost state for L =  0
GHOST: No ghost state for L =  1
GHOST: No ghost state for L =  2
GHOST: No ghost state for L =  3

KBgen: Kleinman-Bylander projectors: 
   l= 0   rc=  3.075247   el= -0.794092   Ekb=  5.879390   kbcos=  0.167461
   l= 1   rc=  3.153101   el= -0.300068   Ekb=  2.642817   kbcos=  0.058301
   l= 2   rc=  3.273594   el=  0.001958   Ekb= -1.185135   kbcos= -0.104411
   l= 3   rc=  3.232927   el=  0.003046   Ekb= -0.497174   kbcos= -0.015889

KBgen: Total number of Kleinman-Bylander projectors:   16
atom: -------------------------------------------------------------------------

atom: SANKEY-TYPE ORBITALS:
atom: Selected multiple-zeta basis: split     

SPLIT: Orbitals with angular momentum L= 0

SPLIT: Basis orbitals for state 3s

SPLIT: PAO cut-off radius determined from an
SPLIT: energy shift=  0.002000 Ry

   izeta = 1
                 lambda =    1.000000
                     rc =    6.429618
                 energy =   -0.792283
                kinetic =    0.525293
    potential(screened) =   -1.317576
       potential(ionic) =   -3.744923

   izeta = 2
                 rmatch =    3.998416
              splitnorm =    0.280000
                 energy =   -0.583081
                kinetic =    1.069570
    potential(screened) =   -1.652651
       potential(ionic) =   -4.235185

SPLIT: Orbitals with angular momentum L= 1

SPLIT: Basis orbitals for state 3p

SPLIT: PAO cut-off radius determined from an
SPLIT: energy shift=  0.002000 Ry

   izeta = 1
                 lambda =    1.000000
                     rc =    8.464845
                 energy =   -0.298236
                kinetic =    0.785360
    potential(screened) =   -1.083596
       potential(ionic) =   -3.273779

   izeta = 2
                 rmatch =    4.587816
              splitnorm =    0.280000
                 energy =   -0.131871
                kinetic =    1.403687
    potential(screened) =   -1.535557
       potential(ionic) =   -4.015310

POLgen: Perturbative polarization orbital with L=  2

POLgen: Polarization orbital for state 3p

   izeta = 1
                     rc =    8.464845
                 energy =    0.321949
                kinetic =    1.055677
    potential(screened) =   -0.733728
       potential(ionic) =   -2.672950
atom: Total number of Sankey-type orbitals: 13

atm_pop: Valence configuration (for local Pseudopot. screening):
 3s( 2.00)                                                            
 3p( 2.00)                                                            
Vna: chval, zval:    4.00000   4.00000

Vna:  Cut-off radius for the neutral-atom potential:   8.464845

atom: _________________________________________________________________________

<basis_specs>
===============================================================================
O                    Z=   8    Mass=  16.000        Charge= 0.17977+309
Lmxo=1 Lmxkb= 3    BasisType=split      Semic=F
L=0  Nsemic=0  Cnfigmx=2
          i=1  nzeta=2  polorb=0  (2s)
            splnorm:   0.28000    
               vcte:    0.0000    
               rinn:    0.0000    
               qcoe:    0.0000    
               qyuk:    0.0000    
               qwid:   0.10000E-01
                rcs:    0.0000      0.0000    
            lambdas:    1.0000      1.0000    
L=1  Nsemic=0  Cnfigmx=2
          i=1  nzeta=2  polorb=1  (2p)
            splnorm:   0.28000    
               vcte:    0.0000    
               rinn:    0.0000    
               qcoe:    0.0000    
               qyuk:    0.0000    
               qwid:   0.10000E-01
                rcs:    0.0000      0.0000    
            lambdas:    1.0000      1.0000    
-------------------------------------------------------------------------------
L=0  Nkbl=1  erefs: 0.17977+309
L=1  Nkbl=1  erefs: 0.17977+309
L=2  Nkbl=1  erefs: 0.17977+309
L=3  Nkbl=1  erefs: 0.17977+309
===============================================================================
</basis_specs>

atom: Called for O                     (Z =   8)

read_vps: Pseudopotential generation method:
read_vps: ATM4.2.7  Troullier-Martins                       
Valence charge for ps generation:    6.00000

xc_check: Exchange-correlation functional:
xc_check: GGA Perdew, Burke & Ernzerhof 1996
V l=0 = -2*Zval/r beyond r=  1.1000
V l=1 = -2*Zval/r beyond r=  1.1000
V l=2 = -2*Zval/r beyond r=  2.2154
V l=3 = -2*Zval/r beyond r=  1.1000
All V_l potentials equal beyond r=  2.2154
This should be close to max(r_c) in ps generation
All pots = -2*Zval/r beyond r=  2.2154

VLOCAL1: 99.0% of the norm of Vloc inside      8.845 Ry
VLOCAL1: 99.9% of the norm of Vloc inside     20.157 Ry
atom: Maximum radius for 4*pi*r*r*local-pseudopot. charge    2.67231
atom: Maximum radius for r*vlocal+2*Zval:    2.32897
GHOST: No ghost state for L =  0
GHOST: No ghost state for L =  1
GHOST: No ghost state for L =  2
GHOST: No ghost state for L =  3

KBgen: Kleinman-Bylander projectors: 
   l= 0   rc=  2.243238   el= -1.759686   Ekb=**********   kbcos= -0.171774
   l= 1   rc=  2.328968   el= -0.663873   Ekb=-14.506792   kbcos= -0.519897
   l= 2   rc=  2.573941   el=  0.002031   Ekb= -1.137373   kbcos= -0.019581
   l= 3   rc=  2.606321   el=  0.003153   Ekb= -1.013546   kbcos= -0.003122

KBgen: Total number of Kleinman-Bylander projectors:   16
atom: -------------------------------------------------------------------------

atom: SANKEY-TYPE ORBITALS:
atom: Selected multiple-zeta basis: split     

SPLIT: Orbitals with angular momentum L= 0

SPLIT: Basis orbitals for state 2s

SPLIT: PAO cut-off radius determined from an
SPLIT: energy shift=  0.002000 Ry

   izeta = 1
                 lambda =    1.000000
                     rc =    4.243912
                 energy =   -1.758270
                kinetic =    3.286084
    potential(screened) =   -5.044353
       potential(ionic) =  -12.921184

   izeta = 2
                 rmatch =    2.187845
              splitnorm =    0.280000
                 energy =   -0.885018
                kinetic =    8.134434
    potential(screened) =   -9.019452
       potential(ionic) =  -17.710645

SPLIT: Orbitals with angular momentum L= 1

SPLIT: Basis orbitals for state 2p

SPLIT: PAO cut-off radius determined from an
SPLIT: energy shift=  0.002000 Ry

   izeta = 1
                 lambda =    1.000000
                     rc =    5.314825
                 energy =   -0.661986
                kinetic =    4.917472
    potential(screened) =   -5.579458
       potential(ionic) =  -13.236259

   izeta = 2
                 rmatch =    2.160663
              splitnorm =    0.280000
                 energy =   -0.068760
                kinetic =    9.183374
    potential(screened) =   -9.252135
       potential(ionic) =  -18.274251

POLgen: Perturbative polarization orbital with L=  2

POLgen: Polarization orbital for state 2p

   izeta = 1
                     rc =    5.314825
                 energy =    1.970580
                kinetic =    3.886128
    potential(screened) =   -1.915547
       potential(ionic) =   -7.749584
atom: Total number of Sankey-type orbitals: 13

atm_pop: Valence configuration (for local Pseudopot. screening):
 2s( 2.00)                                                            
 2p( 4.00)                                                            
Vna: chval, zval:    6.00000   6.00000

Vna:  Cut-off radius for the neutral-atom potential:   5.314825

atom: _________________________________________________________________________

prinput: Basis input ----------------------------------------------------------

PAO.BasisType split     

%block ChemicalSpeciesLabel
    1    1 H                       # Species index, atomic number, species label
    2    7 N                       # Species index, atomic number, species label
    3   14 Si                      # Species index, atomic number, species label
    4    8 O                       # Species index, atomic number, species label
%endblock ChemicalSpeciesLabel

%block PAO.Basis                 # Define Basis set
H                     1                    # Species label, number of l-shells
 n=1   0   2 P   1                   # n, l, Nzeta, Polarization, NzetaPol
   6.518      2.141   
   1.000      1.000   
N                     2                    # Species label, number of l-shells
 n=2   0   2                         # n, l, Nzeta 
   4.730      2.532   
   1.000      1.000   
 n=2   1   2 P   1                   # n, l, Nzeta, Polarization, NzetaPol
   5.924      2.532   
   1.000      1.000   
Si                    2                    # Species label, number of l-shells
 n=3   0   2                         # n, l, Nzeta 
   6.430      3.998   
   1.000      1.000   
 n=3   1   2 P   1                   # n, l, Nzeta, Polarization, NzetaPol
   8.465      4.588   
   1.000      1.000   
O                     2                    # Species label, number of l-shells
 n=2   0   2                         # n, l, Nzeta 
   4.244      2.188   
   1.000      1.000   
 n=2   1   2 P   1                   # n, l, Nzeta, Polarization, NzetaPol
   5.315      2.161   
   1.000      1.000   
%endblock PAO.Basis

prinput: ----------------------------------------------------------------------

Dumping basis to NetCDF file H.ion.nc
Dumping basis to NetCDF file N.ion.nc
Dumping basis to NetCDF file Si.ion.nc
Dumping basis to NetCDF file O.ion.nc
coor:   Atomic-coordinates input format  =     Cartesian coordinates
coor:                                          (in Angstroms)

siesta: Atomic coordinates (Bohr) and species
siesta:      4.87999 -10.91663   0.00000  1        1
siesta:      3.12704  -9.95765   0.00000  2        2
siesta:      0.11930 -11.53056   0.00000  3        3
siesta:      0.22530 -14.35597   0.00000  1        4
siesta:     -2.60195  -9.79371   0.00000  2        5
siesta:     -1.55784  -6.54009   0.00000  3        6
siesta:     -2.21206  -2.39996   0.00000  3        7
siesta:     -5.11537  -0.78899   0.00000  2        8
siesta:     -5.20538   1.19971   0.00000  1        9
siesta:     -6.87421  -1.71959   0.00000  1       10
siesta:      0.41213  -0.44256   0.00000  2       11
siesta:      3.53758  -1.31745   0.00000  3       12
siesta:      5.34415   0.87204   0.00000  1       13
siesta:      5.00428  -4.26138   0.00000  2       14
siesta:      2.63035  -6.52849   0.00000  3       15
siesta:      3.61398   7.51822   0.00000  2       16
siesta:      1.10561   9.80517   0.00000  3       17
siesta:      2.31504  12.37769   0.00000  1       18
siesta:     -2.83588   8.53805   0.00000  3       19
siesta:     -6.67120  10.67366   0.00000  3       20
siesta:     -6.37974  12.86618   1.77692  1       21
siesta:     -8.53435   8.74251   0.96870  1       22
siesta:     -7.45773  11.57360  -2.58265  1       23
siesta:     -2.71022   4.24086   0.00000  3       24
siesta:     -4.67374   1.98630   0.00000  4       25
siesta:      0.42104   3.04282   0.00000  2       26
siesta:      0.38699   1.03509   0.00000  1       27
siesta:      3.48921   4.17112   0.00000  3       28
siesta:      5.74746   2.25413   0.00000  4       29
siesta:      5.50378   8.17113   0.00000  1       30

siesta: Automatic unit cell vectors (Ang):
siesta:   15.808622    0.000000    0.000000
siesta:    0.000000   23.434453    0.000000
siesta:    0.000000    0.000000   10.224979

siesta: System type = molecule  

initatomlists: Number of atoms, orbitals, and projectors:     30   302   403

siesta: ******************** Simulation parameters ****************************
siesta:
siesta: The following are some of the parameters of the simulation.
siesta: A complete list of the parameters used, including default values,
siesta: can be found in file out.fdf
siesta:
redata: Spin configuration                          = spin-orbit
redata: Number of spin components                   = 8
redata: Time-Reversal Symmetry                      = F
redata: Spin spiral                                 = F
############################################################
This spin-orbit implementation uses a local approximation.
From 4.2 and onwards the full non-local approximation is implemented
You are strongly advised to use >=4.2 versions!
############################################################
redata: Long output                                 =   F
redata: Number of Atomic Species                    =        4
redata: Charge density info will appear in .RHO file
redata: Write Mulliken Pop.                         = Atomic and Orbital charges
redata: Matel table size (NRTAB)                    =     1024
redata: Mesh Cutoff                                 =   340.0000 Ry
redata: Net charge of the system                    =     0.0000 |e|
redata: Min. number of SCF Iter                     =        1
redata: Max. number of SCF Iter                     =      200
redata: SCF mix quantity                            = Hamiltonian
redata: Mix DM or H after convergence               =   F
redata: Recompute H after scf cycle                 =   F
redata: Mix DM in first SCF step                    =   T
redata: Write Pulay info on disk                    =   F
redata: New DM Occupancy tolerance                  = 0.000000000001
redata: No kicks to SCF
redata: DM Mixing Weight for Kicks                  =     0.5000
redata: Require Harris convergence for SCF          =   F
redata: Harris energy tolerance for SCF             =     0.000100 eV
redata: Require DM convergence for SCF              =   T
redata: DM tolerance for SCF                        =     0.000008
redata: Require EDM convergence for SCF             =   F
redata: EDM tolerance for SCF                       =     0.001000 eV
redata: Require H convergence for SCF               =   T
redata: Hamiltonian tolerance for SCF               =     0.000001 eV
redata: Require (free) Energy convergence for SCF   =   F
redata: (free) Energy tolerance for SCF             =     0.000100 eV
redata: Using Saved Data (generic)                  =   F
redata: Use continuation files for DM               =   F
redata: Neglect nonoverlap interactions             =   F
redata: Method of Calculation                       = Diagonalization
redata: Electronic Temperature                      =   299.9978 K
redata: Fix the spin of the system                  =   F
redata: Dynamics option                             = Single-point calculation
mix.SCF: Pulay mixing                            = Pulay
mix.SCF:    Variant                              = stable
mix.SCF:    History steps                        = 6
mix.SCF:    Linear mixing weight                 =     0.250000
mix.SCF:    Mixing weight                        =     0.250000
mix.SCF:    SVD condition                        = 0.1000E-07
mix.SCF:    Restart steps                        = 24
mix.SCF:    Restart save steps                   = 3
mix.SCF: Spin-component mixing                   all
redata: Save all siesta data in one NC              =   F
redata: ***********************************************************************

%block SCF.Mixers
  Pulay
%endblock SCF.Mixers

%block SCF.Mixer.Pulay
  # Mixing method
  method pulay
  variant stable

  # Mixing options
  weight 0.2500
  weight.linear 0.2500
  history 6
  restart 24
  restart.save 3
%endblock SCF.Mixer.Pulay

DM_history_depth set to one: no extrapolation allowed by default for geometry relaxation
Size of DM history Fstack: 1
Total number of electrons:    98.000000
Total ionic charge:    98.000000

* ProcessorY, Blocksize:    2  24


* Orbital distribution balance (max,min):    62    48


Time-reversal symmetry not used.

siesta: k-grid: Number of k-points =     1
siesta: k-grid: Cutoff (effective) =     5.112 Ang
siesta: k-grid: Supercell and displacements
siesta: k-grid:    1   0   0      0.000
siesta: k-grid:    0   1   0      0.000
siesta: k-grid:    0   0   1      0.000

diag: Algorithm                                     = ELPA-1stage
diag: Parallel over k                               =   F
diag: Use parallel 2D distribution                  =   T
diag: Parallel block-size                           = 24
diag: Parallel distribution                         =     2 x     3
diag: Used triangular part                          = Lower
diag: Absolute tolerance                            =  0.100E-15
diag: Orthogonalization factor                      =  0.100E-05
diag: Memory factor                                 =  1.0000


ts: **************************************************************
ts: Save H and S matrices                           =    F
ts: Save DM and EDM matrices                        =    F
ts: Only save the overlap matrix S                  =    F
ts: **************************************************************

************************ Begin: TS CHECKS AND WARNINGS ************************
************************ End: TS CHECKS AND WARNINGS **************************


                     ====================================
                        Single-point calculation
                     ====================================

outcoor: Atomic coordinates (Ang):                          
    2.58237765   -5.77683044    0.00000000   1       1  H
    1.65475924   -5.26936198    0.00000000   2       2  N
    0.06312884   -6.10170459    0.00000000   3       3  Si
    0.11922324   -7.59684950    0.00000000   1       4  H
   -1.37689205   -5.18260374    0.00000000   2       5  N
   -0.82437190   -3.46086644    0.00000000   3       6  Si
   -1.17057148   -1.27000210    0.00000000   3       7  Si
   -2.70693368   -0.41751578    0.00000000   2       8  N
   -2.75456966    0.63485862    0.00000000   1       9  H
   -3.63767564   -0.90996786    0.00000000   1      10  H
    0.21809179   -0.23419397    0.00000000   2      11  N
    1.87200410   -0.69716230    0.00000000   3      12  Si
    2.82800113    0.46146477    0.00000000   1      13  H
    2.64815008   -2.25502447    0.00000000   2      14  N
    1.39192138   -3.45472722    0.00000000   3      15  Si
    1.91243449    3.97846781    0.00000000   2      16  N
    0.58506297    5.18867211    0.00000000   3      17  Si
    1.22506424    6.54999035    0.00000000   1      18  H
   -1.50068297    4.51814076    0.00000000   3      19  Si
   -3.53024557    5.64825695    0.00000000   3      20  Si
   -3.37600980    6.80848716    0.94030528   1      21  H
   -4.51618029    4.62633633    0.51261370   1      22  H
   -3.94646053    6.12448280   -1.36667834   1      23  H
   -1.43418755    2.24416414    0.00000000   3      24  Si
   -2.47323628    1.05110464    0.00000000   4      25  O
    0.22280403    1.61018895    0.00000000   2      26  N
    0.20478666    0.54774412    0.00000000   1      27  H
    1.84640710    2.20725916    0.00000000   3      28  Si
    3.04142327    1.19283396    0.00000000   4      29  O
    2.91247186    4.32397491    0.00000000   1      30  H

outcell: Unit cell vectors (Ang):
       15.808622    0.000000    0.000000
        0.000000   23.434453    0.000000
        0.000000    0.000000   10.224979

outcell: Cell vector modules (Ang)   :   15.808622   23.434453   10.224979
outcell: Cell angles (23,13,12) (deg):     90.0000     90.0000     90.0000
outcell: Cell volume (Ang**3)        :   3788.0114
siesta: WARNING: Atoms     9    25 too close: rij =    0.502403 Ang
<dSpData1D:S at geom step 0
  <sparsity:sparsity for geom step 0
    nrows_g=302 nrows=62 sparsity=.1704 nnzs=15539, refcount: 8>
  <dData1D:(new from dSpData1D) n=15539, refcount: 1>
refcount: 1>
new_DM -- step:     1
Initializing Density Matrix...
DM filled with atomic data:
<dSpData2D:DM initialized from atoms
  <sparsity:sparsity for geom step 0
    nrows_g=302 nrows=62 sparsity=.1704 nnzs=15539, refcount: 9>
  <dData2D:DM n=15539 m=8, refcount: 1>
refcount: 1>
     spin moment: S , {S} =   56.00000   0.00000   0.00000  56.00000
No. of atoms with KB's overlaping orbs in proc 0. Max # of overlaps:      24     230

Initializing spin-orbit part of the Hamiltonian
  Adding spin-orbit effects for H 
  Adding spin-orbit effects for N 
  Adding spin-orbit effects for Si
  Adding spin-orbit effects for O 


New grid distribution:   1
           1       1:   90    1:   68    1:   20
           2       1:   90    1:   68   21:   40
           3       1:   90    1:   68   41:   60
           4       1:   90   69:  135    1:   20
           5       1:   90   69:  135   21:   40
           6       1:   90   69:  135   41:   60

InitMesh: MESH =   180 x   270 x   120 =     5832000
InitMesh: (bp) =    90 x   135 x    60 =      729000
InitMesh: Mesh cutoff (required, used) =   340.000   358.310 Ry
ExtMesh (bp) on 0 =   194 x   172 x   128 =     4271104
New grid distribution:   2
           1       1:   12   36:  135    1:   60
           2      14:   90    1:   14    1:   60
           3       1:   13    1:   35    1:   60
           4      13:   90   36:  118    1:   60
           5      14:   90   15:   35    1:   60
           6      13:   90  119:  135    1:   60
New grid distribution:   3
           1      24:   90    1:   25    1:   60
           2       1:   18   50:  135    1:   60
           3       1:   23    1:   49    1:   60
           4      19:   90   50:  111    1:   60
           5      19:   90  112:  135    1:   60
           6      24:   90   26:   49    1:   60
Setting up quadratic distribution...
ExtMesh (bp) on 0 =   116 x   204 x   168 =     3975552
PhiOnMesh: Number of (b)points on node 0 =                72000
PhiOnMesh: nlist on node 0 =              1644894

stepf: Fermi-Dirac step function

siesta: Program's energy decomposition (eV):
siesta: Ebs     =      -616.511288
siesta: Eions   =      3553.971015
siesta: Ena     =       469.265383
siesta: Ekin    =      3343.584819
siesta: Enl     =     -3171.990761
siesta: Eso     =        -0.004516
siesta: Edftu   =         0.000000
siesta: DEna    =       128.886175
siesta: DUscf   =        84.892294
siesta: DUext   =         0.000000
siesta: Exc     =     -1200.645409
siesta: eta*DQ  =         0.000000
siesta: Emadel  =         0.000000
siesta: Emeta   =         0.000000
siesta: Emolmec =         0.000000
siesta: Ekinion =         0.000000
siesta: Eharris =     -3774.055178
siesta: Etot    =     -3899.983030
siesta: FreeEng =     -3900.019486

        iscf     Eharris(eV)        E_KS(eV)     FreeEng(eV)     dDmax    Ef(eV) dHmax(eV)
   scf:    1    -3774.055178    -3899.983030    -3900.019486  0.926468 -4.972090 24.757805
     spin moment: S , {S} =    3.54790   0.00000   0.00001   3.54790
timer: Routine,Calls,Time,% = IterSCF        1       5.625  20.69
   scf:    2    -3943.324648    -3935.984451    -3936.023359  0.404033 -3.781890  9.531346
     spin moment: S , {S} =    4.46084  -0.00009   0.00001   4.46084
   scf:    3    -3933.517582    -3939.984506    -3940.023228  0.325175 -3.726085 10.941015
     spin moment: S , {S} =    2.98289  -0.00003   0.00002   2.98289
   scf:    4    -3946.907092    -3944.431315    -3944.431396  0.244672 -3.526691  5.356151
     spin moment: S , {S} =    2.00013   0.00000   0.00002   2.00013
   scf:    5    -3945.918589    -3945.340013    -3945.340046  0.066150 -3.336632  3.920516
     spin moment: S , {S} =    1.99994   0.00000   0.00003   1.99994
   scf:    6    -3945.531419    -3945.634751    -3945.669602  0.168181 -3.386836  3.615466
     spin moment: S , {S} =    1.19266  -0.00003  -0.00003   1.19266
   scf:    7    -3945.687009    -3945.864104    -3945.884258  0.130718 -3.369989  1.868087
     spin moment: S , {S} =    1.73605  -0.00001   0.00003   1.73605
   scf:    8    -3942.960520    -3945.138716    -3945.145043  0.330625 -3.474679  6.505015
     spin moment: S , {S} =    0.05322  -0.00005  -0.00009   0.05322
   scf:    9    -3946.623674    -3946.114397    -3946.141768  0.115517 -3.479053  2.181723
     spin moment: S , {S} =    0.44471  -0.00003  -0.00002   0.44471
   scf:   10    -3945.308716    -3946.014558    -3946.050160  0.144722 -3.517388  2.607676
     spin moment: S , {S} =    1.08888   0.00006   0.00027   1.08888
   scf:   11    -3946.180448    -3946.263501    -3946.289765  0.140021 -3.537563  1.050641
     spin moment: S , {S} =    0.41202  -0.00000   0.00008   0.41202
   scf:   12    -3946.206467    -3946.240456    -3946.261800  0.027989 -3.537941  1.652540
     spin moment: S , {S} =    0.28946  -0.00001   0.00005   0.28946
   scf:   13    -3946.359604    -3946.310040    -3946.329933  0.034972 -3.546461  0.577343
     spin moment: S , {S} =    0.25898   0.00002   0.00015   0.25898
   scf:   14    -3946.346502    -3946.326968    -3946.341581  0.022307 -3.549498  0.478771
     spin moment: S , {S} =    0.16344   0.00002   0.00014   0.16344
   scf:   15    -3946.365075    -3946.344957    -3946.353420  0.030483 -3.552219  0.095213
     spin moment: S , {S} =    0.07459   0.00002   0.00010   0.07459
   scf:   16    -3946.355803    -3946.350033    -3946.355811  0.012184 -3.552794  0.073631
     spin moment: S , {S} =    0.04067   0.00001   0.00006   0.04067
   scf:   17    -3946.349263    -3946.350513    -3946.354902  0.006752 -3.552684  0.283336
     spin moment: S , {S} =    0.02861   0.00000   0.00004   0.02861
   scf:   18    -3946.355406    -3946.353655    -3946.357665  0.014675 -3.555247  0.062559
     spin moment: S , {S} =    0.01490   0.00000   0.00001   0.01490
   scf:   19    -3946.354718    -3946.354106    -3946.357962  0.006280 -3.555810  0.085249
     spin moment: S , {S} =    0.00587  -0.00000  -0.00001   0.00587
   scf:   20    -3946.355302    -3946.354896    -3946.358240  0.002673 -3.556930  0.053431
     spin moment: S , {S} =    0.00618  -0.00000  -0.00001   0.00618
   scf:   21    -3946.355205    -3946.355033    -3946.358427  0.003167 -3.557729  0.025676
     spin moment: S , {S} =    0.00385  -0.00000  -0.00001   0.00385
   scf:   22    -3946.355102    -3946.355054    -3946.358510  0.002725 -3.558047  0.004142
     spin moment: S , {S} =    0.00163  -0.00000  -0.00002   0.00163
   scf:   23    -3946.355138    -3946.355090    -3946.358536  0.001339 -3.558203  0.006040
     spin moment: S , {S} =    0.00098  -0.00000  -0.00002   0.00098
   scf:   24    -3946.355094    -3946.355089    -3946.358548  0.000983 -3.558153  0.002340
     spin moment: S , {S} =    0.00054  -0.00000  -0.00001   0.00054
mix: Pulay -- resetting history
   scf:   25    -3946.355104    -3946.355096    -3946.358552  0.000482 -3.558109  0.001680
     spin moment: S , {S} =    0.00050  -0.00000  -0.00001   0.00050
   scf:   26    -3946.355110    -3946.355103    -3946.358554  0.000256 -3.558084  0.001681
     spin moment: S , {S} =    0.00052   0.00000  -0.00000   0.00052
   scf:   27    -3946.355109    -3946.355106    -3946.358556  0.000272 -3.558071  0.001362
     spin moment: S , {S} =    0.00046   0.00000   0.00000   0.00046
   scf:   28    -3946.355109    -3946.355107    -3946.358557  0.000418 -3.558083  0.000977
     spin moment: S , {S} =    0.00024   0.00000   0.00001   0.00024
   scf:   29    -3946.355110    -3946.355108    -3946.358557  0.000223 -3.558100  0.000485
     spin moment: S , {S} =    0.00011   0.00000   0.00001   0.00011
   scf:   30    -3946.355107    -3946.355108    -3946.358557  0.000129 -3.558103  0.000287
     spin moment: S , {S} =    0.00003   0.00000   0.00001   0.00003
   scf:   31    -3946.355108    -3946.355108    -3946.358557  0.000051 -3.558104  0.000250
     spin moment: S , {S} =    0.00001   0.00000   0.00001   0.00000
   scf:   32    -3946.355108    -3946.355108    -3946.358557  0.000038 -3.558102  0.000213
     spin moment: S , {S} =    0.00002   0.00000   0.00001  -0.00001
   scf:   33    -3946.355108    -3946.355108    -3946.358557  0.000040 -3.558099  0.000130
     spin moment: S , {S} =    0.00001   0.00000   0.00001  -0.00001
   scf:   34    -3946.355108    -3946.355108    -3946.358557  0.000026 -3.558100  0.000080
     spin moment: S , {S} =    0.00001   0.00000   0.00001   0.00000
   scf:   35    -3946.355108    -3946.355108    -3946.358557  0.000014 -3.558100  0.000052
     spin moment: S , {S} =    0.00001   0.00000   0.00001   0.00001
   scf:   36    -3946.355108    -3946.355108    -3946.358557  0.000027 -3.558101  0.000043
     spin moment: S , {S} =    0.00002   0.00000   0.00001   0.00002
   scf:   37    -3946.355108    -3946.355108    -3946.358557  0.000015 -3.558101  0.000035
     spin moment: S , {S} =    0.00003   0.00000   0.00001   0.00002
   scf:   38    -3946.355108    -3946.355108    -3946.358558  0.000017 -3.558101  0.000032
     spin moment: S , {S} =    0.00003   0.00000   0.00001   0.00003
   scf:   39    -3946.355108    -3946.355108    -3946.358558  0.000018 -3.558101  0.000030
     spin moment: S , {S} =    0.00003   0.00000   0.00001   0.00003
   scf:   40    -3946.355108    -3946.355108    -3946.358558  0.000026 -3.558100  0.000026
     spin moment: S , {S} =    0.00003   0.00000   0.00001   0.00003
   scf:   41    -3946.355108    -3946.355108    -3946.358558  0.000022 -3.558100  0.000024
     spin moment: S , {S} =    0.00003   0.00000   0.00001   0.00003
   scf:   42    -3946.355108    -3946.355108    -3946.358558  0.000025 -3.558100  0.000022
     spin moment: S , {S} =    0.00003   0.00000   0.00000   0.00003
   scf:   43    -3946.355108    -3946.355108    -3946.358558  0.000053 -3.558100  0.000022
     spin moment: S , {S} =    0.00003   0.00000   0.00000   0.00003
   scf:   44    -3946.355108    -3946.355108    -3946.358558  0.000060 -3.558101  0.000019
     spin moment: S , {S} =    0.00002   0.00000   0.00000   0.00002
   scf:   45    -3946.355108    -3946.355108    -3946.358558  0.000058 -3.558100  0.000014
     spin moment: S , {S} =    0.00002   0.00000   0.00000   0.00002
   scf:   46    -3946.355108    -3946.355108    -3946.358558  0.000047 -3.558100  0.000014
     spin moment: S , {S} =    0.00001   0.00000  -0.00000   0.00001
   scf:   47    -3946.355108    -3946.355108    -3946.358558  0.000030 -3.558100  0.000012
     spin moment: S , {S} =    0.00001  -0.00000  -0.00000   0.00001
   scf:   48    -3946.355108    -3946.355108    -3946.358558  0.000006 -3.558100  0.000010
     spin moment: S , {S} =    0.00000  -0.00000  -0.00000   0.00000
mix: Pulay -- resetting history
   scf:   49    -3946.355108    -3946.355108    -3946.358558  0.000007 -3.558100  0.000005
     spin moment: S , {S} =    0.00000  -0.00000  -0.00000   0.00000
   scf:   50    -3946.355108    -3946.355108    -3946.358558  0.000002 -3.558100  0.000003
     spin moment: S , {S} =    0.00000  -0.00000  -0.00000   0.00000
   scf:   51    -3946.355108    -3946.355108    -3946.358558  0.000002 -3.558100  0.000002
     spin moment: S , {S} =    0.00000  -0.00000  -0.00000   0.00000
   scf:   52    -3946.355108    -3946.355108    -3946.358558  0.000000 -3.558100  0.000001
     spin moment: S , {S} =    0.00000  -0.00000  -0.00000   0.00000
   scf:   53    -3946.355108    -3946.355108    -3946.358558  0.000001 -3.558100  0.000001
     spin moment: S , {S} =    0.00000  -0.00000  -0.00000  -0.00000
   scf:   54    -3946.355108    -3946.355108    -3946.358558  0.000001 -3.558100  0.000001
     spin moment: S , {S} =    0.00000  -0.00000  -0.00000  -0.00000

SCF Convergence by DM+H criterion
max |DM_out - DM_in|         :     0.0000008568
max |H_out - H_in|      (eV) :     0.0000008334
SCF cycle converged after 54 iterations

Using DM_out to compute the final energy and forces
No. of atoms with KB's overlaping orbs in proc 0. Max # of overlaps:      24     230

siesta: E_KS(eV) =            -3946.3551

siesta: E_KS - E_eggbox =     -3946.3551
     spin moment: S , {S} =    0.00000  -0.00000  -0.00000  -0.00000

siesta: Atomic forces (eV/Ang):
     1    0.002911   -0.029906    0.000173
     2   -0.095348   -0.315618    0.000749
     3    0.135666    0.077827   -0.000271
     4   -0.046833   -0.046713    0.000120
     5   -0.033250   -0.041955   -0.000148
     6    0.090998    0.111823    0.001792
     7   -2.379392   -1.781618    0.002497
     8   -1.439830  -36.783407   -0.007112
     9 -106.783809 -141.419077    0.006088
    10   -0.373402   -1.101130    0.001720
    11   -1.213375  -41.753611    0.003318
    12   -1.727574   -7.449610   -0.000285
    13   -5.307949  -24.685902   -0.000100
    14   -0.305607   -0.999496    0.000290
    15    0.365831   -0.111154   -0.002880
    16    1.303010   -0.616598    0.018732
    17   -0.662401    0.362759   -0.008839
    18    0.302403    0.109461   -0.023130
    19    0.136401   -0.071524   -0.046038
    20    0.251819    0.104767    0.003895
    21   -0.183651    0.159054    0.096998
    22   -0.044189   -0.008694    0.031832
    23   -0.060995    0.068290   -0.057524
    24    2.807996    4.116106   -0.017638
    25  110.694219  174.723173   -0.004820
    26    0.375206   20.702967    0.007265
    27   -1.438301   20.649019   -0.003437
    28   -5.497407    3.764926   -0.008440
    29   16.281169   33.557823    0.002717
    30    0.095668    0.598067    0.004042
----------------------------------------
   Tot    5.249983    1.890049    0.001566
----------------------------------------
   Max  174.723173
   Res   29.872328    sqrt( Sum f_i^2 / 3N )
----------------------------------------
   Max  174.723173    constrained

Stress tensor Voigt[x,y,z,yz,xz,xy] (kbar):      -19.91      -94.86       -0.25       -0.05        0.06      -26.59
(Free)E + p*V (eV/cell)    -3855.7119
Target enthalpy (eV/cell)    -3946.3586

mulliken: Atomic and Orbital Populations:

Species: H                   

Atom      Orb        Charge      Spin       Svec
----------------------------------------------------------------
    1  1 1s         0.51575   0.00000      0.000   0.000   0.000
    1  2 1s         0.18682   0.00000     -0.000  -0.000  -0.000
    1  3 2Ppy       0.02879   0.00000      0.000  -0.000   0.000
    1  4 2Ppz       0.03988   0.00000     -0.000  -0.000  -0.000
    1  5 2Ppx       0.02526   0.00000      0.000   0.000  -0.000
    1     Total     0.79651   0.00000      0.000   0.000   0.000

    4  1 1s         1.02308   0.00000     -0.000  -0.000  -0.000
    4  2 1s         0.09539   0.00000      0.000   0.000   0.000
    4  3 2Ppy       0.03931   0.00000     -0.000  -0.000  -0.000
    4  4 2Ppz       0.01905   0.00000      0.000   0.000   0.000
    4  5 2Ppx       0.01376   0.00000     -0.000   0.000  -0.000
    4     Total     1.19059   0.00000     -0.000  -0.000  -0.000

    9  1 1s         0.03793   0.00000     -0.000  -0.000  -0.000
    9  2 1s         0.36624   0.00000     -0.000  -0.000  -0.000
    9  3 2Ppy       0.13152   0.00000      0.000   0.000   0.000
    9  4 2Ppz       0.10446   0.00000     -0.000  -0.000  -0.000
    9  5 2Ppx       0.05379   0.00000      0.000   0.000   0.000
    9     Total     0.69395   0.00000      0.000   0.000   0.000

   10  1 1s         0.53100   0.00000      0.000   0.000   0.000
   10  2 1s         0.17575   0.00000      0.000   0.000   0.000
   10  3 2Ppy       0.05591   0.00000      0.000   0.000   0.000
   10  4 2Ppz       0.04836   0.00000      0.000   0.000   0.000
   10  5 2Ppx       0.03075   0.00000     -0.000  -0.000  -0.000
   10     Total     0.84176   0.00000      0.000   0.000   0.000

   13  1 1s         0.23451   0.00000     -0.000   0.000  -0.000
   13  2 1s         0.34067   0.00000      0.000  -0.000   0.000
   13  3 2Ppy       0.11516   0.00000     -0.000  -0.000  -0.000
   13  4 2Ppz       0.09557   0.00000     -0.000  -0.000   0.000
   13  5 2Ppx       0.12150   0.00000      0.000   0.000   0.000
   13     Total     0.90741   0.00000     -0.000  -0.000  -0.000

   18  1 1s         1.04301   0.00000      0.000   0.000  -0.000
   18  2 1s         0.08662   0.00000     -0.000  -0.000  -0.000
   18  3 2Ppy       0.02772   0.00000      0.000  -0.000   0.000
   18  4 2Ppz       0.01898   0.00000     -0.000  -0.000   0.000
   18  5 2Ppx       0.02017   0.00000     -0.000  -0.000  -0.000
   18     Total     1.19651   0.00000     -0.000  -0.000  -0.000

   21  1 1s         1.06690   0.00000      0.000   0.000  -0.000
   21  2 1s         0.08258   0.00000      0.000   0.000   0.000
   21  3 2Ppy       0.02215   0.00000     -0.000  -0.000   0.000
   21  4 2Ppz       0.02070   0.00000     -0.000  -0.000   0.000
   21  5 2Ppx       0.01306   0.00000     -0.000  -0.000   0.000
   21     Total     1.20539   0.00000      0.000   0.000  -0.000

   22  1 1s         1.06351   0.00000      0.000  -0.000   0.000
   22  2 1s         0.08243   0.00000     -0.000  -0.000  -0.000
   22  3 2Ppy       0.02013   0.00000     -0.000  -0.000  -0.000
   22  4 2Ppz       0.01765   0.00000     -0.000  -0.000   0.000
   22  5 2Ppx       0.01723   0.00000      0.000   0.000  -0.000
   22     Total     1.20095   0.00000     -0.000  -0.000   0.000

   23  1 1s         1.06678   0.00000     -0.000  -0.000   0.000
   23  2 1s         0.08224   0.00000      0.000   0.000   0.000
   23  3 2Ppy       0.01684   0.00000      0.000  -0.000  -0.000
   23  4 2Ppz       0.02411   0.00000     -0.000  -0.000   0.000
   23  5 2Ppx       0.01449   0.00000      0.000   0.000  -0.000
   23     Total     1.20446   0.00000     -0.000  -0.000   0.000

   27  1 1s         0.00642   0.00000     -0.000  -0.000  -0.000
   27  2 1s         0.36108   0.00000      0.000   0.000   0.000
   27  3 2Ppy       0.16987   0.00000      0.000   0.000   0.000
   27  4 2Ppz       0.10553   0.00000     -0.000   0.000  -0.000
   27  5 2Ppx       0.07580   0.00000     -0.000  -0.000  -0.000
   27     Total     0.71870   0.00000     -0.000  -0.000  -0.000

   30  1 1s         0.51811   0.00000     -0.000   0.000  -0.000
   30  2 1s         0.18248   0.00000      0.000  -0.000   0.000
   30  3 2Ppy       0.02940   0.00000     -0.000  -0.000   0.000
   30  4 2Ppz       0.03622   0.00000      0.000  -0.000  -0.000
   30  5 2Ppx       0.02529   0.00000     -0.000  -0.000   0.000
   30     Total     0.79149   0.00000     -0.000  -0.000  -0.000

----------------------------------------------------------------
Total              10.74772   0.00000     -0.000   0.000  -0.000


Species: N                   

Atom      Orb        Charge      Spin       Svec
----------------------------------------------------------------
    2  1 2s         1.38295   0.00000     -0.000   0.000  -0.000
    2  2 2s         0.12501   0.00000      0.000  -0.000   0.000
    2  3 2py        1.07411   0.00000     -0.000  -0.000  -0.000
    2  4 2pz        1.48614   0.00000     -0.000  -0.000  -0.000
    2  5 2px        1.01046   0.00000     -0.000  -0.000  -0.000
    2  6 2py        0.19552   0.00000      0.000   0.000   0.000
    2  7 2pz        0.01509   0.00000      0.000   0.000   0.000
    2  8 2px        0.21174   0.00000      0.000  -0.000   0.000
    2  9 3Pdxy      0.00715   0.00000      0.000   0.000   0.000
    2 10 3Pdyz      0.00544   0.00000      0.000   0.000   0.000
    2 11 3Pdz2      0.00156   0.00000      0.000  -0.000   0.000
    2 12 3Pdxz      0.00303   0.00000      0.000   0.000   0.000
    2 13 3Pdx2-y2   0.00307   0.00000     -0.000   0.000   0.000
    2     Total     5.52130   0.00000     -0.000  -0.000  -0.000

    5  1 2s         1.55886   0.00000      0.000  -0.000  -0.000
    5  2 2s         0.08125   0.00000     -0.000  -0.000   0.000
    5  3 2py        0.90072   0.00000     -0.000  -0.000  -0.000
    5  4 2pz        1.22294   0.00000     -0.000  -0.000  -0.000
    5  5 2px        1.14154   0.00000     -0.000  -0.000  -0.000
    5  6 2py        0.22992   0.00000      0.000   0.000   0.000
    5  7 2pz        0.05556   0.00000      0.000   0.000   0.000
    5  8 2px        0.14636   0.00000     -0.000   0.000   0.000
    5  9 3Pdxy      0.00869   0.00000     -0.000  -0.000  -0.000
    5 10 3Pdyz      0.00654   0.00000      0.000   0.000   0.000
    5 11 3Pdz2      0.00193   0.00000      0.000   0.000  -0.000
    5 12 3Pdxz      0.01136   0.00000      0.000   0.000   0.000
    5 13 3Pdx2-y2   0.00934   0.00000     -0.000  -0.000  -0.000
    5     Total     5.37500   0.00000     -0.000  -0.000  -0.000

    8  1 2s         1.27349   0.00000      0.000   0.000   0.000
    8  2 2s         0.16823   0.00000     -0.000  -0.000  -0.000
    8  3 2py        0.79508   0.00000      0.000   0.000   0.000
    8  4 2pz        1.49928   0.00000      0.000   0.000   0.000
    8  5 2px        1.02200   0.00000      0.000   0.000   0.000
    8  6 2py        0.22250   0.00000     -0.000  -0.000  -0.000
    8  7 2pz        0.02838   0.00000     -0.000  -0.000  -0.000
    8  8 2px        0.22370   0.00000     -0.000  -0.000  -0.000
    8  9 3Pdxy      0.01059   0.00000     -0.000  -0.000  -0.000
    8 10 3Pdyz      0.00734   0.00000     -0.000  -0.000  -0.000
    8 11 3Pdz2      0.00449   0.00000      0.000   0.000   0.000
    8 12 3Pdxz      0.00311   0.00000     -0.000  -0.000   0.000
    8 13 3Pdx2-y2   0.00878   0.00000      0.000   0.000   0.000
    8     Total     5.26697   0.00000      0.000   0.000   0.000

   11  1 2s         1.40106   0.00000      0.000   0.000   0.000
   11  2 2s         0.09935   0.00000     -0.000   0.000  -0.000
   11  3 2py        1.05032   0.00000      0.000   0.000  -0.000
   11  4 2pz        1.41889   0.00000      0.000   0.000  -0.000
   11  5 2px        0.91400   0.00000      0.000   0.000  -0.000
   11  6 2py        0.23520   0.00000     -0.000   0.000  -0.000
   11  7 2pz        0.04312   0.00000     -0.000   0.000   0.000
   11  8 2px        0.29179   0.00000      0.000  -0.000   0.000
   11  9 3Pdxy      0.00396   0.00000      0.000   0.000  -0.000
   11 10 3Pdyz      0.00625   0.00000     -0.000  -0.000  -0.000
   11 11 3Pdz2      0.00273   0.00000     -0.000  -0.000  -0.000
   11 12 3Pdxz      0.00628   0.00000     -0.000  -0.000  -0.000
   11 13 3Pdx2-y2   0.01449   0.00000      0.000   0.000  -0.000
   11     Total     5.48743   0.00000      0.000   0.000  -0.000

   14  1 2s         1.50331   0.00000     -0.000   0.000   0.000
   14  2 2s         0.10281   0.00000      0.000  -0.000  -0.000
   14  3 2py        0.84350   0.00000      0.000   0.000  -0.000
   14  4 2pz        1.21220   0.00000      0.000   0.000  -0.000
   14  5 2px        1.12497   0.00000      0.000   0.000  -0.000
   14  6 2py        0.27671   0.00000      0.000  -0.000   0.000
   14  7 2pz        0.05877   0.00000     -0.000   0.000   0.000
   14  8 2px        0.14912   0.00000      0.000   0.000   0.000
   14  9 3Pdxy      0.00835   0.00000     -0.000  -0.000  -0.000
   14 10 3Pdyz      0.00395   0.00000      0.000   0.000   0.000
   14 11 3Pdz2      0.00216   0.00000      0.000   0.000   0.000
   14 12 3Pdxz      0.01047   0.00000      0.000  -0.000  -0.000
   14 13 3Pdx2-y2   0.01059   0.00000      0.000   0.000   0.000
   14     Total     5.30693   0.00000      0.000   0.000  -0.000

   16  1 2s         1.34493   0.00000      0.000   0.000   0.000
   16  2 2s         0.14300   0.00000     -0.000  -0.000  -0.000
   16  3 2py        0.94724   0.00000      0.000   0.000   0.000
   16  4 2pz        1.51129   0.00000      0.000  -0.000   0.000
   16  5 2px        1.06273   0.00000     -0.000   0.000  -0.000
   16  6 2py        0.25345   0.00000     -0.000  -0.000  -0.000
   16  7 2pz        0.01532   0.00000     -0.000  -0.000  -0.000
   16  8 2px        0.19098   0.00000      0.000  -0.000   0.000
   16  9 3Pdxy      0.00308   0.00000     -0.000   0.000   0.000
   16 10 3Pdyz      0.00548   0.00000     -0.000  -0.000   0.000
   16 11 3Pdz2      0.00218   0.00000     -0.000  -0.000  -0.000
   16 12 3Pdxz      0.00232   0.00000     -0.000  -0.000   0.000
   16 13 3Pdx2-y2   0.00646   0.00000      0.000  -0.000   0.000
   16     Total     5.48845   0.00000      0.000  -0.000   0.000

   26  1 2s         1.45207   0.00000      0.000  -0.000  -0.000
   26  2 2s         0.07454   0.00000     -0.000   0.000   0.000
   26  3 2py        1.22685   0.00000      0.000   0.000  -0.000
   26  4 2pz        1.38137   0.00000      0.000   0.000   0.000
   26  5 2px        0.83737   0.00000      0.000   0.000   0.000
   26  6 2py        0.10151   0.00000     -0.000   0.000  -0.000
   26  7 2pz        0.02191   0.00000     -0.000  -0.000  -0.000
   26  8 2px        0.29633   0.00000     -0.000  -0.000  -0.000
   26  9 3Pdxy      0.00694   0.00000     -0.000   0.000  -0.000
   26 10 3Pdyz      0.00622   0.00000     -0.000   0.000  -0.000
   26 11 3Pdz2      0.00074   0.00000      0.000  -0.000  -0.000
   26 12 3Pdxz      0.00448   0.00000     -0.000  -0.000  -0.000
   26 13 3Pdx2-y2   0.01299   0.00000     -0.000  -0.000  -0.000
   26     Total     5.42331   0.00000      0.000   0.000   0.000

----------------------------------------------------------------
Total              48.61711   0.00000      0.000   0.000   0.000


Species: Si                  

Atom      Orb        Charge      Spin       Svec
----------------------------------------------------------------
    3  1 3s         0.55551   0.00000      0.000   0.000   0.000
    3  2 3s         0.38702   0.00000     -0.000  -0.000   0.000
    3  3 3py        0.08139   0.00000      0.000   0.000   0.000
    3  4 3pz        0.51701   0.00000      0.000   0.000   0.000
    3  5 3px        0.37892   0.00000     -0.000  -0.000   0.000
    3  6 3py        0.50030   0.00000     -0.000   0.000  -0.000
    3  7 3pz        0.17497   0.00000      0.000   0.000   0.000
    3  8 3px        0.23644   0.00000      0.000   0.000  -0.000
    3  9 3Pdxy      0.11041   0.00000     -0.000  -0.000   0.000
    3 10 3Pdyz      0.05035   0.00000      0.000   0.000   0.000
    3 11 3Pdz2      0.01077   0.00000      0.000   0.000  -0.000
    3 12 3Pdxz      0.13488   0.00000      0.000   0.000   0.000
    3 13 3Pdx2-y2   0.32692   0.00000      0.000   0.000   0.000
    3     Total     3.46487   0.00000      0.000   0.000   0.000

    6  1 3s         0.67803   0.00000      0.000   0.000   0.000
    6  2 3s         0.36769   0.00000      0.000   0.000  -0.000
    6  3 3py        0.14194   0.00000      0.000   0.000   0.000
    6  4 3pz        0.66694   0.00000      0.000   0.000   0.000
    6  5 3px        0.48804   0.00000      0.000   0.000  -0.000
    6  6 3py        0.46028   0.00000     -0.000   0.000  -0.000
    6  7 3pz        0.23265   0.00000      0.000   0.000   0.000
    6  8 3px        0.24566   0.00000     -0.000   0.000  -0.000
    6  9 3Pdxy      0.18284   0.00000      0.000   0.000  -0.000
    6 10 3Pdyz      0.14861   0.00000      0.000   0.000  -0.000
    6 11 3Pdz2      0.01613   0.00000      0.000  -0.000  -0.000
    6 12 3Pdxz      0.03698   0.00000      0.000   0.000   0.000
    6 13 3Pdx2-y2   0.18902   0.00000      0.000   0.000   0.000
    6     Total     3.85481   0.00000      0.000   0.000   0.000

    7  1 3s         0.68144   0.00000     -0.000  -0.000   0.000
    7  2 3s         0.33552   0.00000     -0.000  -0.000  -0.000
    7  3 3py        0.36092   0.00000     -0.000  -0.000  -0.000
    7  4 3pz        0.52437   0.00000     -0.000  -0.000  -0.000
    7  5 3px        0.11418   0.00000     -0.000  -0.000   0.000
    7  6 3py        0.32551   0.00000      0.000  -0.000   0.000
    7  7 3pz        0.19812   0.00000     -0.000  -0.000   0.000
    7  8 3px        0.39978   0.00000      0.000   0.000   0.000
    7  9 3Pdxy      0.24508   0.00000      0.000   0.000   0.000
    7 10 3Pdyz      0.12102   0.00000      0.000   0.000   0.000
    7 11 3Pdz2      0.01291   0.00000     -0.000  -0.000   0.000
    7 12 3Pdxz      0.13818   0.00000     -0.000  -0.000   0.000
    7 13 3Pdx2-y2   0.24194   0.00000      0.000   0.000  -0.000
    7     Total     3.69897   0.00000     -0.000  -0.000  -0.000

   12  1 3s         0.99327   0.00000      0.000   0.000   0.000
   12  2 3s         0.28818   0.00000     -0.000  -0.000   0.000
   12  3 3py        0.34860   0.00000      0.000   0.000   0.000
   12  4 3pz        0.32796   0.00000     -0.000   0.000   0.000
   12  5 3px        0.39263   0.00000      0.000  -0.000   0.000
   12  6 3py        0.38654   0.00000     -0.000  -0.000  -0.000
   12  7 3pz        0.16640   0.00000     -0.000  -0.000   0.000
   12  8 3px        0.24026   0.00000     -0.000   0.000  -0.000
   12  9 3Pdxy      0.23335   0.00000      0.000  -0.000   0.000
   12 10 3Pdyz      0.08925   0.00000      0.000  -0.000   0.000
   12 11 3Pdz2      0.06020   0.00000      0.000   0.000   0.000
   12 12 3Pdxz      0.07708   0.00000     -0.000  -0.000   0.000
   12 13 3Pdx2-y2   0.18833   0.00000     -0.000  -0.000  -0.000
   12     Total     3.79205   0.00000      0.000   0.000   0.000

   15  1 3s         0.71130   0.00000      0.000   0.000   0.000
   15  2 3s         0.35282   0.00000     -0.000   0.000  -0.000
   15  3 3py        0.00082   0.00000      0.000   0.000   0.000
   15  4 3pz        0.48264   0.00000      0.000   0.000   0.000
   15  5 3px        0.40510   0.00000      0.000   0.000   0.000
   15  6 3py        0.45532   0.00000     -0.000  -0.000   0.000
   15  7 3pz        0.19163   0.00000      0.000   0.000   0.000
   15  8 3px        0.34053   0.00000     -0.000   0.000  -0.000
   15  9 3Pdxy      0.14563   0.00000      0.000   0.000  -0.000
   15 10 3Pdyz      0.13009   0.00000      0.000   0.000   0.000
   15 11 3Pdz2      0.02090   0.00000      0.000   0.000   0.000
   15 12 3Pdxz      0.12145   0.00000      0.000   0.000   0.000
   15 13 3Pdx2-y2   0.31830   0.00000      0.000   0.000   0.000
   15     Total     3.67654   0.00000      0.000   0.000   0.000

   17  1 3s         0.74512   0.00000     -0.000  -0.000  -0.000
   17  2 3s         0.35150   0.00000      0.000  -0.000   0.000
   17  3 3py        0.11796   0.00000     -0.000  -0.000   0.000
   17  4 3pz        0.64787   0.00000     -0.000  -0.000   0.000
   17  5 3px        0.37677   0.00000     -0.000  -0.000  -0.000
   17  6 3py        0.43251   0.00000     -0.000   0.000  -0.000
   17  7 3pz        0.13923   0.00000     -0.000  -0.000   0.000
   17  8 3px        0.32092   0.00000     -0.000  -0.000  -0.000
   17  9 3Pdxy      0.19986   0.00000     -0.000  -0.000  -0.000
   17 10 3Pdyz      0.02234   0.00000     -0.000  -0.000   0.000
   17 11 3Pdz2      0.01434   0.00000     -0.000  -0.000  -0.000
   17 12 3Pdxz      0.10588   0.00000     -0.000  -0.000  -0.000
   17 13 3Pdx2-y2   0.12070   0.00000     -0.000  -0.000  -0.000
   17     Total     3.59501   0.00000     -0.000  -0.000   0.000

   19  1 3s         0.87823   0.00000      0.000  -0.000  -0.000
   19  2 3s         0.32272   0.00000     -0.000  -0.000   0.000
   19  3 3py        0.42935   0.00000      0.000   0.000   0.000
   19  4 3pz        0.63537   0.00000      0.000   0.000   0.000
   19  5 3px        0.33605   0.00000      0.000   0.000   0.000
   19  6 3py        0.33254   0.00000     -0.000   0.000  -0.000
   19  7 3pz        0.23771   0.00000      0.000   0.000   0.000
   19  8 3px        0.35185   0.00000     -0.000   0.000  -0.000
   19  9 3Pdxy      0.12761   0.00000     -0.000  -0.000  -0.000
   19 10 3Pdyz      0.03156   0.00000     -0.000  -0.000  -0.000
   19 11 3Pdz2      0.02212   0.00000     -0.000  -0.000  -0.000
   19 12 3Pdxz      0.05353   0.00000     -0.000  -0.000   0.000
   19 13 3Pdx2-y2   0.13751   0.00000     -0.000  -0.000  -0.000
   19     Total     3.89614   0.00000      0.000   0.000  -0.000

   20  1 3s         0.54472   0.00000     -0.000  -0.000  -0.000
   20  2 3s         0.44111   0.00000      0.000   0.000   0.000
   20  3 3py        0.32220   0.00000      0.000  -0.000  -0.000
   20  4 3pz        0.26304   0.00000      0.000  -0.000   0.000
   20  5 3px        0.48154   0.00000     -0.000   0.000  -0.000
   20  6 3py        0.37721   0.00000     -0.000   0.000   0.000
   20  7 3pz        0.41426   0.00000     -0.000   0.000  -0.000
   20  8 3px        0.27462   0.00000      0.000  -0.000   0.000
   20  9 3Pdxy      0.07916   0.00000     -0.000  -0.000   0.000
   20 10 3Pdyz      0.08352   0.00000      0.000   0.000  -0.000
   20 11 3Pdz2      0.05089   0.00000     -0.000  -0.000   0.000
   20 12 3Pdxz      0.06845   0.00000      0.000   0.000   0.000
   20 13 3Pdx2-y2   0.04540   0.00000      0.000   0.000  -0.000
   20     Total     3.44611   0.00000     -0.000  -0.000   0.000

   24  1 3s         0.80353   0.00000     -0.000  -0.000  -0.000
   24  2 3s         0.29616   0.00000      0.000   0.000   0.000
   24  3 3py        0.35183   0.00000     -0.000  -0.000   0.000
   24  4 3pz        0.39062   0.00000     -0.000  -0.000  -0.000
   24  5 3px        0.38904   0.00000     -0.000  -0.000  -0.000
   24  6 3py        0.32403   0.00000     -0.000   0.000  -0.000
   24  7 3pz        0.18939   0.00000     -0.000  -0.000  -0.000
   24  8 3px        0.24501   0.00000      0.000  -0.000  -0.000
   24  9 3Pdxy      0.22727   0.00000     -0.000  -0.000  -0.000
   24 10 3Pdyz      0.11029   0.00000      0.000   0.000  -0.000
   24 11 3Pdz2      0.03335   0.00000     -0.000  -0.000  -0.000
   24 12 3Pdxz      0.08843   0.00000     -0.000  -0.000  -0.000
   24 13 3Pdx2-y2   0.28593   0.00000      0.000  -0.000  -0.000
   24     Total     3.73487   0.00000     -0.000  -0.000  -0.000

   28  1 3s         0.60620   0.00000     -0.000  -0.000  -0.000
   28  2 3s         0.33022   0.00000      0.000   0.000   0.000
   28  3 3py        0.11316   0.00000     -0.000   0.000  -0.000
   28  4 3pz        0.33845   0.00000     -0.000  -0.000   0.000
   28  5 3px        0.29899   0.00000     -0.000  -0.000   0.000
   28  6 3py        0.44758   0.00000      0.000  -0.000   0.000
   28  7 3pz        0.22047   0.00000     -0.000  -0.000   0.000
   28  8 3px        0.28356   0.00000      0.000   0.000   0.000
   28  9 3Pdxy      0.21349   0.00000     -0.000  -0.000   0.000
   28 10 3Pdyz      0.13770   0.00000     -0.000  -0.000   0.000
   28 11 3Pdz2      0.01808   0.00000     -0.000  -0.000  -0.000
   28 12 3Pdxz      0.12443   0.00000     -0.000  -0.000   0.000
   28 13 3Pdx2-y2   0.27181   0.00000      0.000   0.000   0.000
   28     Total     3.40413   0.00000     -0.000  -0.000   0.000

----------------------------------------------------------------
Total              85.18060   0.00000     -0.000  -0.000  -0.000


Species: O                   

Atom      Orb        Charge      Spin       Svec
----------------------------------------------------------------
   25  1 2s         1.63960   0.00000     -0.000  -0.000  -0.000
   25  2 2s         0.10537   0.00000      0.000   0.000   0.000
   25  3 2py        1.05512   0.00000      0.000   0.000   0.000
   25  4 2pz        1.68608   0.00000      0.000   0.000   0.000
   25  5 2px        1.40069   0.00000      0.000   0.000   0.000
   25  6 2py        0.30702   0.00000     -0.000  -0.000  -0.000
   25  7 2pz        0.03452   0.00000      0.000   0.000  -0.000
   25  8 2px        0.21026   0.00000     -0.000   0.000  -0.000
   25  9 3Pdxy      0.01621   0.00000      0.000   0.000  -0.000
   25 10 3Pdyz      0.01982   0.00000     -0.000  -0.000  -0.000
   25 11 3Pdz2      0.00618   0.00000      0.000   0.000   0.000
   25 12 3Pdxz      0.00204   0.00000     -0.000  -0.000  -0.000
   25 13 3Pdx2-y2   0.02314   0.00000      0.000   0.000  -0.000
   25     Total     6.50604   0.00000      0.000   0.000   0.000

   29  1 2s         1.56444   0.00000      0.000   0.000   0.000
   29  2 2s         0.11857   0.00000     -0.000   0.000  -0.000
   29  3 2py        1.04118   0.00000     -0.000   0.000  -0.000
   29  4 2pz        1.66518   0.00000      0.000  -0.000  -0.000
   29  5 2px        1.54251   0.00000      0.000   0.000  -0.000
   29  6 2py        0.26328   0.00000     -0.000   0.000   0.000
   29  7 2pz        0.01414   0.00000     -0.000   0.000   0.000
   29  8 2px        0.06957   0.00000      0.000  -0.000   0.000
   29  9 3Pdxy      0.01164   0.00000      0.000  -0.000   0.000
   29 10 3Pdyz      0.00146   0.00000     -0.000  -0.000   0.000
   29 11 3Pdz2      0.00246   0.00000     -0.000   0.000   0.000
   29 12 3Pdxz      0.00815   0.00000     -0.000  -0.000  -0.000
   29 13 3Pdx2-y2   0.01078   0.00000      0.000  -0.000   0.000
   29     Total     6.31335   0.00000      0.000   0.000   0.000

----------------------------------------------------------------
Total              98.00000   0.00000     -0.000  -0.000  -0.000


siesta: Eigenvalues (eV):
ik =     1
  -33.5405  -33.5404  -29.0144  -29.0144  -24.5921  -24.5921  -22.0329  -22.0329  -20.8853  -20.8853
  -20.5815  -20.5815  -19.3502  -19.3502  -19.1970  -19.1970  -18.8215  -18.8215  -17.7812  -17.7812
  -16.9916  -16.9916  -14.7613  -14.7613  -14.4103  -14.4103  -13.9807  -13.9807  -13.8108  -13.8108
  -13.1623  -13.1623  -12.8038  -12.8038  -12.7484  -12.7484  -12.3591  -12.3591  -12.0777  -12.0777
  -11.6135  -11.6135  -11.2640  -11.2640  -11.0820  -11.0820  -10.8715  -10.8715  -10.7651  -10.7651
  -10.4307  -10.4307  -10.3473  -10.3473   -9.5002   -9.5002   -9.3054   -9.3054   -9.1716   -9.1716
   -8.9017   -8.9017   -8.7998   -8.7998   -8.6546   -8.6546   -8.4586   -8.4586   -8.4412   -8.4412
   -8.1444   -8.1444   -8.0099   -8.0099   -7.8257   -7.8257   -7.1640   -7.1640   -7.1131   -7.1131
   -6.5629   -6.5629   -6.1925   -6.1925   -5.7600   -5.7600   -5.6861   -5.6861   -5.5506   -5.5506
   -5.0244   -5.0244   -4.4497   -4.4497   -4.1865   -4.1865   -3.6931   -3.6931   -3.4231   -3.4231
   -2.7509   -2.7509   -2.5237   -2.5237   -2.3764   -2.3764   -2.1676   -2.1676   -2.0859   -2.0859
   -1.7760   -1.7760   -1.7296   -1.7296   -1.5457   -1.5457   -1.3680   -1.3680   -1.2138   -1.2138
   -1.0810   -1.0810   -0.6150   -0.6150   -0.1578   -0.1578   -0.1101   -0.1101   -0.0455   -0.0455
    0.0466    0.0466    0.3157    0.3157    0.4558    0.4558    0.5303    0.5303    0.5809    0.5809
    0.8422    0.8422    1.0459    1.0459    1.2293    1.2293    1.3521    1.3521    1.5141    1.5141
    1.7095    1.7095    1.8365    1.8365    2.1540    2.1540    2.3549    2.3549    2.6138    2.6139
    2.7109    2.7109    2.8312    2.8312    2.8721    2.8721    3.0016    3.0016    3.1378    3.1378
    3.2439    3.2439    3.4375    3.4375    3.6579    3.6579    3.8664    3.8664    4.0086    4.0086
    4.1028    4.1028    4.2389    4.2389    4.6353    4.6353    4.6787    4.6787    4.7765    4.7765
    4.9361    4.9361    5.1630    5.1630    5.2650    5.2650    5.3047    5.3047    5.4857    5.4857
    5.7968    5.7968    5.8765    5.8765    5.8955    5.8955    6.0803    6.0803    6.1699    6.1699
    6.3755    6.3755    6.4524    6.4524    6.9163    6.9163    6.9645    6.9645    7.0435    7.0435
    7.2988    7.2988    7.3533    7.3533    7.4585    7.4585    7.5754    7.5754    7.7711    7.7711
    7.9285    7.9285    8.0999    8.0999    8.2423    8.2423    8.3470    8.3470    8.5893    8.5893
    8.9326    8.9326    9.0892    9.0892    9.3834    9.3834    9.4532    9.4532    9.6519    9.6519
    9.7887    9.7887    9.8746    9.8746    9.9995    9.9995   10.0543   10.0543   10.1970   10.1970
   10.5967   10.5967   10.7154   10.7154   10.8942   10.8942   11.0405   11.0405   11.1655   11.1655
   11.3302   11.3302   11.5311   11.5311   11.6887   11.6887   11.8691   11.8691   11.9506   11.9506
   12.0254   12.0254   12.1859   12.1859   12.2070   12.2070   12.5357   12.5357   13.0260   13.0260
   13.3469   13.3469   13.4022   13.4022   13.4314   13.4314   13.6759   13.6759   14.1620   14.1620
   14.2774   14.2774   14.7706   14.7706   15.0315   15.0315   15.1312   15.1312   15.6816   15.6816
   15.7514   15.7514   16.0085   16.0085   16.4165   16.4165   16.7622   16.7622   16.9836   16.9836
   17.1008   17.1008   17.1216   17.1216   18.1644   18.1644   18.3277   18.3277   18.5000   18.5000
   18.5404   18.5404   18.6773   18.6773   18.7549   18.7549   19.5605   19.5605   19.9448   19.9448
   20.1722   20.1722   20.4917   20.4917   20.8078   20.8078   21.1264   21.1264   21.2375   21.2375
   21.4233   21.4233   21.9195   21.9195   22.1244   22.1244   22.5953   22.5953   22.9915   22.9915
   23.1299   23.1299   23.3366   23.3366   24.1285   24.1285   24.4928   24.4928   24.7385   24.7385
   24.8665   24.8665   25.5104   25.5104   25.6699   25.6699   25.8561   25.8561   26.3172   26.3172
   26.8090   26.8090   27.1255   27.1255   28.0012   28.0012   28.4583   28.4583   28.7150   28.7150
   28.9447   28.9447   29.4963   29.4963   29.9852   29.9852   30.6320   30.6320   30.9678   30.9678
   31.1284   31.1284   31.5352   31.5352   31.7024   31.7024   31.9537   31.9537   32.5469   32.5469
   32.5923   32.5923   33.1149   33.1149   33.9004   33.9004   34.5112   34.5112   34.6658   34.6658
   35.4521   35.4521   36.5678   36.5678   36.6207   36.6207   36.7723   36.7723   37.3671   37.3671
   37.8677   37.8677   38.8232   38.8232   39.3355   39.3355   39.8531   39.8531   39.9979   39.9979
   40.7871   40.7871   40.8283   40.8283   41.1173   41.1173   41.6767   41.6767   41.7299   41.7299
   42.1142   42.1142   42.3305   42.3305   43.3054   43.3054   43.8125   43.8125   43.9271   43.9271
   44.7097   44.7097   45.3249   45.3249   45.3997   45.3997   45.5932   45.5932   45.7444   45.7444
   45.7664   45.7664   46.1822   46.1822   46.8493   46.8493   47.4537   47.4537   47.8450   47.8450
   47.9989   47.9989   48.5944   48.5944   48.9382   48.9382   49.3051   49.3051   49.6110   49.6110
   49.9398   49.9398   50.3442   50.3442   51.1081   51.1081   52.1354   52.1354   52.7532   52.7532
   54.3092   54.3092   54.8451   54.8451   55.3018   55.3018   55.3087   55.3087   56.4536   56.4536
   56.6735   56.6735   57.0145   57.0145   57.6366   57.6366   59.0511   59.0511   59.8934   59.8934
   61.0669   61.0669   61.0974   61.0974   62.3053   62.3053   64.6335   64.6335   64.8646   64.8646
   65.2925   65.2925   65.6556   65.6556   65.9540   65.9540   66.5922   66.5922   66.8918   66.8918
   68.3530   68.3530   69.9944   69.9944   70.9195   70.9195   71.6554   71.6554   72.7812   72.7812
   76.2243   76.2243   77.3404   77.3404   79.0327   79.0327   80.0909   80.0909   81.5576   81.5576
   84.1867   84.1867   85.6816   85.6816   90.7759   90.7759   93.0642   93.0642   94.1932   94.1932
   98.8285   98.8285  101.3751  101.3751  102.3256  102.3256  103.3474  103.3474  115.6699  115.6699
  116.4616  116.4616  123.0612  123.0612  124.7687  124.7687  127.3912  127.3912  128.4373  128.4373
  132.6134  132.6134  141.9600  141.9600  144.5567  144.5567  165.7847  165.7847  169.7702  169.7702
  187.4552  187.4552  402.7817  402.7817
siesta: Fermi energy =      -3.558100 eV

siesta: Program's energy decomposition (eV):
siesta: Ebs     =     -1191.742575
siesta: Eions   =      3553.971015
siesta: Ena     =       469.265383
siesta: Ekin    =      2885.811418
siesta: Enl     =     -2681.520337
siesta: Eso     =        -0.005110
siesta: Edftu   =         0.000000
siesta: DEna    =        38.119503
siesta: DUscf   =        16.067970
siesta: DUext   =         0.000000
siesta: Exc     =     -1120.122921
siesta: eta*DQ  =         0.000000
siesta: Emadel  =         0.000000
siesta: Emeta   =         0.000000
siesta: Emolmec =         0.000000
siesta: Ekinion =         0.000000
siesta: Eharris =     -3946.355108
siesta: Etot    =     -3946.355108
siesta: FreeEng =     -3946.358558

siesta: Final energy (eV):
siesta:  Band Struct. =   -1191.742575
siesta:       Kinetic =    2885.811418
siesta:       Hartree =    9107.172883
siesta:       Edftu   =       0.000000
siesta:       Eso     =      -0.005110
siesta:    Ext. field =       0.000000
siesta:   Exch.-corr. =   -1120.122921
siesta:  Ion-electron =  -20837.185171
siesta:       Ion-ion =    6017.973793
siesta:       Ekinion =       0.000000
siesta:         Total =   -3946.355108
siesta:         Fermi =      -3.558100

siesta: Atomic forces (eV/Ang):
siesta:      1    0.002911   -0.029906    0.000173
siesta:      2   -0.095348   -0.315618    0.000749
siesta:      3    0.135666    0.077827   -0.000271
siesta:      4   -0.046833   -0.046713    0.000120
siesta:      5   -0.033250   -0.041955   -0.000148
siesta:      6    0.090998    0.111823    0.001792
siesta:      7   -2.379392   -1.781618    0.002497
siesta:      8   -1.439830  -36.783407   -0.007112
siesta:      9 -106.783809 -141.419077    0.006088
siesta:     10   -0.373402   -1.101130    0.001720
siesta:     11   -1.213375  -41.753611    0.003318
siesta:     12   -1.727574   -7.449610   -0.000285
siesta:     13   -5.307949  -24.685902   -0.000100
siesta:     14   -0.305607   -0.999496    0.000290
siesta:     15    0.365831   -0.111154   -0.002880
siesta:     16    1.303010   -0.616598    0.018732
siesta:     17   -0.662401    0.362759   -0.008839
siesta:     18    0.302403    0.109461   -0.023130
siesta:     19    0.136401   -0.071524   -0.046038
siesta:     20    0.251819    0.104767    0.003895
siesta:     21   -0.183651    0.159054    0.096998
siesta:     22   -0.044189   -0.008694    0.031832
siesta:     23   -0.060995    0.068290   -0.057524
siesta:     24    2.807996    4.116106   -0.017638
siesta:     25  110.694219  174.723173   -0.004820
siesta:     26    0.375206   20.702967    0.007265
siesta:     27   -1.438301   20.649019   -0.003437
siesta:     28   -5.497407    3.764926   -0.008440
siesta:     29   16.281169   33.557823    0.002717
siesta:     30    0.095668    0.598067    0.004042
siesta: ----------------------------------------
siesta:    Tot    5.249983    1.890049    0.001566

siesta: Stress tensor (static) (eV/Ang**3):
siesta:    -0.012428   -0.016598    0.000039
siesta:    -0.016598   -0.059206   -0.000028
siesta:     0.000039   -0.000028   -0.000156

siesta: Cell volume =       3788.011397 Ang**3

siesta: Pressure (static):
siesta:                Solid            Molecule  Units
siesta:           0.00026063         -0.00000278  Ry/Bohr**3
siesta:           0.02392988         -0.00025505  eV/Ang**3
siesta:          38.34030637         -0.40864381  kBar
(Free)E+ p_basis*V_orbitals  =       -3925.230472
(Free)Eharris+ p_basis*V_orbitals  =       -3925.230472
     spin moment: S , {S} =    0.00000  -0.00000  -0.00000  -0.00000

siesta: Electric dipole (a.u.)  =    0.700355    1.605384   -0.015697
siesta: Electric dipole (Debye) =    1.780126    4.080483   -0.039898

cite: Please see "AT.bib" for an exhaustive BiBTeX file.
cite: Please clearly indicate Siesta version in published work: v4.1.5-1-g384057250
cite: This calculation has made use of the following articles
cite: which are encouraged to be cited in a published work.
        Primary SIESTA paper
          DOI: www.doi.org/10.1088/0953-8984/14/11/302
        Spin-orbit coupling (on-site approximation)
          DOI: www.doi.org/10.1088/0953-8984/19/19/489001


WARNING: alloc-realloc-dealloc name mismatch
         Name: atomlist isa
         Size:              -120. Bytes
         Node:     0
         Subsequent mismatches will not be reported
>> End of run:  22-MAY-2023   9:31:50
Job completed
