Siesta Version  : v4.1.5-1-g384057250
Architecture    : gcc
Compiler version: GNU Fortran (Ubuntu 11.4.0-1ubuntu1~22.04) 11.4.0
Compiler flags  : mpifort -O2 -fPIC -ftree-vectorize -fallow-argument-mismatch
PP flags        : -DFC_HAVE_ABORT -DMPI -DSIESTA__FLOOK -DSIESTA__METIS -DSIESTA__MUMPS -DCDF -DNCDF -DNCDF_4 -DNCDF_PARALLEL -DSIESTA__MRRR -DSIESTA__ELPA
Libraries       : libncdf.a libfdict.a  -lflookall -ldl -lnetcdff -lnetcdf -lhdf5_hl -lhdf5 -lhdf5_fortran -lz -lscalapack-openmpi -lopenblas -lmetis -lzmumps -lcmumps -ldmumps -lmumps_common -lpord -lsmumps -lesmumps -lscotch -lscotcherr -fopenmp -lelpa
PARALLEL version
NetCDF support
NetCDF-4 support
NetCDF-4 MPI-IO support
METIS ordering support
Lua support

* Running on 8 nodes in parallel
>> Start of run:   1-FEB-2024  18:12:18

                           ***********************       
                           *  WELCOME TO SIESTA  *       
                           ***********************       

reinit: Reading from standard input
reinit: Dumped input in INPUT_TMP.28790
************************** Dump of input data file ****************************
# mpirun -np 4 siesta-4.1.5 < AT.fdf > AT.out &
SystemLabel      AT
NumberOfAtoms    30
NumberOfSpecies  4
%block ChemicalSpeciesLabel
    1    1  H
    2    7  N
    3   14  Si
    4    8  O
%endblock ChemicalSpeciesLabel
############################################
# This overrides Defaults.fdf configuration
############################################
MD.TypeOfRun                Verlet # CG, Verlet
MD.Steps                    0
MaxSCFIterations            200
SCF.MustConverge            F
AtomicCoordinatesFormat NotScaledCartesianAng
%block AtomicCoordinatesAndAtomicSpecies
    2.28494382 -5.19529124 0.0  1  1  H
    1.37433094 -4.6647107 0.0  2  2  N
    -0.21830245 -5.49458215 0.0  3  3  Si
    -0.17484108 -6.98516892 0.0  1  4  H
    -1.66171682 -4.58600741 0.0  2  5  N
    -1.09026419 -2.87456374 0.0  3  6  Si
    -1.53038332 -0.70765692 0.0  3  7  Si
    -3.14415959 -0.09186471 0.0  2  8  N
    -3.40268075 0.95848335 0.0  1  9  H
    -3.95073599 -0.76720972 0.0  1  10  H
    -0.17836637 0.41349951 0.0  2  11  N
    1.49520211 -0.0473996 0.0  3  12  Si
    2.45603905 1.10727302 0.0  1  13  H
    2.30451743 -1.58574382 0.0  2  14  N
    1.10725559 -2.84610319 0.0  3  15  Si
    0.6202090544226336 7.188413729468837 0.0  1  16  H
    -0.18850162557736633 6.496207849468837 0.0  2  17  N
    -1.8450914655773663 7.209327949468837 0.0  3  18  Si
    -1.7482262955773662 8.720053159468836 0.0  1  19  H
    -3.571247815577366 5.866279819468836 0.0  3  20  Si
    -5.925702065577367 5.858292889468837 0.0  3  21  Si
    -6.488120185577367 6.592782539468836 -1.20183078  1  22  H
    -6.225515815577367 4.379201759468836 -0.08618332  1  23  H
    -6.488232645577367 6.423125349468837 1.28814761  1  24  H
    -2.6418571755773663 3.7957085894688367 0.0  3  25  Si
    -3.5913255355773663 2.5071724594688365 0.0  4  26  O
    -0.8509123055773664 3.6219731194688367 0.0  2  27  N
    -0.5199209455773663 2.589616139468837 0.0  1  28  H
    0.45754591442263365 4.816519539468836 0.0  3  29  Si
    2.0234828444226336 4.549272689468837 0.0  4  30  O
%endblock AtomicCoordinatesAndAtomicSpecies
#############
# Unit Cell
#############
LatticeConstant 1.0 Ang
%block LatticeVectors
    30.00000    0.000000    0.000000
    0.000000    45.00000    0.000000
    0.000000    0.000000    10.00000
%endblock LatticeVectors
%include ../../../../Defaults.fdf
************************** End of input data file *****************************

reinit: -----------------------------------------------------------------------
reinit: System Name: 
reinit: -----------------------------------------------------------------------
reinit: System Label: AT
reinit: -----------------------------------------------------------------------

initatom: Reading input for the pseudopotentials and atomic orbitals ----------
Species number:   1 Atomic number:    1 Label: H
Species number:   2 Atomic number:    7 Label: N
Species number:   3 Atomic number:   14 Label: Si
Species number:   4 Atomic number:    8 Label: O

Ground state valence configuration:   1s01
Reading pseudopotential information in formatted form from H.psf

Pseudopotential generated from a relativistic atomic calculation

Valence configuration for pseudopotential generation:
1s( 1.00) rc: 0.01
2p( 0.00) rc: 0.60
3d( 0.00) rc: 1.99
4f( 0.00) rc: 2.49
Ground state valence configuration:   2s02  2p03
Reading pseudopotential information in formatted form from N.psf

Pseudopotential generated from a relativistic atomic calculation

Valence configuration for pseudopotential generation:
2s( 2.00) rc: 0.94
2p( 3.00) rc: 0.59
3d( 0.00) rc: 3.46
4f( 0.00) rc: 2.47
Ground state valence configuration:   3s02  3p02
Reading pseudopotential information in formatted form from Si.psf

Pseudopotential generated from a relativistic atomic calculation

Valence configuration for pseudopotential generation:
3s( 2.00) rc: 1.67
3p( 2.00) rc: 2.04
3d( 0.00) rc: 2.89
4f( 0.00) rc: 2.49
Ground state valence configuration:   2s02  2p04
Reading pseudopotential information in formatted form from O.psf

Pseudopotential generated from a relativistic atomic calculation

Valence configuration for pseudopotential generation:
2s( 2.00) rc: 0.45
2p( 4.00) rc: 0.92
3d( 0.00) rc: 2.24
4f( 0.00) rc: 0.25
For H, standard SIESTA heuristics set lmxkb to 2
 (one more than the basis l, including polarization orbitals).
Use PS.lmax or PS.KBprojectors blocks to override.
For N, standard SIESTA heuristics set lmxkb to 3
 (one more than the basis l, including polarization orbitals).
Use PS.lmax or PS.KBprojectors blocks to override.
For Si, standard SIESTA heuristics set lmxkb to 3
 (one more than the basis l, including polarization orbitals).
Use PS.lmax or PS.KBprojectors blocks to override.
For O, standard SIESTA heuristics set lmxkb to 3
 (one more than the basis l, including polarization orbitals).
Use PS.lmax or PS.KBprojectors blocks to override.

<basis_specs>
===============================================================================
H                    Z=   1    Mass=  1.0100        Charge= 0.17977+309
Lmxo=0 Lmxkb= 2    BasisType=split      Semic=F
L=0  Nsemic=0  Cnfigmx=1
          i=1  nzeta=2  polorb=1  (1s)
            splnorm:   0.62000    
               vcte:    0.0000    
               rinn:    0.0000    
               qcoe:    0.0000    
               qyuk:    0.0000    
               qwid:   0.10000E-01
                rcs:    0.0000      0.0000    
            lambdas:    1.0000      1.0000    
-------------------------------------------------------------------------------
L=0  Nkbl=1  erefs: 0.17977+309
L=1  Nkbl=1  erefs: 0.17977+309
L=2  Nkbl=1  erefs: 0.17977+309
===============================================================================
</basis_specs>

atom: Called for H                     (Z =   1)

read_vps: Pseudopotential generation method:
read_vps: ATM4.2.7  Troullier-Martins                       
Valence charge for ps generation:    1.00000

xc_check: Exchange-correlation functional:
xc_check: GGA Perdew, Burke & Ernzerhof 1996
V l=0 = -2*Zval/r beyond r=  0.0098
V l=1 = -2*Zval/r beyond r=  0.5817
V l=2 = -2*Zval/r beyond r=  1.9372
All V_l potentials equal beyond r=  1.9372
This should be close to max(r_c) in ps generation
All pots = -2*Zval/r beyond r=  1.9372

VLOCAL1: 99.0% of the norm of Vloc inside     11.567 Ry
VLOCAL1: 99.9% of the norm of Vloc inside     26.362 Ry
atom: Maximum radius for 4*pi*r*r*local-pseudopot. charge    2.25106
atom: Maximum radius for r*vlocal+2*Zval:    1.91306
GHOST: No ghost state for L =  0
GHOST: No ghost state for L =  1
GHOST: No ghost state for L =  2

KBgen: Kleinman-Bylander projectors: 
   l= 0   rc=  2.036604   el= -0.477180   Ekb= -6.081590   kbcos= -0.277285
   l= 1   rc=  2.195416   el=  0.001076   Ekb= -0.926943   kbcos= -0.034643
   l= 2   rc=  2.251056   el=  0.002010   Ekb= -0.130941   kbcos= -0.009788

KBgen: Total number of Kleinman-Bylander projectors:    9
atom: -------------------------------------------------------------------------

atom: SANKEY-TYPE ORBITALS:
atom: Selected multiple-zeta basis: split     

SPLIT: Orbitals with angular momentum L= 0

SPLIT: Basis orbitals for state 1s

SPLIT: PAO cut-off radius determined from an
SPLIT: energy shift=  0.002000 Ry

   izeta = 1
                 lambda =    1.000000
                     rc =    6.518340
                 energy =   -0.475305
                kinetic =    0.912139
    potential(screened) =   -1.387444
       potential(ionic) =   -1.907295

   izeta = 2
                 rmatch =    2.141150
              splitnorm =    0.620000
                 energy =    0.566467
                kinetic =    3.772856
    potential(screened) =   -3.206389
       potential(ionic) =   -3.759093

POLgen: Perturbative polarization orbital with L=  1

POLgen: Polarization orbital for state 1s

   izeta = 1
                     rc =    6.518340
                 energy =    0.533861
                kinetic =    1.121086
    potential(screened) =   -0.587225
       potential(ionic) =   -1.053027
atom: Total number of Sankey-type orbitals:  5

atm_pop: Valence configuration (for local Pseudopot. screening):
 1s( 1.00)                                                            
Vna: chval, zval:    1.00000   1.00000

Vna:  Cut-off radius for the neutral-atom potential:   6.518340

atom: _________________________________________________________________________

<basis_specs>
===============================================================================
N                    Z=   7    Mass=  14.010        Charge= 0.17977+309
Lmxo=1 Lmxkb= 3    BasisType=split      Semic=F
L=0  Nsemic=0  Cnfigmx=2
          i=1  nzeta=2  polorb=0  (2s)
            splnorm:   0.28000    
               vcte:    0.0000    
               rinn:    0.0000    
               qcoe:    0.0000    
               qyuk:    0.0000    
               qwid:   0.10000E-01
                rcs:    0.0000      0.0000    
            lambdas:    1.0000      1.0000    
L=1  Nsemic=0  Cnfigmx=2
          i=1  nzeta=2  polorb=1  (2p)
            splnorm:   0.28000    
               vcte:    0.0000    
               rinn:    0.0000    
               qcoe:    0.0000    
               qyuk:    0.0000    
               qwid:   0.10000E-01
                rcs:    0.0000      0.0000    
            lambdas:    1.0000      1.0000    
-------------------------------------------------------------------------------
L=0  Nkbl=1  erefs: 0.17977+309
L=1  Nkbl=1  erefs: 0.17977+309
L=2  Nkbl=1  erefs: 0.17977+309
L=3  Nkbl=1  erefs: 0.17977+309
===============================================================================
</basis_specs>

atom: Called for N                     (Z =   7)

read_vps: Pseudopotential generation method:
read_vps: ATM4.2.7  Troullier-Martins                       
Valence charge for ps generation:    5.00000

xc_check: Exchange-correlation functional:
xc_check: GGA Perdew, Burke & Ernzerhof 1996
V l=0 = -2*Zval/r beyond r=  1.2889
V l=1 = -2*Zval/r beyond r=  1.2889
V l=2 = -2*Zval/r beyond r=  3.4178
V l=3 = -2*Zval/r beyond r=  2.4084
All V_l potentials equal beyond r=  3.3753
This should be close to max(r_c) in ps generation
All pots = -2*Zval/r beyond r=  3.4178

VLOCAL1: 99.0% of the norm of Vloc inside      3.810 Ry
VLOCAL1: 99.9% of the norm of Vloc inside      8.683 Ry
atom: Maximum radius for 4*pi*r*r*local-pseudopot. charge    4.02088
atom: Maximum radius for r*vlocal+2*Zval:    3.54838
GHOST: No ghost state for L =  0
GHOST: No ghost state for L =  1
GHOST: No ghost state for L =  2
GHOST: No ghost state for L =  3

KBgen: Kleinman-Bylander projectors: 
   l= 0   rc=  3.417763   el= -1.365098   Ekb= -4.433130   kbcos= -0.707855
   l= 1   rc=  3.375302   el= -0.521201   Ekb=-13.264039   kbcos= -0.535594
   l= 2   rc=  3.872880   el=  0.001991   Ekb= -0.641094   kbcos= -0.062456
   l= 3   rc=  3.970931   el=  0.003093   Ekb= -0.474517   kbcos= -0.018236

KBgen: Total number of Kleinman-Bylander projectors:   16
atom: -------------------------------------------------------------------------

atom: SANKEY-TYPE ORBITALS:
atom: Selected multiple-zeta basis: split     

SPLIT: Orbitals with angular momentum L= 0

SPLIT: Basis orbitals for state 2s

SPLIT: PAO cut-off radius determined from an
SPLIT: energy shift=  0.002000 Ry

   izeta = 1
                 lambda =    1.000000
                     rc =    4.730425
                 energy =   -1.363399
                kinetic =    1.245246
    potential(screened) =   -2.608645
       potential(ionic) =   -8.121105

   izeta = 2
                 rmatch =    2.531849
              splitnorm =    0.280000
                 energy =   -0.959908
                kinetic =    2.409435
    potential(screened) =   -3.369343
       potential(ionic) =   -9.427975

SPLIT: Orbitals with angular momentum L= 1

SPLIT: Basis orbitals for state 2p

SPLIT: PAO cut-off radius determined from an
SPLIT: energy shift=  0.002000 Ry

   izeta = 1
                 lambda =    1.000000
                     rc =    5.924108
                 energy =   -0.519262
                kinetic =    3.672940
    potential(screened) =   -4.192202
       potential(ionic) =   -9.518354

   izeta = 2
                 rmatch =    2.531849
              splitnorm =    0.280000
                 energy =   -0.104258
                kinetic =    6.807538
    potential(screened) =   -6.911796
       potential(ionic) =  -13.149920

POLgen: Perturbative polarization orbital with L=  2

POLgen: Polarization orbital for state 2p

   izeta = 1
                     rc =    5.924108
                 energy =    1.427508
                kinetic =    2.872379
    potential(screened) =   -1.444871
       potential(ionic) =   -5.563644
atom: Total number of Sankey-type orbitals: 13

atm_pop: Valence configuration (for local Pseudopot. screening):
 2s( 2.00)                                                            
 2p( 3.00)                                                            
Vna: chval, zval:    5.00000   5.00000

Vna:  Cut-off radius for the neutral-atom potential:   5.924108

atom: _________________________________________________________________________

<basis_specs>
===============================================================================
Si                   Z=  14    Mass=  28.090        Charge= 0.17977+309
Lmxo=1 Lmxkb= 3    BasisType=split      Semic=F
L=0  Nsemic=0  Cnfigmx=3
          i=1  nzeta=2  polorb=0  (3s)
            splnorm:   0.28000    
               vcte:    0.0000    
               rinn:    0.0000    
               qcoe:    0.0000    
               qyuk:    0.0000    
               qwid:   0.10000E-01
                rcs:    0.0000      0.0000    
            lambdas:    1.0000      1.0000    
L=1  Nsemic=0  Cnfigmx=3
          i=1  nzeta=2  polorb=1  (3p)
            splnorm:   0.28000    
               vcte:    0.0000    
               rinn:    0.0000    
               qcoe:    0.0000    
               qyuk:    0.0000    
               qwid:   0.10000E-01
                rcs:    0.0000      0.0000    
            lambdas:    1.0000      1.0000    
-------------------------------------------------------------------------------
L=0  Nkbl=1  erefs: 0.17977+309
L=1  Nkbl=1  erefs: 0.17977+309
L=2  Nkbl=1  erefs: 0.17977+309
L=3  Nkbl=1  erefs: 0.17977+309
===============================================================================
</basis_specs>

atom: Called for Si                    (Z =  14)

read_vps: Pseudopotential generation method:
read_vps: ATM4.2.7  Troullier-Martins                       
Valence charge for ps generation:    4.00000

xc_check: Exchange-correlation functional:
xc_check: GGA Perdew, Burke & Ernzerhof 1996
V l=0 = -2*Zval/r beyond r=  2.7826
V l=1 = -2*Zval/r beyond r=  2.7826
V l=2 = -2*Zval/r beyond r=  2.9253
V l=3 = -2*Zval/r beyond r=  2.7826
All V_l potentials equal beyond r=  2.8530
This should be close to max(r_c) in ps generation
All pots = -2*Zval/r beyond r=  2.9253

VLOCAL1: 99.0% of the norm of Vloc inside      5.333 Ry
VLOCAL1: 99.9% of the norm of Vloc inside     12.154 Ry
atom: Maximum radius for 4*pi*r*r*local-pseudopot. charge    3.39869
atom: Maximum radius for r*vlocal+2*Zval:    2.96205
GHOST: No ghost state for L =  0
GHOST: No ghost state for L =  1
GHOST: No ghost state for L =  2
GHOST: No ghost state for L =  3

KBgen: Kleinman-Bylander projectors: 
   l= 0   rc=  3.075247   el= -0.794092   Ekb=  5.879390   kbcos=  0.167461
   l= 1   rc=  3.153101   el= -0.300068   Ekb=  2.642817   kbcos=  0.058301
   l= 2   rc=  3.273594   el=  0.001958   Ekb= -1.185135   kbcos= -0.104411
   l= 3   rc=  3.232927   el=  0.003046   Ekb= -0.497174   kbcos= -0.015889

KBgen: Total number of Kleinman-Bylander projectors:   16
atom: -------------------------------------------------------------------------

atom: SANKEY-TYPE ORBITALS:
atom: Selected multiple-zeta basis: split     

SPLIT: Orbitals with angular momentum L= 0

SPLIT: Basis orbitals for state 3s

SPLIT: PAO cut-off radius determined from an
SPLIT: energy shift=  0.002000 Ry

   izeta = 1
                 lambda =    1.000000
                     rc =    6.429618
                 energy =   -0.792283
                kinetic =    0.525293
    potential(screened) =   -1.317576
       potential(ionic) =   -3.744923

   izeta = 2
                 rmatch =    3.998416
              splitnorm =    0.280000
                 energy =   -0.583081
                kinetic =    1.069570
    potential(screened) =   -1.652651
       potential(ionic) =   -4.235185

SPLIT: Orbitals with angular momentum L= 1

SPLIT: Basis orbitals for state 3p

SPLIT: PAO cut-off radius determined from an
SPLIT: energy shift=  0.002000 Ry

   izeta = 1
                 lambda =    1.000000
                     rc =    8.464845
                 energy =   -0.298236
                kinetic =    0.785360
    potential(screened) =   -1.083596
       potential(ionic) =   -3.273779

   izeta = 2
                 rmatch =    4.587816
              splitnorm =    0.280000
                 energy =   -0.131871
                kinetic =    1.403687
    potential(screened) =   -1.535557
       potential(ionic) =   -4.015310

POLgen: Perturbative polarization orbital with L=  2

POLgen: Polarization orbital for state 3p

   izeta = 1
                     rc =    8.464845
                 energy =    0.321949
                kinetic =    1.055677
    potential(screened) =   -0.733728
       potential(ionic) =   -2.672950
atom: Total number of Sankey-type orbitals: 13

atm_pop: Valence configuration (for local Pseudopot. screening):
 3s( 2.00)                                                            
 3p( 2.00)                                                            
Vna: chval, zval:    4.00000   4.00000

Vna:  Cut-off radius for the neutral-atom potential:   8.464845

atom: _________________________________________________________________________

<basis_specs>
===============================================================================
O                    Z=   8    Mass=  16.000        Charge= 0.17977+309
Lmxo=1 Lmxkb= 3    BasisType=split      Semic=F
L=0  Nsemic=0  Cnfigmx=2
          i=1  nzeta=2  polorb=0  (2s)
            splnorm:   0.28000    
               vcte:    0.0000    
               rinn:    0.0000    
               qcoe:    0.0000    
               qyuk:    0.0000    
               qwid:   0.10000E-01
                rcs:    0.0000      0.0000    
            lambdas:    1.0000      1.0000    
L=1  Nsemic=0  Cnfigmx=2
          i=1  nzeta=2  polorb=1  (2p)
            splnorm:   0.28000    
               vcte:    0.0000    
               rinn:    0.0000    
               qcoe:    0.0000    
               qyuk:    0.0000    
               qwid:   0.10000E-01
                rcs:    0.0000      0.0000    
            lambdas:    1.0000      1.0000    
-------------------------------------------------------------------------------
L=0  Nkbl=1  erefs: 0.17977+309
L=1  Nkbl=1  erefs: 0.17977+309
L=2  Nkbl=1  erefs: 0.17977+309
L=3  Nkbl=1  erefs: 0.17977+309
===============================================================================
</basis_specs>

atom: Called for O                     (Z =   8)

read_vps: Pseudopotential generation method:
read_vps: ATM4.2.7  Troullier-Martins                       
Valence charge for ps generation:    6.00000

xc_check: Exchange-correlation functional:
xc_check: GGA Perdew, Burke & Ernzerhof 1996
V l=0 = -2*Zval/r beyond r=  1.1000
V l=1 = -2*Zval/r beyond r=  1.1000
V l=2 = -2*Zval/r beyond r=  2.2154
V l=3 = -2*Zval/r beyond r=  1.1000
All V_l potentials equal beyond r=  2.2154
This should be close to max(r_c) in ps generation
All pots = -2*Zval/r beyond r=  2.2154

VLOCAL1: 99.0% of the norm of Vloc inside      8.845 Ry
VLOCAL1: 99.9% of the norm of Vloc inside     20.157 Ry
atom: Maximum radius for 4*pi*r*r*local-pseudopot. charge    2.67231
atom: Maximum radius for r*vlocal+2*Zval:    2.32897
GHOST: No ghost state for L =  0
GHOST: No ghost state for L =  1
GHOST: No ghost state for L =  2
GHOST: No ghost state for L =  3

KBgen: Kleinman-Bylander projectors: 
   l= 0   rc=  2.243238   el= -1.759686   Ekb=**********   kbcos= -0.171774
   l= 1   rc=  2.328968   el= -0.663873   Ekb=-14.506792   kbcos= -0.519897
   l= 2   rc=  2.573941   el=  0.002031   Ekb= -1.137373   kbcos= -0.019581
   l= 3   rc=  2.606321   el=  0.003153   Ekb= -1.013546   kbcos= -0.003122

KBgen: Total number of Kleinman-Bylander projectors:   16
atom: -------------------------------------------------------------------------

atom: SANKEY-TYPE ORBITALS:
atom: Selected multiple-zeta basis: split     

SPLIT: Orbitals with angular momentum L= 0

SPLIT: Basis orbitals for state 2s

SPLIT: PAO cut-off radius determined from an
SPLIT: energy shift=  0.002000 Ry

   izeta = 1
                 lambda =    1.000000
                     rc =    4.243912
                 energy =   -1.758270
                kinetic =    3.286084
    potential(screened) =   -5.044353
       potential(ionic) =  -12.921184

   izeta = 2
                 rmatch =    2.187845
              splitnorm =    0.280000
                 energy =   -0.885018
                kinetic =    8.134434
    potential(screened) =   -9.019452
       potential(ionic) =  -17.710645

SPLIT: Orbitals with angular momentum L= 1

SPLIT: Basis orbitals for state 2p

SPLIT: PAO cut-off radius determined from an
SPLIT: energy shift=  0.002000 Ry

   izeta = 1
                 lambda =    1.000000
                     rc =    5.314825
                 energy =   -0.661986
                kinetic =    4.917472
    potential(screened) =   -5.579458
       potential(ionic) =  -13.236259

   izeta = 2
                 rmatch =    2.160663
              splitnorm =    0.280000
                 energy =   -0.068760
                kinetic =    9.183374
    potential(screened) =   -9.252135
       potential(ionic) =  -18.274251

POLgen: Perturbative polarization orbital with L=  2

POLgen: Polarization orbital for state 2p

   izeta = 1
                     rc =    5.314825
                 energy =    1.970580
                kinetic =    3.886128
    potential(screened) =   -1.915547
       potential(ionic) =   -7.749584
atom: Total number of Sankey-type orbitals: 13

atm_pop: Valence configuration (for local Pseudopot. screening):
 2s( 2.00)                                                            
 2p( 4.00)                                                            
Vna: chval, zval:    6.00000   6.00000

Vna:  Cut-off radius for the neutral-atom potential:   5.314825

atom: _________________________________________________________________________

prinput: Basis input ----------------------------------------------------------

PAO.BasisType split     

%block ChemicalSpeciesLabel
    1    1 H                       # Species index, atomic number, species label
    2    7 N                       # Species index, atomic number, species label
    3   14 Si                      # Species index, atomic number, species label
    4    8 O                       # Species index, atomic number, species label
%endblock ChemicalSpeciesLabel

%block PAO.Basis                 # Define Basis set
H                     1                    # Species label, number of l-shells
 n=1   0   2 P   1                   # n, l, Nzeta, Polarization, NzetaPol
   6.518      2.141   
   1.000      1.000   
N                     2                    # Species label, number of l-shells
 n=2   0   2                         # n, l, Nzeta 
   4.730      2.532   
   1.000      1.000   
 n=2   1   2 P   1                   # n, l, Nzeta, Polarization, NzetaPol
   5.924      2.532   
   1.000      1.000   
Si                    2                    # Species label, number of l-shells
 n=3   0   2                         # n, l, Nzeta 
   6.430      3.998   
   1.000      1.000   
 n=3   1   2 P   1                   # n, l, Nzeta, Polarization, NzetaPol
   8.465      4.588   
   1.000      1.000   
O                     2                    # Species label, number of l-shells
 n=2   0   2                         # n, l, Nzeta 
   4.244      2.188   
   1.000      1.000   
 n=2   1   2 P   1                   # n, l, Nzeta, Polarization, NzetaPol
   5.315      2.161   
   1.000      1.000   
%endblock PAO.Basis

prinput: ----------------------------------------------------------------------

Dumping basis to NetCDF file H.ion.nc
Dumping basis to NetCDF file N.ion.nc
Dumping basis to NetCDF file Si.ion.nc
Dumping basis to NetCDF file O.ion.nc
coor:   Atomic-coordinates input format  =     Cartesian coordinates
coor:                                          (in Angstroms)

siesta: Atomic coordinates (Bohr) and species
siesta:      4.31792  -9.81768   0.00000  1        1
siesta:      2.59711  -8.81503   0.00000  2        2
siesta:     -0.41253 -10.38326   0.00000  3        3
siesta:     -0.33040 -13.20006   0.00000  1        4
siesta:     -3.14019  -8.66630   0.00000  2        5
siesta:     -2.06030  -5.43214   0.00000  3        6
siesta:     -2.89201  -1.33728   0.00000  3        7
siesta:     -5.94160  -0.17360   0.00000  2        8
siesta:     -6.43014   1.81127   0.00000  1        9
siesta:     -7.46581  -1.44982   0.00000  1       10
siesta:     -0.33706   0.78140   0.00000  2       11
siesta:      2.82552  -0.08957   0.00000  3       12
siesta:      4.64124   2.09244   0.00000  1       13
siesta:      4.35491  -2.99662   0.00000  2       14
siesta:      2.09241  -5.37836   0.00000  3       15
siesta:      1.17203  13.58414   0.00000  1       16
siesta:     -0.35622  12.27606   0.00000  2       17
siesta:     -3.48672  13.62366   0.00000  3       18
siesta:     -3.30367  16.47852   0.00000  1       19
siesta:     -6.74868  11.08567   0.00000  3       20
siesta:    -11.19796  11.07057   0.00000  3       21
siesta:    -12.26078  12.45856  -2.27113  1       22
siesta:    -11.76452   8.27550  -0.16286  1       23
siesta:    -12.26099  12.13795   2.43425  1       24
siesta:     -4.99239   7.17285   0.00000  3       25
siesta:     -6.78662   4.73787   0.00000  4       26
siesta:     -1.60799   6.84454   0.00000  2       27
siesta:     -0.98251   4.89367   0.00000  1       28
siesta:      0.86464   9.10191   0.00000  3       29
siesta:      3.82383   8.59688   0.00000  4       30

siesta: System type = molecule  

initatomlists: Number of atoms, orbitals, and projectors:     30   302   403

siesta: ******************** Simulation parameters ****************************
siesta:
siesta: The following are some of the parameters of the simulation.
siesta: A complete list of the parameters used, including default values,
siesta: can be found in file out.fdf
siesta:
redata: Spin configuration                          = spin-orbit
redata: Number of spin components                   = 8
redata: Time-Reversal Symmetry                      = F
redata: Spin spiral                                 = F
############################################################
This spin-orbit implementation uses a local approximation.
From 4.2 and onwards the full non-local approximation is implemented
You are strongly advised to use >=4.2 versions!
############################################################
redata: Long output                                 =   F
redata: Number of Atomic Species                    =        4
redata: Charge density info will appear in .RHO file
redata: Write Mulliken Pop.                         = NO
redata: Matel table size (NRTAB)                    =     1024
redata: Mesh Cutoff                                 =   340.0000 Ry
redata: Net charge of the system                    =     0.0000 |e|
redata: Min. number of SCF Iter                     =        1
redata: Max. number of SCF Iter                     =      200
redata: SCF mix quantity                            = Hamiltonian
redata: Mix DM or H after convergence               =   F
redata: Recompute H after scf cycle                 =   F
redata: Mix DM in first SCF step                    =   T
redata: Write Pulay info on disk                    =   F
redata: New DM Occupancy tolerance                  = 0.000000000001
redata: No kicks to SCF
redata: DM Mixing Weight for Kicks                  =     0.5000
redata: Require Harris convergence for SCF          =   F
redata: Harris energy tolerance for SCF             =     0.000100 eV
redata: Require DM convergence for SCF              =   T
redata: DM tolerance for SCF                        =     0.000008
redata: Require EDM convergence for SCF             =   F
redata: EDM tolerance for SCF                       =     0.001000 eV
redata: Require H convergence for SCF               =   T
redata: Hamiltonian tolerance for SCF               =     0.000001 eV
redata: Require (free) Energy convergence for SCF   =   F
redata: (free) Energy tolerance for SCF             =     0.000100 eV
redata: Using Saved Data (generic)                  =   F
redata: Use continuation files for DM               =   T
redata: Neglect nonoverlap interactions             =   F
redata: Method of Calculation                       = Diagonalization
redata: Electronic Temperature                      =   299.9978 K
redata: Fix the spin of the system                  =   F
redata: Dynamics option                             = Verlet MD run
redata: Initial MD time step                        =        1
redata:   Final MD time step                        =        1
redata: Length of MD time step                      =     0.5000 fs
redata: Initial Temperature of MD run               =     0.0000 K
redata: Perform a MD quench                         =   F
mix.SCF: Pulay mixing                            = Pulay
mix.SCF:    Variant                              = stable
mix.SCF:    History steps                        = 6
mix.SCF:    Linear mixing weight                 =     0.250000
mix.SCF:    Mixing weight                        =     0.250000
mix.SCF:    SVD condition                        = 0.1000E-07
mix.SCF:    Restart steps                        = 24
mix.SCF:    Restart save steps                   = 3
mix.SCF: Spin-component mixing                   all
redata: Save all siesta data in one NC              =   F
redata: ***********************************************************************

%block SCF.Mixers
  Pulay
%endblock SCF.Mixers

%block SCF.Mixer.Pulay
  # Mixing method
  method pulay
  variant stable

  # Mixing options
  weight 0.2500
  weight.linear 0.2500
  history 6
  restart 24
  restart.save 3
%endblock SCF.Mixer.Pulay

Size of DM history Fstack: 3
Total number of electrons:    98.000000
Total ionic charge:    98.000000

* ProcessorY, Blocksize:    2  24


* Orbital distribution balance (max,min):    48    24


Time-reversal symmetry not used.

siesta: k-grid: Number of k-points =     1
siesta: k-grid: Cutoff (effective) =     5.000 Ang
siesta: k-grid: Supercell and displacements
siesta: k-grid:    1   0   0      0.000
siesta: k-grid:    0   1   0      0.000
siesta: k-grid:    0   0   1      0.000

diag: Algorithm                                     = ELPA-1stage
diag: Parallel over k                               =   F
diag: Use parallel 2D distribution                  =   T
diag: Parallel block-size                           = 24
diag: Parallel distribution                         =     2 x     4
diag: Used triangular part                          = Lower
diag: Absolute tolerance                            =  0.100E-15
diag: Orthogonalization factor                      =  0.100E-05
diag: Memory factor                                 =  1.0000


ts: **************************************************************
ts: Save H and S matrices                           =    F
ts: Save DM and EDM matrices                        =    F
ts: Only save the overlap matrix S                  =    F
ts: **************************************************************

************************ Begin: TS CHECKS AND WARNINGS ************************
************************ End: TS CHECKS AND WARNINGS **************************


                     ====================================
                        Begin MD step =      1
                     ====================================

outcoor: Atomic coordinates (Ang):                          
    2.28494382   -5.19529124    0.00000000   1       1  H
    1.37433094   -4.66471070    0.00000000   2       2  N
   -0.21830245   -5.49458215    0.00000000   3       3  Si
   -0.17484108   -6.98516892    0.00000000   1       4  H
   -1.66171682   -4.58600741    0.00000000   2       5  N
   -1.09026419   -2.87456374    0.00000000   3       6  Si
   -1.53038332   -0.70765692    0.00000000   3       7  Si
   -3.14415959   -0.09186471    0.00000000   2       8  N
   -3.40268075    0.95848335    0.00000000   1       9  H
   -3.95073599   -0.76720972    0.00000000   1      10  H
   -0.17836637    0.41349951    0.00000000   2      11  N
    1.49520211   -0.04739960    0.00000000   3      12  Si
    2.45603905    1.10727302    0.00000000   1      13  H
    2.30451743   -1.58574382    0.00000000   2      14  N
    1.10725559   -2.84610319    0.00000000   3      15  Si
    0.62020905    7.18841373    0.00000000   1      16  H
   -0.18850163    6.49620785    0.00000000   2      17  N
   -1.84509147    7.20932795    0.00000000   3      18  Si
   -1.74822630    8.72005316    0.00000000   1      19  H
   -3.57124782    5.86627982    0.00000000   3      20  Si
   -5.92570207    5.85829289    0.00000000   3      21  Si
   -6.48812019    6.59278254   -1.20183078   1      22  H
   -6.22551582    4.37920176   -0.08618332   1      23  H
   -6.48823265    6.42312535    1.28814761   1      24  H
   -2.64185718    3.79570859    0.00000000   3      25  Si
   -3.59132554    2.50717246    0.00000000   4      26  O
   -0.85091231    3.62197312    0.00000000   2      27  N
   -0.51992095    2.58961614    0.00000000   1      28  H
    0.45754591    4.81651954    0.00000000   3      29  Si
    2.02348284    4.54927269    0.00000000   4      30  O

outcell: Unit cell vectors (Ang):
       30.000000    0.000000    0.000000
        0.000000   45.000000    0.000000
        0.000000    0.000000   10.000000

outcell: Cell vector modules (Ang)   :   30.000000   45.000000   10.000000
outcell: Cell angles (23,13,12) (deg):     90.0000     90.0000     90.0000
outcell: Cell volume (Ang**3)        :  13500.0000
<dSpData1D:S at geom step 1
  <sparsity:sparsity for geom step 1
    nrows_g=302 nrows=48 sparsity=.1065 nnzs=9714, refcount: 8>
  <dData1D:(new from dSpData1D) n=9714, refcount: 1>
refcount: 1>
new_DM -- step:     1
Initializing Density Matrix...

Attempting to read DM from file... Failed...
DM filled with atomic data:
<dSpData2D:DM initialized from atoms
  <sparsity:sparsity for geom step 1
    nrows_g=302 nrows=48 sparsity=.1065 nnzs=9714, refcount: 9>
  <dData2D:DM n=9714 m=8, refcount: 1>
refcount: 1>
     spin moment: S , {S} =   56.00000   0.00000   0.00000  56.00000
No. of atoms with KB's overlaping orbs in proc 0. Max # of overlaps:      28     195

Initializing spin-orbit part of the Hamiltonian
  Adding spin-orbit effects for H 
  Adding spin-orbit effects for N 
  Adding spin-orbit effects for Si
  Adding spin-orbit effects for O 


New grid distribution:   1
           1       1:  180    1:  125    1:   15
           2       1:  180    1:  125   16:   30
           3       1:  180    1:  125   31:   45
           4       1:  180    1:  125   46:   60
           5       1:  180  126:  250    1:   15
           6       1:  180  126:  250   16:   30
           7       1:  180  126:  250   31:   45
           8       1:  180  126:  250   46:   60

InitMesh: MESH =   360 x   500 x   120 =    21600000
InitMesh: (bp) =   180 x   250 x    60 =     2700000
InitMesh: Mesh cutoff (required, used) =   340.000   341.206 Ry
ExtMesh (bp) on 0 =   288 x   225 x   123 =     7970400
New grid distribution:   2
           1     154:  180   38:  229    1:   60
           2       1:  159    1:   20    1:   60
           3       1:  159   21:   37    1:   60
           4     160:  180   19:   37    1:   60
           5       1:  153   38:  230    1:   60
           6       1:  153  231:  250    1:   60
           7     154:  180  230:  250    1:   60
           8     160:  180    1:   18    1:   60
New grid distribution:   3
           1     147:  180   48:  221    1:   60
           2       1:  141    1:   25    1:   60
           3       1:  141   26:   47    1:   60
           4     142:  180    1:   25    1:   60
           5       1:  146   48:  224    1:   60
           6       1:  146  225:  250    1:   60
           7     147:  180  222:  250    1:   60
           8     142:  180   26:   47    1:   60
Setting up quadratic distribution...
ExtMesh (bp) on 0 =   135 x   292 x   168 =     6622560
PhiOnMesh: Number of (b)points on node 0 =               311040
PhiOnMesh: nlist on node 0 =              1677455

stepf: Fermi-Dirac step function

siesta: Program's energy decomposition (eV):
siesta: Ebs     =      -610.066828
siesta: Eions   =      3553.971015
siesta: Ena     =       374.813622
siesta: Ekin    =      3167.226796
siesta: Enl     =     -2981.565224
siesta: Eso     =        -0.003921
siesta: Edftu   =         0.000000
siesta: DEna    =       130.352264
siesta: DUscf   =        73.270906
siesta: DUext   =         0.000000
siesta: Exc     =     -1168.213349
siesta: eta*DQ  =         0.000000
siesta: Emadel  =         0.000000
siesta: Emeta   =         0.000000
siesta: Emolmec =         0.000000
siesta: Ekinion =         0.000000
siesta: Eharris =     -3889.380227
siesta: Etot    =     -3958.089920
siesta: FreeEng =     -3958.093416

        iscf     Eharris(eV)        E_KS(eV)     FreeEng(eV)     dDmax    Ef(eV) dHmax(eV)
   scf:    1    -3889.380227    -3958.089920    -3958.093416  0.967613 -4.941095 20.024431
     spin moment: S , {S} =    2.02524  -0.00000  -0.00000   2.02524
timer: Routine,Calls,Time,% = IterSCF        1      11.928  32.93
   scf:    2    -3999.572193    -3990.806842    -3990.806845  0.459212 -4.236239 10.450641
     spin moment: S , {S} =    2.00010   0.00000  -0.00000   2.00010
   scf:    3    -3985.813048    -3994.002601    -3994.040463  0.426686 -4.107778  7.815946
     spin moment: S , {S} =    0.68257  -0.00000  -0.00000   0.68257
   scf:    4    -4000.878338    -3998.022975    -3998.022975  0.084576 -3.791209  4.203140
     spin moment: S , {S} =    0.00010  -0.00000   0.00000   0.00010
   scf:    5    -3999.578721    -3998.853330    -3998.853330  0.033813 -3.687221  2.170946
     spin moment: S , {S} =    0.00005  -0.00000   0.00000   0.00005
   scf:    6    -3999.475878    -3999.165586    -3999.165587  0.023492 -3.708839  1.305289
     spin moment: S , {S} =    0.00003  -0.00000   0.00000   0.00003
   scf:    7    -3999.501503    -3999.327519    -3999.327527  0.021603 -3.764365  0.585365
     spin moment: S , {S} =    0.00002  -0.00000   0.00000   0.00002
   scf:    8    -3999.419131    -3999.371704    -3999.371779  0.010695 -3.796251  0.299737
     spin moment: S , {S} =    0.00015  -0.00000   0.00000  -0.00015
   scf:    9    -3999.412000    -3999.390875    -3999.391107  0.007414 -3.810981  0.168833
     spin moment: S , {S} =    0.00061  -0.00000   0.00000  -0.00061
   scf:   10    -3999.416779    -3999.402640    -3999.403150  0.009055 -3.817058  0.080112
     spin moment: S , {S} =    0.00121  -0.00000   0.00000  -0.00121
   scf:   11    -3999.408565    -3999.405439    -3999.405879  0.004158 -3.814065  0.055150
     spin moment: S , {S} =    0.00042  -0.00000  -0.00000  -0.00042
   scf:   12    -3999.410036    -3999.407502    -3999.407991  0.004538 -3.813246  0.039820
     spin moment: S , {S} =    0.00017  -0.00000  -0.00000  -0.00017
   scf:   13    -3999.409122    -3999.408238    -3999.408711  0.002923 -3.812325  0.030406
     spin moment: S , {S} =    0.00005  -0.00000  -0.00000  -0.00005
   scf:   14    -3999.409354    -3999.408696    -3999.409159  0.003514 -3.812008  0.012840
     spin moment: S , {S} =    0.00002  -0.00000  -0.00000  -0.00002
   scf:   15    -3999.408870    -3999.408770    -3999.409230  0.001422 -3.812052  0.008005
     spin moment: S , {S} =    0.00000  -0.00000  -0.00000  -0.00000
   scf:   16    -3999.408815    -3999.408790    -3999.409249  0.000646 -3.812133  0.005855
     spin moment: S , {S} =    0.00000  -0.00000  -0.00000  -0.00000
   scf:   17    -3999.408820    -3999.408803    -3999.409261  0.000599 -3.812168  0.003589
     spin moment: S , {S} =    0.00000  -0.00000  -0.00000  -0.00000
   scf:   18    -3999.408818    -3999.408810    -3999.409266  0.000478 -3.812197  0.001410
     spin moment: S , {S} =    0.00001  -0.00000  -0.00000  -0.00001
   scf:   19    -3999.408812    -3999.408810    -3999.409267  0.000159 -3.812183  0.000856
     spin moment: S , {S} =    0.00001  -0.00000  -0.00000  -0.00001
   scf:   20    -3999.408811    -3999.408811    -3999.409268  0.000111 -3.812178  0.000433
     spin moment: S , {S} =    0.00000  -0.00000  -0.00000  -0.00000
   scf:   21    -3999.408810    -3999.408810    -3999.409268  0.000061 -3.812173  0.000245
     spin moment: S , {S} =    0.00000  -0.00000  -0.00000  -0.00000
   scf:   22    -3999.408810    -3999.408810    -3999.409268  0.000035 -3.812173  0.000218
     spin moment: S , {S} =    0.00000  -0.00000  -0.00000  -0.00000
   scf:   23    -3999.408810    -3999.408810    -3999.409268  0.000013 -3.812173  0.000159
     spin moment: S , {S} =    0.00000  -0.00000  -0.00000  -0.00000
   scf:   24    -3999.408810    -3999.408810    -3999.409268  0.000016 -3.812173  0.000075
     spin moment: S , {S} =    0.00000  -0.00000  -0.00000  -0.00000
mix: Pulay -- resetting history
   scf:   25    -3999.408810    -3999.408810    -3999.409268  0.000007 -3.812173  0.000043
     spin moment: S , {S} =    0.00000   0.00000  -0.00000  -0.00000
   scf:   26    -3999.408810    -3999.408810    -3999.409268  0.000004 -3.812173  0.000022
     spin moment: S , {S} =    0.00000   0.00000  -0.00000  -0.00000
   scf:   27    -3999.408810    -3999.408810    -3999.409268  0.000003 -3.812174  0.000010
     spin moment: S , {S} =    0.00000   0.00000  -0.00000  -0.00000
   scf:   28    -3999.408810    -3999.408810    -3999.409268  0.000001 -3.812174  0.000006
     spin moment: S , {S} =    0.00000   0.00000  -0.00000  -0.00000
   scf:   29    -3999.408810    -3999.408810    -3999.409268  0.000000 -3.812174  0.000004
     spin moment: S , {S} =    0.00000  -0.00000  -0.00000  -0.00000
   scf:   30    -3999.408810    -3999.408810    -3999.409268  0.000000 -3.812174  0.000002
     spin moment: S , {S} =    0.00000   0.00000  -0.00000  -0.00000
   scf:   31    -3999.408810    -3999.408810    -3999.409268  0.000000 -3.812174  0.000001
     spin moment: S , {S} =    0.00000   0.00000  -0.00000  -0.00000

SCF Convergence by DM+H criterion
max |DM_out - DM_in|         :     0.0000001722
max |H_out - H_in|      (eV) :     0.0000009374
SCF cycle converged after 31 iterations

Using DM_out to compute the final energy and forces
No. of atoms with KB's overlaping orbs in proc 0. Max # of overlaps:      28     195

siesta: E_KS(eV) =            -3999.4088

siesta: E_KS - E_eggbox =     -3999.4088
     spin moment: S , {S} =    0.00000   0.00000  -0.00000  -0.00000

siesta: Atomic forces (eV/Ang):
     1    0.142064   -0.042647   -0.000001
     2    0.000559    0.022110   -0.000005
     3   -0.001622   -0.014517   -0.000000
     4    0.066063   -0.133929    0.000001
     5    0.032683    0.027501   -0.000005
     6    0.001988   -0.003490   -0.000003
     7   -0.033202   -0.046339   -0.000024
     8    0.022527   -0.182005    0.000087
     9    0.021361    0.109365   -0.000088
    10   -0.004327   -0.089811   -0.000019
    11   -0.000062    0.053083    0.000009
    12    0.026382   -0.008375   -0.000000
    13   -0.142106   -0.021671    0.000002
    14   -0.010471    0.022689   -0.000004
    15    0.002961   -0.021652    0.000021
    16   -0.110179   -0.015612   -0.000940
    17   -0.020221    0.034910   -0.000793
    18    0.039797    0.002154    0.005396
    19    0.003806    0.015393   -0.001509
    20   -0.009915   -0.012512   -0.001235
    21    0.052805    0.008045   -0.005739
    22    0.048626   -0.037931    0.126261
    23   -0.008561    0.092612   -0.012593
    24    0.047323    0.019083   -0.095251
    25    0.069199    0.022352    0.000953
    26    1.162496    3.071683    0.000352
    27   -0.079701    0.074778   -0.000538
    28    0.045791   -0.059463   -0.000095
    29    0.007012   -0.025539   -0.000155
    30   -3.366533    1.089589    0.000211
----------------------------------------
   Tot   -1.993455    3.949856    0.014294
----------------------------------------
   Max    3.366533
   Res    0.511205    sqrt( Sum f_i^2 / 3N )
----------------------------------------
   Max    3.366533    constrained

Stress tensor Voigt[x,y,z,yz,xz,xy] (kbar):        0.16       -0.09       -0.01       -0.01        0.00        0.13
(Free)E + p*V (eV/cell)    -3999.5603
Target enthalpy (eV/cell)    -3999.4093

siesta: Stress tensor (static) (eV/Ang**3):
         0.000097    0.000079    0.000000
         0.000079   -0.000057   -0.000004
         0.000000   -0.000004   -0.000007

siesta: Pressure (static):         -0.01792797  kBar

siesta: Stress tensor (total) (eV/Ang**3):
         0.000097    0.000079    0.000000
         0.000079   -0.000057   -0.000004
         0.000000   -0.000004   -0.000007

siesta: Pressure (total):         -0.01792797  kBar

siesta: Temp_ion =       0.000 K

siesta: Eigenvalues (eV):
ik =     1
  -23.0332  -23.0332  -22.7903  -22.7903  -21.7427  -21.7427  -21.1545  -21.1545  -20.8536  -20.8536
  -20.0964  -20.0964  -19.3175  -19.3175  -19.0774  -19.0774  -18.5799  -18.5799  -15.1519  -15.1519
  -14.2105  -14.2105  -13.5062  -13.5062  -13.4494  -13.4494  -13.2027  -13.2027  -12.7103  -12.7103
  -12.2568  -12.2568  -11.9378  -11.9378  -11.7774  -11.7774  -11.4195  -11.4195  -11.3180  -11.3180
  -10.7204  -10.7204  -10.6498  -10.6498  -10.0318  -10.0318   -9.6308   -9.6308   -9.4290   -9.4290
   -9.2707   -9.2707   -9.0132   -9.0132   -8.9323   -8.9323   -8.6700   -8.6700   -8.6604   -8.6604
   -8.4419   -8.4419   -8.2013   -8.2013   -8.1082   -8.1082   -8.1042   -8.1042   -7.9693   -7.9693
   -7.6711   -7.6711   -7.4405   -7.4405   -7.2326   -7.2326   -7.1960   -7.1960   -6.8890   -6.8890
   -6.8718   -6.8718   -6.6605   -6.6605   -6.5284   -6.5284   -6.2101   -6.2101   -6.1461   -6.1461
   -5.8501   -5.8501   -5.6011   -5.6011   -5.4505   -5.4505   -4.0078   -4.0078   -3.6165   -3.6165
   -2.8029   -2.8029   -2.3349   -2.3349   -2.2468   -2.2468   -2.0909   -2.0909   -1.9893   -1.9893
   -1.8150   -1.8150   -1.6850   -1.6850   -1.6174   -1.6174   -1.3875   -1.3875   -1.2417   -1.2417
   -1.1637   -1.1637   -0.3023   -0.3023   -0.2585   -0.2585   -0.1623   -0.1623   -0.1088   -0.1088
   -0.0660   -0.0660   -0.0317   -0.0317    0.1605    0.1605    0.6124    0.6124    0.7169    0.7169
    0.7499    0.7499    1.0192    1.0192    1.3339    1.3339    1.4495    1.4495    1.4876    1.4876
    1.5985    1.5985    1.7712    1.7712    2.0234    2.0234    2.3153    2.3153    2.3956    2.3956
    2.5370    2.5370    2.6743    2.6743    3.0079    3.0079    3.1215    3.1215    3.1661    3.1661
    3.2429    3.2429    3.2736    3.2736    3.2861    3.2861    3.4745    3.4745    3.6273    3.6273
    4.0855    4.0855    4.1650    4.1650    4.2956    4.2956    4.5215    4.5215    4.6234    4.6234
    4.6680    4.6680    4.8998    4.8998    4.9660    4.9660    5.0806    5.0806    5.2401    5.2401
    5.3635    5.3635    5.6179    5.6179    5.6829    5.6829    5.8845    5.8845    5.9868    5.9868
    6.1821    6.1821    6.3235    6.3235    6.3477    6.3477    6.5799    6.5799    6.7113    6.7113
    6.8887    6.8887    6.9367    6.9367    7.1157    7.1157    7.4156    7.4156    7.4483    7.4483
    7.6919    7.6919    7.7633    7.7633    7.8189    7.8189    7.9637    7.9637    8.1357    8.1357
    8.5043    8.5043    8.5778    8.5778    8.5923    8.5923    8.8138    8.8138    8.9437    8.9437
    9.1809    9.1809    9.3068    9.3068    9.3427    9.3427    9.5594    9.5594    9.6841    9.6841
    9.8316    9.8316   10.0436   10.0436   10.0791   10.0791   10.0957   10.0957   10.3209   10.3209
   10.7887   10.7887   11.0238   11.0238   11.1820   11.1820   11.3200   11.3200   11.4719   11.4719
   11.5292   11.5292   11.5688   11.5688   11.9306   11.9306   11.9471   11.9471   12.1023   12.1023
   12.3971   12.3971   12.4816   12.4816   12.5753   12.5753   12.9382   12.9382   13.1004   13.1004
   13.2561   13.2561   13.3137   13.3137   13.6815   13.6815   13.7797   13.7797   14.1669   14.1669
   14.2011   14.2011   14.5582   14.5582   14.6900   14.6900   15.0558   15.0558   15.2599   15.2599
   15.3301   15.3301   15.8266   15.8266   15.8801   15.8801   16.1026   16.1026   16.4553   16.4553
   17.0136   17.0136   17.2068   17.2068   17.2643   17.2643   17.4437   17.4437   17.9164   17.9164
   18.1566   18.1566   18.8107   18.8107   18.8856   18.8856   18.9173   18.9173   19.0007   19.0007
   19.1462   19.1462   19.4335   19.4335   19.9187   19.9187   20.1888   20.1888   20.7498   20.7498
   21.0099   21.0099   21.5767   21.5767   21.9008   21.9008   22.4322   22.4322   22.5774   22.5774
   22.8531   22.8531   23.2384   23.2384   23.3438   23.3438   23.6664   23.6664   24.6955   24.6955
   24.8812   24.8812   25.1014   25.1014   25.4500   25.4500   25.8201   25.8201   26.4395   26.4395
   26.8191   26.8191   26.8665   26.8665   27.1341   27.1341   28.0415   28.0415   28.8318   28.8318
   28.9531   28.9531   29.7875   29.7875   30.4954   30.4954   31.0067   31.0067   31.0518   31.0518
   31.3784   31.3784   31.4380   31.4380   31.5144   31.5144   31.6231   31.6231   32.2969   32.2969
   32.8829   32.8829   33.2387   33.2387   33.5625   33.5625   34.2576   34.2576   34.4088   34.4088
   34.7248   34.7248   35.3294   35.3294   36.2473   36.2473   36.4569   36.4569   37.0018   37.0018
   37.3615   37.3615   37.5659   37.5659   37.6363   37.6363   38.5297   38.5297   38.7339   38.7339
   39.3055   39.3055   39.5945   39.5945   40.4712   40.4712   40.6053   40.6053   40.8007   40.8007
   41.5136   41.5136   41.7935   41.7935   42.0094   42.0094   43.1207   43.1207   43.3172   43.3172
   43.7083   43.7083   43.9843   43.9843   44.0959   44.0959   44.8014   44.8014   44.9157   44.9157
   45.0354   45.0354   45.5653   45.5653   46.2089   46.2089   46.6864   46.6864   47.0621   47.0621
   47.2173   47.2173   47.7303   47.7303   48.2604   48.2604   48.4885   48.4885   48.9906   48.9906
   49.2399   49.2399   49.4534   49.4534   50.1960   50.1960   50.2551   50.2551   50.6265   50.6265
   50.9484   50.9484   51.2010   51.2010   51.7324   51.7324   52.9286   52.9286   53.0573   53.0573
   54.0244   54.0244   54.3523   54.3523   55.2828   55.2828   55.5193   55.5193   56.1010   56.1010
   56.8221   56.8221   57.0869   57.0869   57.7920   57.7920   58.7516   58.7516   59.2091   59.2091
   59.2561   59.2561   60.7497   60.7497   61.6113   61.6113   61.8470   61.8470   62.0821   62.0821
   63.0178   63.0178   63.5723   63.5723   64.2264   64.2264   65.2081   65.2081   66.3819   66.3819
   67.4320   67.4320   68.1616   68.1616   68.7832   68.7832   69.2497   69.2497   72.1338   72.1338
   72.3056   72.3056   73.1555   73.1555   84.1212   84.1212   88.8986   88.8986   91.5186   91.5186
   93.6740   93.6740   96.0962   96.0962   96.7803   96.7803   99.3984   99.3984  100.6782  100.6782
  103.0031  103.0031  104.4358  104.4358  118.9748  118.9748  122.2846  122.2846  124.5976  124.5976
  138.6335  138.6335  148.1870  148.1870
siesta: Fermi energy =      -3.812174 eV

siesta: Program's energy decomposition (eV):
siesta: Ebs     =     -1106.349029
siesta: Eions   =      3553.971015
siesta: Ena     =       374.813622
siesta: Ekin    =      2747.174642
siesta: Enl     =     -2526.286558
siesta: Eso     =        -0.004707
siesta: Edftu   =         0.000000
siesta: DEna    =        37.482419
siesta: DUscf   =        13.629295
siesta: DUext   =         0.000000
siesta: Exc     =     -1092.246509
siesta: eta*DQ  =         0.000000
siesta: Emadel  =         0.000000
siesta: Emeta   =         0.000000
siesta: Emolmec =         0.000000
siesta: Ekinion =         0.000000
siesta: Eharris =     -3999.408810
siesta: Etot    =     -3999.408810
siesta: FreeEng =     -3999.409268

siesta: Final energy (eV):
siesta:  Band Struct. =   -1106.349029
siesta:       Kinetic =    2747.174642
siesta:       Hartree =   14930.116492
siesta:       Edftu   =       0.000000
siesta:       Eso     =      -0.004707
siesta:    Ext. field =       0.000000
siesta:   Exch.-corr. =   -1092.246509
siesta:  Ion-electron =  -32296.112402
siesta:       Ion-ion =   11711.663674
siesta:       Ekinion =       0.000000
siesta:         Total =   -3999.408810
siesta:         Fermi =      -3.812174

siesta: Atomic forces (eV/Ang):
siesta:      1    0.142064   -0.042647   -0.000001
siesta:      2    0.000559    0.022110   -0.000005
siesta:      3   -0.001622   -0.014517   -0.000000
siesta:      4    0.066063   -0.133929    0.000001
siesta:      5    0.032683    0.027501   -0.000005
siesta:      6    0.001988   -0.003490   -0.000003
siesta:      7   -0.033202   -0.046339   -0.000024
siesta:      8    0.022527   -0.182005    0.000087
siesta:      9    0.021361    0.109365   -0.000088
siesta:     10   -0.004327   -0.089811   -0.000019
siesta:     11   -0.000062    0.053083    0.000009
siesta:     12    0.026382   -0.008375   -0.000000
siesta:     13   -0.142106   -0.021671    0.000002
siesta:     14   -0.010471    0.022689   -0.000004
siesta:     15    0.002961   -0.021652    0.000021
siesta:     16   -0.110179   -0.015612   -0.000940
siesta:     17   -0.020221    0.034910   -0.000793
siesta:     18    0.039797    0.002154    0.005396
siesta:     19    0.003806    0.015393   -0.001509
siesta:     20   -0.009915   -0.012512   -0.001235
siesta:     21    0.052805    0.008045   -0.005739
siesta:     22    0.048626   -0.037931    0.126261
siesta:     23   -0.008561    0.092612   -0.012593
siesta:     24    0.047323    0.019083   -0.095251
siesta:     25    0.069199    0.022352    0.000953
siesta:     26    1.162496    3.071683    0.000352
siesta:     27   -0.079701    0.074778   -0.000538
siesta:     28    0.045791   -0.059463   -0.000095
siesta:     29    0.007012   -0.025539   -0.000155
siesta:     30   -3.366533    1.089589    0.000211
siesta: ----------------------------------------
siesta:    Tot   -1.993455    3.949856    0.014294

siesta: Stress tensor (static) (eV/Ang**3):
siesta:     0.000097    0.000079    0.000000
siesta:     0.000079   -0.000057   -0.000004
siesta:     0.000000   -0.000004   -0.000007

siesta: Cell volume =      13500.000000 Ang**3

siesta: Pressure (static):
siesta:                Solid            Molecule  Units
siesta:          -0.00000012          0.00000176  Ry/Bohr**3
siesta:          -0.00001119          0.00016125  eV/Ang**3
siesta:          -0.01792797          0.25834792  kBar
(Free)E+ p_basis*V_orbitals  =       -3978.281183
(Free)Eharris+ p_basis*V_orbitals  =       -3978.281183
     spin moment: S , {S} =    0.00000   0.00000  -0.00000  -0.00000

siesta: Electric dipole (a.u.)  =   -1.184234    2.027054   -0.001746
siesta: Electric dipole (Debye) =   -3.010024    5.152260   -0.004438

cite: Please see "AT.bib" for an exhaustive BiBTeX file.
cite: Please clearly indicate Siesta version in published work: v4.1.5-1-g384057250
cite: This calculation has made use of the following articles
cite: which are encouraged to be cited in a published work.
        Primary SIESTA paper
          DOI: www.doi.org/10.1088/0953-8984/14/11/302
        Spin-orbit coupling (on-site approximation)
          DOI: www.doi.org/10.1088/0953-8984/19/19/489001


WARNING: alloc-realloc-dealloc name mismatch
         Name: atomlist isa
         Size:              -120. Bytes
         Node:     0
         Subsequent mismatches will not be reported
>> End of run:   1-FEB-2024  18:16:11
Job completed
