Siesta Version  : v4.1.5-1-g384057250
Architecture    : gcc
Compiler version: GNU Fortran (Ubuntu 11.3.0-1ubuntu1~22.04) 11.3.0
Compiler flags  : mpifort -O2 -fPIC -ftree-vectorize -fallow-argument-mismatch
PP flags        : -DFC_HAVE_ABORT -DMPI -DSIESTA__FLOOK -DSIESTA__METIS -DSIESTA__MUMPS -DCDF -DNCDF -DNCDF_4 -DNCDF_PARALLEL -DSIESTA__MRRR -DSIESTA__ELPA
Libraries       : libncdf.a libfdict.a  -lflookall -ldl -lnetcdff -lnetcdf -lhdf5_hl -lhdf5 -lhdf5_fortran -lz -lscalapack-openmpi -lopenblas -lmetis -lzmumps -lcmumps -ldmumps -lmumps_common -lpord -lsmumps -lesmumps -lscotch -lscotcherr -fopenmp -lelpa
PARALLEL version
NetCDF support
NetCDF-4 support
NetCDF-4 MPI-IO support
METIS ordering support
Lua support

* Running on 4 nodes in parallel
>> Start of run:  28-JUN-2023  17:21:38

                           ***********************       
                           *  WELCOME TO SIESTA  *       
                           ***********************       

reinit: Reading from standard input
reinit: Dumped input in INPUT_TMP.38819
************************** Dump of input data file ****************************
SystemLabel      GC
NumberOfAtoms    29
NumberOfSpecies  4
%block ChemicalSpeciesLabel
    1    8  O
    2    7  N
    3   14  Si
    4    1  H
%endblock ChemicalSpeciesLabel
# Single point calculation
MD.TypeOfRun                CG
MD.Steps                    0
SCF.MustConverge            F # In case it does not. There can be 2 very close atoms
AtomicCoordinatesFormat NotScaledCartesianAng
%block AtomicCoordinatesAndAtomicSpecies
1.043624880    3.939228610    0.000000000       1
-3.040641290   1.071078170    0.000000000       2
2.054601450    1.213582070    0.000000000       2
0.999014100    -1.732643800   0.000000000       2
-2.132351640   -1.812968220   0.000000000       2
3.860190550    -1.112298180   0.000000000       2
-1.236183220   1.152964460    0.000000000       3
-0.532924260   -0.939006270   0.000000000       3
0.635660470    2.374516770    0.000000000       3
2.245170240    -0.549967100   0.000000000       3
-3.449816660   -0.583665030   0.000000000       3
2.963714090    1.790992630    0.000000000       4
-4.845591350   -1.123549660   0.000000000       4
4.007020910    -2.152308560   0.000000000       4
4.772194380    -0.502318160   0.000000000       4
-2.265399090   -2.864605110   0.000000000       4
4.555153056    4.637134279    0.000000000       3
6.460037026    5.843773219    0.000000000       3
5.964282886    1.870799309    0.000000000       3
8.041753176    4.340016469    0.000000000       3
4.614775726    2.919706709    0.000000000       2
3.016017996    5.390811589    0.000000000       2
7.616578146    2.600636529    0.000000000       2
6.651381826    7.335926969    0.000000000       4
9.526121156    4.558747289    0.000000000       4
2.904672716    6.440006699    0.000000000       4
2.083460286    4.765897409    0.000000000       4
5.954056056    0.262688189    0.000000000       1
8.392004026    1.873944969    0.000000000       4
%endblock AtomicCoordinatesAndAtomicSpecies
%include ../../../Defaults.fdf
************************** End of input data file *****************************

reinit: -----------------------------------------------------------------------
reinit: System Name: 
reinit: -----------------------------------------------------------------------
reinit: System Label: GC
reinit: -----------------------------------------------------------------------

initatom: Reading input for the pseudopotentials and atomic orbitals ----------
Species number:   1 Atomic number:    8 Label: O
Species number:   2 Atomic number:    7 Label: N
Species number:   3 Atomic number:   14 Label: Si
Species number:   4 Atomic number:    1 Label: H

Ground state valence configuration:   2s02  2p04
Reading pseudopotential information in formatted form from O.psf

Pseudopotential generated from a relativistic atomic calculation

Valence configuration for pseudopotential generation:
2s( 2.00) rc: 0.45
2p( 4.00) rc: 0.92
3d( 0.00) rc: 2.24
4f( 0.00) rc: 0.25
Ground state valence configuration:   2s02  2p03
Reading pseudopotential information in formatted form from N.psf

Pseudopotential generated from a relativistic atomic calculation

Valence configuration for pseudopotential generation:
2s( 2.00) rc: 0.94
2p( 3.00) rc: 0.59
3d( 0.00) rc: 3.46
4f( 0.00) rc: 2.47
Ground state valence configuration:   3s02  3p02
Reading pseudopotential information in formatted form from Si.psf

Pseudopotential generated from a relativistic atomic calculation

Valence configuration for pseudopotential generation:
3s( 2.00) rc: 1.67
3p( 2.00) rc: 2.04
3d( 0.00) rc: 2.89
4f( 0.00) rc: 2.49
Ground state valence configuration:   1s01
Reading pseudopotential information in formatted form from H.psf

Pseudopotential generated from a relativistic atomic calculation

Valence configuration for pseudopotential generation:
1s( 1.00) rc: 0.01
2p( 0.00) rc: 0.60
3d( 0.00) rc: 1.99
4f( 0.00) rc: 2.49
For O, standard SIESTA heuristics set lmxkb to 3
 (one more than the basis l, including polarization orbitals).
Use PS.lmax or PS.KBprojectors blocks to override.
For N, standard SIESTA heuristics set lmxkb to 3
 (one more than the basis l, including polarization orbitals).
Use PS.lmax or PS.KBprojectors blocks to override.
For Si, standard SIESTA heuristics set lmxkb to 3
 (one more than the basis l, including polarization orbitals).
Use PS.lmax or PS.KBprojectors blocks to override.
For H, standard SIESTA heuristics set lmxkb to 2
 (one more than the basis l, including polarization orbitals).
Use PS.lmax or PS.KBprojectors blocks to override.

<basis_specs>
===============================================================================
O                    Z=   8    Mass=  16.000        Charge= 0.17977+309
Lmxo=1 Lmxkb= 3    BasisType=split      Semic=F
L=0  Nsemic=0  Cnfigmx=2
          i=1  nzeta=2  polorb=0  (2s)
            splnorm:   0.28000    
               vcte:    0.0000    
               rinn:    0.0000    
               qcoe:    0.0000    
               qyuk:    0.0000    
               qwid:   0.10000E-01
                rcs:    0.0000      0.0000    
            lambdas:    1.0000      1.0000    
L=1  Nsemic=0  Cnfigmx=2
          i=1  nzeta=2  polorb=1  (2p)
            splnorm:   0.28000    
               vcte:    0.0000    
               rinn:    0.0000    
               qcoe:    0.0000    
               qyuk:    0.0000    
               qwid:   0.10000E-01
                rcs:    0.0000      0.0000    
            lambdas:    1.0000      1.0000    
-------------------------------------------------------------------------------
L=0  Nkbl=1  erefs: 0.17977+309
L=1  Nkbl=1  erefs: 0.17977+309
L=2  Nkbl=1  erefs: 0.17977+309
L=3  Nkbl=1  erefs: 0.17977+309
===============================================================================
</basis_specs>

atom: Called for O                     (Z =   8)

read_vps: Pseudopotential generation method:
read_vps: ATM4.2.7  Troullier-Martins                       
Valence charge for ps generation:    6.00000

xc_check: Exchange-correlation functional:
xc_check: GGA Perdew, Burke & Ernzerhof 1996
V l=0 = -2*Zval/r beyond r=  1.1000
V l=1 = -2*Zval/r beyond r=  1.1000
V l=2 = -2*Zval/r beyond r=  2.2154
V l=3 = -2*Zval/r beyond r=  1.1000
All V_l potentials equal beyond r=  2.2154
This should be close to max(r_c) in ps generation
All pots = -2*Zval/r beyond r=  2.2154

VLOCAL1: 99.0% of the norm of Vloc inside      8.845 Ry
VLOCAL1: 99.9% of the norm of Vloc inside     20.157 Ry
atom: Maximum radius for 4*pi*r*r*local-pseudopot. charge    2.67231
atom: Maximum radius for r*vlocal+2*Zval:    2.32897
GHOST: No ghost state for L =  0
GHOST: No ghost state for L =  1
GHOST: No ghost state for L =  2
GHOST: No ghost state for L =  3

KBgen: Kleinman-Bylander projectors: 
   l= 0   rc=  2.243238   el= -1.759686   Ekb=**********   kbcos= -0.171774
   l= 1   rc=  2.328968   el= -0.663873   Ekb=-14.506792   kbcos= -0.519897
   l= 2   rc=  2.573941   el=  0.002031   Ekb= -1.137373   kbcos= -0.019581
   l= 3   rc=  2.606321   el=  0.003153   Ekb= -1.013546   kbcos= -0.003122

KBgen: Total number of Kleinman-Bylander projectors:   16
atom: -------------------------------------------------------------------------

atom: SANKEY-TYPE ORBITALS:
atom: Selected multiple-zeta basis: split     

SPLIT: Orbitals with angular momentum L= 0

SPLIT: Basis orbitals for state 2s

SPLIT: PAO cut-off radius determined from an
SPLIT: energy shift=  0.002000 Ry

   izeta = 1
                 lambda =    1.000000
                     rc =    4.243912
                 energy =   -1.758270
                kinetic =    3.286084
    potential(screened) =   -5.044353
       potential(ionic) =  -12.921184

   izeta = 2
                 rmatch =    2.187845
              splitnorm =    0.280000
                 energy =   -0.885018
                kinetic =    8.134434
    potential(screened) =   -9.019452
       potential(ionic) =  -17.710645

SPLIT: Orbitals with angular momentum L= 1

SPLIT: Basis orbitals for state 2p

SPLIT: PAO cut-off radius determined from an
SPLIT: energy shift=  0.002000 Ry

   izeta = 1
                 lambda =    1.000000
                     rc =    5.314825
                 energy =   -0.661986
                kinetic =    4.917472
    potential(screened) =   -5.579458
       potential(ionic) =  -13.236259

   izeta = 2
                 rmatch =    2.160663
              splitnorm =    0.280000
                 energy =   -0.068760
                kinetic =    9.183374
    potential(screened) =   -9.252135
       potential(ionic) =  -18.274251

POLgen: Perturbative polarization orbital with L=  2

POLgen: Polarization orbital for state 2p

   izeta = 1
                     rc =    5.314825
                 energy =    1.970580
                kinetic =    3.886128
    potential(screened) =   -1.915547
       potential(ionic) =   -7.749584
atom: Total number of Sankey-type orbitals: 13

atm_pop: Valence configuration (for local Pseudopot. screening):
 2s( 2.00)                                                            
 2p( 4.00)                                                            
Vna: chval, zval:    6.00000   6.00000

Vna:  Cut-off radius for the neutral-atom potential:   5.314825

atom: _________________________________________________________________________

<basis_specs>
===============================================================================
N                    Z=   7    Mass=  14.010        Charge= 0.17977+309
Lmxo=1 Lmxkb= 3    BasisType=split      Semic=F
L=0  Nsemic=0  Cnfigmx=2
          i=1  nzeta=2  polorb=0  (2s)
            splnorm:   0.28000    
               vcte:    0.0000    
               rinn:    0.0000    
               qcoe:    0.0000    
               qyuk:    0.0000    
               qwid:   0.10000E-01
                rcs:    0.0000      0.0000    
            lambdas:    1.0000      1.0000    
L=1  Nsemic=0  Cnfigmx=2
          i=1  nzeta=2  polorb=1  (2p)
            splnorm:   0.28000    
               vcte:    0.0000    
               rinn:    0.0000    
               qcoe:    0.0000    
               qyuk:    0.0000    
               qwid:   0.10000E-01
                rcs:    0.0000      0.0000    
            lambdas:    1.0000      1.0000    
-------------------------------------------------------------------------------
L=0  Nkbl=1  erefs: 0.17977+309
L=1  Nkbl=1  erefs: 0.17977+309
L=2  Nkbl=1  erefs: 0.17977+309
L=3  Nkbl=1  erefs: 0.17977+309
===============================================================================
</basis_specs>

atom: Called for N                     (Z =   7)

read_vps: Pseudopotential generation method:
read_vps: ATM4.2.7  Troullier-Martins                       
Valence charge for ps generation:    5.00000

xc_check: Exchange-correlation functional:
xc_check: GGA Perdew, Burke & Ernzerhof 1996
V l=0 = -2*Zval/r beyond r=  1.2889
V l=1 = -2*Zval/r beyond r=  1.2889
V l=2 = -2*Zval/r beyond r=  3.4178
V l=3 = -2*Zval/r beyond r=  2.4084
All V_l potentials equal beyond r=  3.3753
This should be close to max(r_c) in ps generation
All pots = -2*Zval/r beyond r=  3.4178

VLOCAL1: 99.0% of the norm of Vloc inside      3.810 Ry
VLOCAL1: 99.9% of the norm of Vloc inside      8.683 Ry
atom: Maximum radius for 4*pi*r*r*local-pseudopot. charge    4.02088
atom: Maximum radius for r*vlocal+2*Zval:    3.54838
GHOST: No ghost state for L =  0
GHOST: No ghost state for L =  1
GHOST: No ghost state for L =  2
GHOST: No ghost state for L =  3

KBgen: Kleinman-Bylander projectors: 
   l= 0   rc=  3.417763   el= -1.365098   Ekb= -4.433130   kbcos= -0.707855
   l= 1   rc=  3.375302   el= -0.521201   Ekb=-13.264039   kbcos= -0.535594
   l= 2   rc=  3.872880   el=  0.001991   Ekb= -0.641094   kbcos= -0.062456
   l= 3   rc=  3.970931   el=  0.003093   Ekb= -0.474517   kbcos= -0.018236

KBgen: Total number of Kleinman-Bylander projectors:   16
atom: -------------------------------------------------------------------------

atom: SANKEY-TYPE ORBITALS:
atom: Selected multiple-zeta basis: split     

SPLIT: Orbitals with angular momentum L= 0

SPLIT: Basis orbitals for state 2s

SPLIT: PAO cut-off radius determined from an
SPLIT: energy shift=  0.002000 Ry

   izeta = 1
                 lambda =    1.000000
                     rc =    4.730425
                 energy =   -1.363399
                kinetic =    1.245246
    potential(screened) =   -2.608645
       potential(ionic) =   -8.121105

   izeta = 2
                 rmatch =    2.531849
              splitnorm =    0.280000
                 energy =   -0.959908
                kinetic =    2.409435
    potential(screened) =   -3.369343
       potential(ionic) =   -9.427975

SPLIT: Orbitals with angular momentum L= 1

SPLIT: Basis orbitals for state 2p

SPLIT: PAO cut-off radius determined from an
SPLIT: energy shift=  0.002000 Ry

   izeta = 1
                 lambda =    1.000000
                     rc =    5.924108
                 energy =   -0.519262
                kinetic =    3.672940
    potential(screened) =   -4.192202
       potential(ionic) =   -9.518354

   izeta = 2
                 rmatch =    2.531849
              splitnorm =    0.280000
                 energy =   -0.104258
                kinetic =    6.807538
    potential(screened) =   -6.911796
       potential(ionic) =  -13.149920

POLgen: Perturbative polarization orbital with L=  2

POLgen: Polarization orbital for state 2p

   izeta = 1
                     rc =    5.924108
                 energy =    1.427508
                kinetic =    2.872379
    potential(screened) =   -1.444871
       potential(ionic) =   -5.563644
atom: Total number of Sankey-type orbitals: 13

atm_pop: Valence configuration (for local Pseudopot. screening):
 2s( 2.00)                                                            
 2p( 3.00)                                                            
Vna: chval, zval:    5.00000   5.00000

Vna:  Cut-off radius for the neutral-atom potential:   5.924108

atom: _________________________________________________________________________

<basis_specs>
===============================================================================
Si                   Z=  14    Mass=  28.090        Charge= 0.17977+309
Lmxo=1 Lmxkb= 3    BasisType=split      Semic=F
L=0  Nsemic=0  Cnfigmx=3
          i=1  nzeta=2  polorb=0  (3s)
            splnorm:   0.28000    
               vcte:    0.0000    
               rinn:    0.0000    
               qcoe:    0.0000    
               qyuk:    0.0000    
               qwid:   0.10000E-01
                rcs:    0.0000      0.0000    
            lambdas:    1.0000      1.0000    
L=1  Nsemic=0  Cnfigmx=3
          i=1  nzeta=2  polorb=1  (3p)
            splnorm:   0.28000    
               vcte:    0.0000    
               rinn:    0.0000    
               qcoe:    0.0000    
               qyuk:    0.0000    
               qwid:   0.10000E-01
                rcs:    0.0000      0.0000    
            lambdas:    1.0000      1.0000    
-------------------------------------------------------------------------------
L=0  Nkbl=1  erefs: 0.17977+309
L=1  Nkbl=1  erefs: 0.17977+309
L=2  Nkbl=1  erefs: 0.17977+309
L=3  Nkbl=1  erefs: 0.17977+309
===============================================================================
</basis_specs>

atom: Called for Si                    (Z =  14)

read_vps: Pseudopotential generation method:
read_vps: ATM4.2.7  Troullier-Martins                       
Valence charge for ps generation:    4.00000

xc_check: Exchange-correlation functional:
xc_check: GGA Perdew, Burke & Ernzerhof 1996
V l=0 = -2*Zval/r beyond r=  2.7826
V l=1 = -2*Zval/r beyond r=  2.7826
V l=2 = -2*Zval/r beyond r=  2.9253
V l=3 = -2*Zval/r beyond r=  2.7826
All V_l potentials equal beyond r=  2.8530
This should be close to max(r_c) in ps generation
All pots = -2*Zval/r beyond r=  2.9253

VLOCAL1: 99.0% of the norm of Vloc inside      5.333 Ry
VLOCAL1: 99.9% of the norm of Vloc inside     12.154 Ry
atom: Maximum radius for 4*pi*r*r*local-pseudopot. charge    3.39869
atom: Maximum radius for r*vlocal+2*Zval:    2.96205
GHOST: No ghost state for L =  0
GHOST: No ghost state for L =  1
GHOST: No ghost state for L =  2
GHOST: No ghost state for L =  3

KBgen: Kleinman-Bylander projectors: 
   l= 0   rc=  3.075247   el= -0.794092   Ekb=  5.879390   kbcos=  0.167461
   l= 1   rc=  3.153101   el= -0.300068   Ekb=  2.642817   kbcos=  0.058301
   l= 2   rc=  3.273594   el=  0.001958   Ekb= -1.185135   kbcos= -0.104411
   l= 3   rc=  3.232927   el=  0.003046   Ekb= -0.497174   kbcos= -0.015889

KBgen: Total number of Kleinman-Bylander projectors:   16
atom: -------------------------------------------------------------------------

atom: SANKEY-TYPE ORBITALS:
atom: Selected multiple-zeta basis: split     

SPLIT: Orbitals with angular momentum L= 0

SPLIT: Basis orbitals for state 3s

SPLIT: PAO cut-off radius determined from an
SPLIT: energy shift=  0.002000 Ry

   izeta = 1
                 lambda =    1.000000
                     rc =    6.429618
                 energy =   -0.792283
                kinetic =    0.525293
    potential(screened) =   -1.317576
       potential(ionic) =   -3.744923

   izeta = 2
                 rmatch =    3.998416
              splitnorm =    0.280000
                 energy =   -0.583081
                kinetic =    1.069570
    potential(screened) =   -1.652651
       potential(ionic) =   -4.235185

SPLIT: Orbitals with angular momentum L= 1

SPLIT: Basis orbitals for state 3p

SPLIT: PAO cut-off radius determined from an
SPLIT: energy shift=  0.002000 Ry

   izeta = 1
                 lambda =    1.000000
                     rc =    8.464845
                 energy =   -0.298236
                kinetic =    0.785360
    potential(screened) =   -1.083596
       potential(ionic) =   -3.273779

   izeta = 2
                 rmatch =    4.587816
              splitnorm =    0.280000
                 energy =   -0.131871
                kinetic =    1.403687
    potential(screened) =   -1.535557
       potential(ionic) =   -4.015310

POLgen: Perturbative polarization orbital with L=  2

POLgen: Polarization orbital for state 3p

   izeta = 1
                     rc =    8.464845
                 energy =    0.321949
                kinetic =    1.055677
    potential(screened) =   -0.733728
       potential(ionic) =   -2.672950
atom: Total number of Sankey-type orbitals: 13

atm_pop: Valence configuration (for local Pseudopot. screening):
 3s( 2.00)                                                            
 3p( 2.00)                                                            
Vna: chval, zval:    4.00000   4.00000

Vna:  Cut-off radius for the neutral-atom potential:   8.464845

atom: _________________________________________________________________________

<basis_specs>
===============================================================================
H                    Z=   1    Mass=  1.0100        Charge= 0.17977+309
Lmxo=0 Lmxkb= 2    BasisType=split      Semic=F
L=0  Nsemic=0  Cnfigmx=1
          i=1  nzeta=2  polorb=1  (1s)
            splnorm:   0.62000    
               vcte:    0.0000    
               rinn:    0.0000    
               qcoe:    0.0000    
               qyuk:    0.0000    
               qwid:   0.10000E-01
                rcs:    0.0000      0.0000    
            lambdas:    1.0000      1.0000    
-------------------------------------------------------------------------------
L=0  Nkbl=1  erefs: 0.17977+309
L=1  Nkbl=1  erefs: 0.17977+309
L=2  Nkbl=1  erefs: 0.17977+309
===============================================================================
</basis_specs>

atom: Called for H                     (Z =   1)

read_vps: Pseudopotential generation method:
read_vps: ATM4.2.7  Troullier-Martins                       
Valence charge for ps generation:    1.00000

xc_check: Exchange-correlation functional:
xc_check: GGA Perdew, Burke & Ernzerhof 1996
V l=0 = -2*Zval/r beyond r=  0.0098
V l=1 = -2*Zval/r beyond r=  0.5817
V l=2 = -2*Zval/r beyond r=  1.9372
All V_l potentials equal beyond r=  1.9372
This should be close to max(r_c) in ps generation
All pots = -2*Zval/r beyond r=  1.9372

VLOCAL1: 99.0% of the norm of Vloc inside     11.567 Ry
VLOCAL1: 99.9% of the norm of Vloc inside     26.362 Ry
atom: Maximum radius for 4*pi*r*r*local-pseudopot. charge    2.25106
atom: Maximum radius for r*vlocal+2*Zval:    1.91306
GHOST: No ghost state for L =  0
GHOST: No ghost state for L =  1
GHOST: No ghost state for L =  2

KBgen: Kleinman-Bylander projectors: 
   l= 0   rc=  2.036604   el= -0.477180   Ekb= -6.081590   kbcos= -0.277285
   l= 1   rc=  2.195416   el=  0.001076   Ekb= -0.926943   kbcos= -0.034643
   l= 2   rc=  2.251056   el=  0.002010   Ekb= -0.130941   kbcos= -0.009788

KBgen: Total number of Kleinman-Bylander projectors:    9
atom: -------------------------------------------------------------------------

atom: SANKEY-TYPE ORBITALS:
atom: Selected multiple-zeta basis: split     

SPLIT: Orbitals with angular momentum L= 0

SPLIT: Basis orbitals for state 1s

SPLIT: PAO cut-off radius determined from an
SPLIT: energy shift=  0.002000 Ry

   izeta = 1
                 lambda =    1.000000
                     rc =    6.518340
                 energy =   -0.475305
                kinetic =    0.912139
    potential(screened) =   -1.387444
       potential(ionic) =   -1.907295

   izeta = 2
                 rmatch =    2.141150
              splitnorm =    0.620000
                 energy =    0.566467
                kinetic =    3.772856
    potential(screened) =   -3.206389
       potential(ionic) =   -3.759093

POLgen: Perturbative polarization orbital with L=  1

POLgen: Polarization orbital for state 1s

   izeta = 1
                     rc =    6.518340
                 energy =    0.533861
                kinetic =    1.121086
    potential(screened) =   -0.587225
       potential(ionic) =   -1.053027
atom: Total number of Sankey-type orbitals:  5

atm_pop: Valence configuration (for local Pseudopot. screening):
 1s( 1.00)                                                            
Vna: chval, zval:    1.00000   1.00000

Vna:  Cut-off radius for the neutral-atom potential:   6.518340

atom: _________________________________________________________________________

prinput: Basis input ----------------------------------------------------------

PAO.BasisType split     

%block ChemicalSpeciesLabel
    1    8 O                       # Species index, atomic number, species label
    2    7 N                       # Species index, atomic number, species label
    3   14 Si                      # Species index, atomic number, species label
    4    1 H                       # Species index, atomic number, species label
%endblock ChemicalSpeciesLabel

%block PAO.Basis                 # Define Basis set
O                     2                    # Species label, number of l-shells
 n=2   0   2                         # n, l, Nzeta 
   4.244      2.188   
   1.000      1.000   
 n=2   1   2 P   1                   # n, l, Nzeta, Polarization, NzetaPol
   5.315      2.161   
   1.000      1.000   
N                     2                    # Species label, number of l-shells
 n=2   0   2                         # n, l, Nzeta 
   4.730      2.532   
   1.000      1.000   
 n=2   1   2 P   1                   # n, l, Nzeta, Polarization, NzetaPol
   5.924      2.532   
   1.000      1.000   
Si                    2                    # Species label, number of l-shells
 n=3   0   2                         # n, l, Nzeta 
   6.430      3.998   
   1.000      1.000   
 n=3   1   2 P   1                   # n, l, Nzeta, Polarization, NzetaPol
   8.465      4.588   
   1.000      1.000   
H                     1                    # Species label, number of l-shells
 n=1   0   2 P   1                   # n, l, Nzeta, Polarization, NzetaPol
   6.518      2.141   
   1.000      1.000   
%endblock PAO.Basis

prinput: ----------------------------------------------------------------------

Dumping basis to NetCDF file O.ion.nc
Dumping basis to NetCDF file N.ion.nc
Dumping basis to NetCDF file Si.ion.nc
Dumping basis to NetCDF file H.ion.nc
coor:   Atomic-coordinates input format  =     Cartesian coordinates
coor:                                          (in Angstroms)

siesta: Atomic coordinates (Bohr) and species
siesta:      1.97217   7.44407   0.00000  1        1
siesta:     -5.74598   2.02405   0.00000  2        2
siesta:      3.88264   2.29334   0.00000  2        3
siesta:      1.88786  -3.27422   0.00000  2        4
siesta:     -4.02956  -3.42601   0.00000  2        5
siesta:      7.29471  -2.10194   0.00000  2        6
siesta:     -2.33605   2.17879   0.00000  3        7
siesta:     -1.00708  -1.77447   0.00000  3        8
siesta:      1.20122   4.48719   0.00000  3        9
siesta:      4.24276  -1.03929   0.00000  3       10
siesta:     -6.51921  -1.10297   0.00000  3       11
siesta:      5.60061   3.38449   0.00000  4       12
siesta:     -9.15684  -2.12320   0.00000  4       13
siesta:      7.57218  -4.06728   0.00000  4       14
siesta:      9.01814  -0.94924   0.00000  4       15
siesta:     -4.28099  -5.41332   0.00000  4       16
siesta:      8.60800   8.76292   0.00000  3       17
siesta:     12.20771  11.04314   0.00000  3       18
siesta:     11.27087   3.53530   0.00000  3       19
siesta:     15.19672   8.20145   0.00000  3       20
siesta:      8.72067   5.51745   0.00000  2       21
siesta:      5.69945  10.18716   0.00000  2       22
siesta:     14.39325   4.91449   0.00000  2       23
siesta:     12.56930  13.86290   0.00000  4       24
siesta:     18.00177   8.61479   0.00000  4       25
siesta:      5.48904  12.16985   0.00000  4       26
siesta:      3.93717   9.00624   0.00000  4       27
siesta:     11.25154   0.49641   0.00000  1       28
siesta:     15.85860   3.54124   0.00000  4       29

siesta: Automatic unit cell vectors (Ang):
siesta:   23.397467    0.000000    0.000000
siesta:    0.000000   18.809168    0.000000
siesta:    0.000000    0.000000    9.854683

siesta: System type = molecule  

initatomlists: Number of atoms, orbitals, and projectors:     29   297   394

siesta: ******************** Simulation parameters ****************************
siesta:
siesta: The following are some of the parameters of the simulation.
siesta: A complete list of the parameters used, including default values,
siesta: can be found in file out.fdf
siesta:
redata: Spin configuration                          = spin-orbit
redata: Number of spin components                   = 8
redata: Time-Reversal Symmetry                      = F
redata: Spin spiral                                 = F
############################################################
This spin-orbit implementation uses a local approximation.
From 4.2 and onwards the full non-local approximation is implemented
You are strongly advised to use >=4.2 versions!
############################################################
redata: Long output                                 =   F
redata: Number of Atomic Species                    =        4
redata: Charge density info will appear in .RHO file
redata: Write Mulliken Pop.                         = Atomic and Orbital charges
redata: Matel table size (NRTAB)                    =     1024
redata: Mesh Cutoff                                 =   340.0000 Ry
redata: Net charge of the system                    =     0.0000 |e|
redata: Min. number of SCF Iter                     =        1
redata: Max. number of SCF Iter                     =      200
redata: SCF mix quantity                            = Hamiltonian
redata: Mix DM or H after convergence               =   F
redata: Recompute H after scf cycle                 =   F
redata: Mix DM in first SCF step                    =   T
redata: Write Pulay info on disk                    =   F
redata: New DM Occupancy tolerance                  = 0.000000000001
redata: No kicks to SCF
redata: DM Mixing Weight for Kicks                  =     0.5000
redata: Require Harris convergence for SCF          =   F
redata: Harris energy tolerance for SCF             =     0.000100 eV
redata: Require DM convergence for SCF              =   T
redata: DM tolerance for SCF                        =     0.000008
redata: Require EDM convergence for SCF             =   F
redata: EDM tolerance for SCF                       =     0.001000 eV
redata: Require H convergence for SCF               =   T
redata: Hamiltonian tolerance for SCF               =     0.000001 eV
redata: Require (free) Energy convergence for SCF   =   F
redata: (free) Energy tolerance for SCF             =     0.000100 eV
redata: Using Saved Data (generic)                  =   F
redata: Use continuation files for DM               =   F
redata: Neglect nonoverlap interactions             =   F
redata: Method of Calculation                       = Diagonalization
redata: Electronic Temperature                      =   299.9978 K
redata: Fix the spin of the system                  =   F
redata: Dynamics option                             = Single-point calculation
mix.SCF: Pulay mixing                            = Pulay
mix.SCF:    Variant                              = stable
mix.SCF:    History steps                        = 6
mix.SCF:    Linear mixing weight                 =     0.250000
mix.SCF:    Mixing weight                        =     0.250000
mix.SCF:    SVD condition                        = 0.1000E-07
mix.SCF:    Restart steps                        = 24
mix.SCF:    Restart save steps                   = 3
mix.SCF: Spin-component mixing                   all
redata: Save all siesta data in one NC              =   F
redata: ***********************************************************************

%block SCF.Mixers
  Pulay
%endblock SCF.Mixers

%block SCF.Mixer.Pulay
  # Mixing method
  method pulay
  variant stable

  # Mixing options
  weight 0.2500
  weight.linear 0.2500
  history 6
  restart 24
  restart.save 3
%endblock SCF.Mixer.Pulay

DM_history_depth set to one: no extrapolation allowed by default for geometry relaxation
Size of DM history Fstack: 1
Total number of electrons:    98.000000
Total ionic charge:    98.000000

* ProcessorY, Blocksize:    2  24


* Orbital distribution balance (max,min):    81    72


Time-reversal symmetry not used.

siesta: k-grid: Number of k-points =     1
siesta: k-grid: Cutoff (effective) =     4.927 Ang
siesta: k-grid: Supercell and displacements
siesta: k-grid:    1   0   0      0.000
siesta: k-grid:    0   1   0      0.000
siesta: k-grid:    0   0   1      0.000

diag: Algorithm                                     = ELPA-1stage
diag: Parallel over k                               =   F
diag: Use parallel 2D distribution                  =   T
diag: Parallel block-size                           = 24
diag: Parallel distribution                         =     2 x     2
diag: Used triangular part                          = Lower
diag: Absolute tolerance                            =  0.100E-15
diag: Orthogonalization factor                      =  0.100E-05
diag: Memory factor                                 =  1.0000


ts: **************************************************************
ts: Save H and S matrices                           =    F
ts: Save DM and EDM matrices                        =    F
ts: Only save the overlap matrix S                  =    F
ts: **************************************************************

************************ Begin: TS CHECKS AND WARNINGS ************************
************************ End: TS CHECKS AND WARNINGS **************************


                     ====================================
                        Single-point calculation
                     ====================================

outcoor: Atomic coordinates (Ang):                          
    1.04362488    3.93922861    0.00000000   1       1  O
   -3.04064129    1.07107817    0.00000000   2       2  N
    2.05460145    1.21358207    0.00000000   2       3  N
    0.99901410   -1.73264380    0.00000000   2       4  N
   -2.13235164   -1.81296822    0.00000000   2       5  N
    3.86019055   -1.11229818    0.00000000   2       6  N
   -1.23618322    1.15296446    0.00000000   3       7  Si
   -0.53292426   -0.93900627    0.00000000   3       8  Si
    0.63566047    2.37451677    0.00000000   3       9  Si
    2.24517024   -0.54996710    0.00000000   3      10  Si
   -3.44981666   -0.58366503    0.00000000   3      11  Si
    2.96371409    1.79099263    0.00000000   4      12  H
   -4.84559135   -1.12354966    0.00000000   4      13  H
    4.00702091   -2.15230856    0.00000000   4      14  H
    4.77219438   -0.50231816    0.00000000   4      15  H
   -2.26539909   -2.86460511    0.00000000   4      16  H
    4.55515306    4.63713428    0.00000000   3      17  Si
    6.46003703    5.84377322    0.00000000   3      18  Si
    5.96428289    1.87079931    0.00000000   3      19  Si
    8.04175318    4.34001647    0.00000000   3      20  Si
    4.61477573    2.91970671    0.00000000   2      21  N
    3.01601800    5.39081159    0.00000000   2      22  N
    7.61657815    2.60063653    0.00000000   2      23  N
    6.65138183    7.33592697    0.00000000   4      24  H
    9.52612116    4.55874729    0.00000000   4      25  H
    2.90467272    6.44000670    0.00000000   4      26  H
    2.08346029    4.76589741    0.00000000   4      27  H
    5.95405606    0.26268819    0.00000000   1      28  O
    8.39200403    1.87394497    0.00000000   4      29  H

outcell: Unit cell vectors (Ang):
       23.397467    0.000000    0.000000
        0.000000   18.809168    0.000000
        0.000000    0.000000    9.854683

outcell: Cell vector modules (Ang)   :   23.397467   18.809168    9.854683
outcell: Cell angles (23,13,12) (deg):     90.0000     90.0000     90.0000
outcell: Cell volume (Ang**3)        :   4336.9168
<dSpData1D:S at geom step 0
  <sparsity:sparsity for geom step 0
    nrows_g=297 nrows=81 sparsity=.2385 nnzs=21040, refcount: 8>
  <dData1D:(new from dSpData1D) n=21040, refcount: 1>
refcount: 1>
new_DM -- step:     1
Initializing Density Matrix...
DM filled with atomic data:
<dSpData2D:DM initialized from atoms
  <sparsity:sparsity for geom step 0
    nrows_g=297 nrows=81 sparsity=.2385 nnzs=21040, refcount: 9>
  <dData2D:DM n=21040 m=8, refcount: 1>
refcount: 1>
     spin moment: S , {S} =   56.00000   0.00000   0.00000  56.00000
No. of atoms with KB's overlaping orbs in proc 0. Max # of overlaps:      29     214

Initializing spin-orbit part of the Hamiltonian
  Adding spin-orbit effects for O 
  Adding spin-orbit effects for N 
  Adding spin-orbit effects for Si
  Adding spin-orbit effects for H 


New grid distribution:   1
           1       1:  135    1:   54    1:   30
           2       1:  135    1:   54   31:   60
           3       1:  135   55:  108    1:   30
           4       1:  135   55:  108   31:   60

InitMesh: MESH =   270 x   216 x   120 =     6998400
InitMesh: (bp) =   135 x   108 x    60 =      874800
InitMesh: Mesh cutoff (required, used) =   340.000   364.477 Ry
ExtMesh (bp) on 0 =   239 x   158 x   142 =     5362204
New grid distribution:   2
           1      32:  135    1:   24    1:   60
           2       1:   31    1:   22    1:   60
           3      32:  135   25:  108    1:   60
           4       1:   31   23:  108    1:   60
New grid distribution:   3
           1      44:  135    1:   31    1:   60
           2       1:   43    1:   37    1:   60
           3      44:  135   32:  108    1:   60
           4       1:   43   38:  108    1:   60
Setting up quadratic distribution...
ExtMesh (bp) on 0 =   208 x   128 x   172 =     4579328
PhiOnMesh: Number of (b)points on node 0 =               149760
PhiOnMesh: nlist on node 0 =              2645701

stepf: Fermi-Dirac step function

siesta: Program's energy decomposition (eV):
siesta: Ebs     =      -610.071911
siesta: Eions   =      3585.165840
siesta: Ena     =       382.117949
siesta: Ekin    =      3369.778004
siesta: Enl     =     -3299.702298
siesta: Eso     =        -0.003460
siesta: Edftu   =         0.000000
siesta: DEna    =       155.928286
siesta: DUscf   =        78.213831
siesta: DUext   =         0.000000
siesta: Exc     =     -1205.354386
siesta: eta*DQ  =         0.000000
siesta: Emadel  =         0.000000
siesta: Emeta   =         0.000000
siesta: Emolmec =         0.000000
siesta: Ekinion =         0.000000
siesta: Eharris =     -4025.412924
siesta: Etot    =     -4104.187914
siesta: FreeEng =     -4104.189391

        iscf     Eharris(eV)        E_KS(eV)     FreeEng(eV)     dDmax    Ef(eV) dHmax(eV)
   scf:    1    -4025.412924    -4104.187914    -4104.189391  0.952330 -4.907728 19.509514
     spin moment: S , {S} =    2.00697   0.00000   0.00000   2.00697
timer: Routine,Calls,Time,% = IterSCF        1      12.016  16.41
   scf:    2    -4150.901348    -4138.653948    -4138.655766  0.472797 -4.186941 11.084999
     spin moment: S , {S} =    1.98925  -0.00000  -0.00000   1.98925
   scf:    3    -4112.652825    -4135.960132    -4135.985152  0.432932 -4.244904 11.283486
     spin moment: S , {S} =    2.00011   0.00000  -0.00000   2.00011
   scf:    4    -4151.298097    -4146.426472    -4146.426474  0.296296 -3.873778  5.820404
     spin moment: S , {S} =    0.00010   0.00000   0.00000   0.00010
   scf:    5    -4147.608825    -4147.113020    -4147.113020  0.037536 -3.677640  4.492177
     spin moment: S , {S} =    0.00006   0.00000  -0.00000   0.00006
   scf:    6    -4147.935645    -4147.527165    -4147.527165  0.026796 -3.680487  2.156621
     spin moment: S , {S} =    0.00003  -0.00000   0.00000   0.00003
   scf:    7    -4147.886271    -4147.708715    -4147.708715  0.020892 -3.642684  0.821372
     spin moment: S , {S} =    0.00001   0.00000   0.00000   0.00001
   scf:    8    -4147.827369    -4147.766606    -4147.766606  0.012536 -3.734053  0.425015
     spin moment: S , {S} =    0.00000   0.00000   0.00000   0.00000
   scf:    9    -4147.803930    -4147.784772    -4147.784772  0.007025 -3.776481  0.280944
     spin moment: S , {S} =    0.00000  -0.00000  -0.00000   0.00000
   scf:   10    -4147.828212    -4147.803824    -4147.803824  0.014499 -3.792454  0.130441
     spin moment: S , {S} =    0.00000   0.00000  -0.00000  -0.00000
   scf:   11    -4147.808322    -4147.805919    -4147.805919  0.005141 -3.785761  0.056730
     spin moment: S , {S} =    0.00000  -0.00000  -0.00000   0.00000
   scf:   12    -4147.807276    -4147.806571    -4147.806571  0.002705 -3.781503  0.034051
     spin moment: S , {S} =    0.00000   0.00000  -0.00000   0.00000
   scf:   13    -4147.807384    -4147.806952    -4147.806952  0.002205 -3.780216  0.029237
     spin moment: S , {S} =    0.00000  -0.00000  -0.00000   0.00000
   scf:   14    -4147.807801    -4147.807320    -4147.807320  0.003305 -3.779282  0.017345
     spin moment: S , {S} =    0.00000   0.00000  -0.00000   0.00000
   scf:   15    -4147.807708    -4147.807476    -4147.807476  0.002795 -3.779590  0.008827
     spin moment: S , {S} =    0.00000   0.00000  -0.00000   0.00000
   scf:   16    -4147.807548    -4147.807505    -4147.807505  0.001230 -3.779899  0.005173
     spin moment: S , {S} =    0.00000   0.00000  -0.00000   0.00000
   scf:   17    -4147.807522    -4147.807512    -4147.807512  0.000565 -3.780169  0.002958
     spin moment: S , {S} =    0.00000   0.00000  -0.00000  -0.00000
   scf:   18    -4147.807519    -4147.807515    -4147.807515  0.000316 -3.780242  0.001549
     spin moment: S , {S} =    0.00000   0.00000  -0.00000  -0.00000
   scf:   19    -4147.807519    -4147.807517    -4147.807517  0.000216 -3.780233  0.000750
     spin moment: S , {S} =    0.00000   0.00000  -0.00000  -0.00000
   scf:   20    -4147.807518    -4147.807517    -4147.807517  0.000091 -3.780160  0.000429
     spin moment: S , {S} =    0.00000   0.00000  -0.00000  -0.00000
   scf:   21    -4147.807518    -4147.807517    -4147.807517  0.000104 -3.780107  0.000242
     spin moment: S , {S} =    0.00000   0.00000  -0.00000  -0.00000
   scf:   22    -4147.807517    -4147.807517    -4147.807517  0.000015 -3.780086  0.000113
     spin moment: S , {S} =    0.00000   0.00000  -0.00000  -0.00000
   scf:   23    -4147.807517    -4147.807517    -4147.807517  0.000012 -3.780081  0.000058
     spin moment: S , {S} =    0.00000   0.00000  -0.00000  -0.00000
   scf:   24    -4147.807517    -4147.807517    -4147.807517  0.000010 -3.780077  0.000025
     spin moment: S , {S} =    0.00000   0.00000  -0.00000  -0.00000
mix: Pulay -- resetting history
   scf:   25    -4147.807517    -4147.807517    -4147.807517  0.000003 -3.780077  0.000017
     spin moment: S , {S} =    0.00000   0.00000  -0.00000  -0.00000
   scf:   26    -4147.807517    -4147.807517    -4147.807517  0.000001 -3.780077  0.000012
     spin moment: S , {S} =    0.00000   0.00000  -0.00000  -0.00000
   scf:   27    -4147.807517    -4147.807517    -4147.807517  0.000001 -3.780077  0.000006
     spin moment: S , {S} =    0.00000   0.00000  -0.00000  -0.00000
   scf:   28    -4147.807517    -4147.807517    -4147.807517  0.000000 -3.780078  0.000002
     spin moment: S , {S} =    0.00000   0.00000   0.00000  -0.00000
   scf:   29    -4147.807517    -4147.807517    -4147.807517  0.000000 -3.780078  0.000002
     spin moment: S , {S} =    0.00000   0.00000  -0.00000  -0.00000
   scf:   30    -4147.807517    -4147.807517    -4147.807517  0.000000 -3.780077  0.000001
     spin moment: S , {S} =    0.00000   0.00000  -0.00000   0.00000

SCF Convergence by DM+H criterion
max |DM_out - DM_in|         :     0.0000002497
max |H_out - H_in|      (eV) :     0.0000007561
SCF cycle converged after 30 iterations

Using DM_out to compute the final energy and forces
No. of atoms with KB's overlaping orbs in proc 0. Max # of overlaps:      29     214

siesta: E_KS(eV) =            -4147.8075

siesta: E_KS - E_eggbox =     -4147.8075
     spin moment: S , {S} =    0.00000   0.00000  -0.00000   0.00000

siesta: Atomic forces (eV/Ang):
     1   -2.025871   -3.117848   -0.000000
     2   -0.053796    0.033875    0.000000
     3   -0.276624    0.004655    0.000000
     4   -0.183181    0.006425   -0.000000
     5   -0.016812    0.045164    0.000000
     6   -0.973116   -0.484505   -0.000000
     7   -0.007731    0.063809   -0.000000
     8    0.084333   -0.072193    0.000000
     9   -0.021072   -0.341303    0.000000
    10    0.174941   -0.127201    0.000000
    11    0.001378    0.002640    0.000000
    12    0.203213    0.041706   -0.000000
    13   -0.077989   -0.097658   -0.000000
    14   -0.130146   -0.235305    0.000000
    15    0.107758    0.045657    0.000000
    16    0.074336    0.069820   -0.000000
    17   -0.176661    0.318768   -0.000000
    18    0.043169   -0.055047   -0.000000
    19    0.113529    0.295573    0.000000
    20    0.012311    0.099270    0.000000
    21    0.147576   -0.159026    0.000000
    22    1.152374    0.677503    0.000000
    23   -0.123810   -0.176677   -0.000000
    24    0.126907   -0.124143    0.000000
    25    0.111921   -0.144718    0.000000
    26    0.137260   -0.015037   -0.000000
    27   -0.261247   -0.129812    0.000000
    28    3.003052    0.757891   -0.000000
    29   -0.001143    0.133287    0.000000
----------------------------------------
   Tot    1.164857   -2.684431    0.000000
----------------------------------------
   Max    3.117848
   Res    0.560857    sqrt( Sum f_i^2 / 3N )
----------------------------------------
   Max    3.117848    constrained

Stress tensor Voigt[x,y,z,yz,xz,xy] (kbar):       -2.30       -0.19       -0.11       -0.00        0.00       -1.36
(Free)E + p*V (eV/cell)    -4145.4543
Target enthalpy (eV/cell)    -4147.8075

mulliken: Atomic and Orbital Populations:

Species: O                   

Atom      Orb        Charge      Spin       Svec
----------------------------------------------------------------
    1  1 2s         1.69610   0.00000      0.000   0.000   0.000
    1  2 2s         0.07273   0.00000     -0.000   0.000   0.000
    1  3 2py        1.33748   0.00000      0.000   0.000  -0.000
    1  4 2pz        1.64163   0.00000     -0.000   0.000   0.000
    1  5 2px        1.62778   0.00000     -0.000   0.000  -0.000
    1  6 2py        0.09815   0.00000     -0.000  -0.000   0.000
    1  7 2pz       -0.01936   0.00000     -0.000  -0.000   0.000
    1  8 2px        0.00557   0.00000      0.000  -0.000   0.000
    1  9 3Pdxy      0.01039   0.00000     -0.000  -0.000  -0.000
    1 10 3Pdyz      0.00685   0.00000     -0.000   0.000   0.000
    1 11 3Pdz2      0.00253   0.00000      0.000   0.000   0.000
    1 12 3Pdxz      0.00016   0.00000      0.000  -0.000  -0.000
    1 13 3Pdx2-y2   0.00524   0.00000     -0.000   0.000  -0.000
    1     Total     6.48526   0.00000      0.000   0.000   0.000

   28  1 2s         1.71990   0.00000     -0.000   0.000   0.000
   28  2 2s         0.06671   0.00000      0.000  -0.000  -0.000
   28  3 2py        1.33372   0.00000      0.000  -0.000   0.000
   28  4 2pz        1.62433   0.00000     -0.000   0.000   0.000
   28  5 2px        1.66195   0.00000      0.000   0.000   0.000
   28  6 2py        0.08786   0.00000     -0.000   0.000  -0.000
   28  7 2pz       -0.01755   0.00000      0.000  -0.000   0.000
   28  8 2px       -0.00481   0.00000     -0.000   0.000  -0.000
   28  9 3Pdxy      0.00997   0.00000      0.000  -0.000   0.000
   28 10 3Pdyz      0.00822   0.00000      0.000  -0.000  -0.000
   28 11 3Pdz2      0.00228   0.00000      0.000   0.000   0.000
   28 12 3Pdxz      0.00013   0.00000      0.000   0.000  -0.000
   28 13 3Pdx2-y2   0.00741   0.00000      0.000  -0.000   0.000
   28     Total     6.50010   0.00000      0.000   0.000   0.000

----------------------------------------------------------------
Total              12.98536   0.00000      0.000   0.000   0.000


Species: N                   

Atom      Orb        Charge      Spin       Svec
----------------------------------------------------------------
    2  1 2s         1.54769   0.00000     -0.000  -0.000   0.000
    2  2 2s         0.08523   0.00000      0.000   0.000   0.000
    2  3 2py        1.04293   0.00000      0.000   0.000   0.000
    2  4 2pz        1.22489   0.00000     -0.000  -0.000   0.000
    2  5 2px        0.99430   0.00000     -0.000  -0.000   0.000
    2  6 2py        0.18809   0.00000     -0.000  -0.000  -0.000
    2  7 2pz        0.05522   0.00000      0.000   0.000  -0.000
    2  8 2px        0.19561   0.00000      0.000   0.000  -0.000
    2  9 3Pdxy      0.00833   0.00000     -0.000  -0.000   0.000
    2 10 3Pdyz      0.01093   0.00000     -0.000  -0.000  -0.000
    2 11 3Pdz2      0.00189   0.00000      0.000   0.000  -0.000
    2 12 3Pdxz      0.00753   0.00000      0.000   0.000  -0.000
    2 13 3Pdx2-y2   0.00909   0.00000     -0.000  -0.000   0.000
    2     Total     5.37173   0.00000     -0.000  -0.000   0.000

    3  1 2s         1.38174   0.00000      0.000   0.000  -0.000
    3  2 2s         0.12376   0.00000     -0.000  -0.000   0.000
    3  3 2py        0.93168   0.00000      0.000   0.000  -0.000
    3  4 2pz        1.53190   0.00000     -0.000  -0.000  -0.000
    3  5 2px        1.06834   0.00000      0.000  -0.000  -0.000
    3  6 2py        0.25744   0.00000     -0.000  -0.000   0.000
    3  7 2pz        0.00584   0.00000      0.000  -0.000   0.000
    3  8 2px        0.19060   0.00000     -0.000   0.000   0.000
    3  9 3Pdxy      0.00415   0.00000     -0.000  -0.000  -0.000
    3 10 3Pdyz      0.00390   0.00000     -0.000   0.000   0.000
    3 11 3Pdz2      0.00041   0.00000      0.000   0.000  -0.000
    3 12 3Pdxz      0.00279   0.00000     -0.000  -0.000   0.000
    3 13 3Pdx2-y2   0.00243   0.00000     -0.000  -0.000  -0.000
    3     Total     5.50497   0.00000      0.000   0.000  -0.000

    4  1 2s         1.46254   0.00000     -0.000  -0.000  -0.000
    4  2 2s         0.11936   0.00000      0.000   0.000   0.000
    4  3 2py        1.12518   0.00000      0.000   0.000  -0.000
    4  4 2pz        1.28706   0.00000     -0.000  -0.000  -0.000
    4  5 2px        0.82748   0.00000      0.000   0.000  -0.000
    4  6 2py        0.15159   0.00000     -0.000  -0.000   0.000
    4  7 2pz        0.05342   0.00000      0.000   0.000   0.000
    4  8 2px        0.29238   0.00000     -0.000  -0.000   0.000
    4  9 3Pdxy      0.00867   0.00000      0.000   0.000  -0.000
    4 10 3Pdyz      0.01049   0.00000      0.000  -0.000   0.000
    4 11 3Pdz2      0.00127   0.00000      0.000  -0.000  -0.000
    4 12 3Pdxz      0.00475   0.00000     -0.000  -0.000  -0.000
    4 13 3Pdx2-y2   0.00793   0.00000      0.000  -0.000   0.000
    4     Total     5.35212   0.00000     -0.000  -0.000  -0.000

    5  1 2s         1.37501   0.00000     -0.000   0.000   0.000
    5  2 2s         0.12865   0.00000      0.000  -0.000  -0.000
    5  3 2py        1.02580   0.00000     -0.000  -0.000   0.000
    5  4 2pz        1.50144   0.00000      0.000  -0.000   0.000
    5  5 2px        1.05957   0.00000     -0.000   0.000   0.000
    5  6 2py        0.20390   0.00000      0.000   0.000  -0.000
    5  7 2pz        0.01320   0.00000     -0.000   0.000  -0.000
    5  8 2px        0.20192   0.00000      0.000  -0.000  -0.000
    5  9 3Pdxy      0.00385   0.00000     -0.000  -0.000  -0.000
    5 10 3Pdyz      0.00247   0.00000      0.000  -0.000  -0.000
    5 11 3Pdz2      0.00143   0.00000      0.000  -0.000  -0.000
    5 12 3Pdxz      0.00644   0.00000      0.000  -0.000  -0.000
    5 13 3Pdx2-y2   0.00563   0.00000      0.000  -0.000  -0.000
    5     Total     5.52933   0.00000     -0.000  -0.000   0.000

    6  1 2s         1.27592   0.00000     -0.000   0.000  -0.000
    6  2 2s         0.17770   0.00000      0.000  -0.000   0.000
    6  3 2py        1.06215   0.00000     -0.000   0.000  -0.000
    6  4 2pz        1.48942   0.00000      0.000  -0.000   0.000
    6  5 2px        0.98610   0.00000     -0.000   0.000  -0.000
    6  6 2py        0.19771   0.00000      0.000  -0.000   0.000
    6  7 2pz        0.03666   0.00000     -0.000   0.000   0.000
    6  8 2px        0.25654   0.00000      0.000  -0.000   0.000
    6  9 3Pdxy      0.00341   0.00000     -0.000  -0.000   0.000
    6 10 3Pdyz      0.00002   0.00000      0.000  -0.000   0.000
    6 11 3Pdz2      0.00199   0.00000     -0.000  -0.000  -0.000
    6 12 3Pdxz      0.00421   0.00000     -0.000   0.000   0.000
    6 13 3Pdx2-y2   0.00466   0.00000      0.000  -0.000  -0.000
    6     Total     5.49648   0.00000     -0.000   0.000   0.000

   21  1 2s         1.41770   0.00000      0.000  -0.000  -0.000
   21  2 2s         0.12517   0.00000     -0.000   0.000   0.000
   21  3 2py        0.89391   0.00000      0.000  -0.000   0.000
   21  4 2pz        1.33903   0.00000     -0.000   0.000   0.000
   21  5 2px        1.17073   0.00000      0.000   0.000   0.000
   21  6 2py        0.26989   0.00000     -0.000   0.000  -0.000
   21  7 2pz        0.03884   0.00000     -0.000  -0.000   0.000
   21  8 2px        0.15484   0.00000     -0.000  -0.000  -0.000
   21  9 3Pdxy      0.00686   0.00000     -0.000   0.000  -0.000
   21 10 3Pdyz      0.00441   0.00000      0.000   0.000  -0.000
   21 11 3Pdz2      0.00016   0.00000      0.000  -0.000  -0.000
   21 12 3Pdxz      0.00557   0.00000     -0.000  -0.000   0.000
   21 13 3Pdx2-y2   0.00558   0.00000      0.000  -0.000  -0.000
   21     Total     5.43268   0.00000      0.000   0.000   0.000

   22  1 2s         1.30460   0.00000      0.000   0.000   0.000
   22  2 2s         0.16726   0.00000     -0.000  -0.000  -0.000
   22  3 2py        1.05198   0.00000      0.000   0.000   0.000
   22  4 2pz        1.44111   0.00000      0.000  -0.000  -0.000
   22  5 2px        1.04349   0.00000      0.000   0.000  -0.000
   22  6 2py        0.20275   0.00000     -0.000  -0.000  -0.000
   22  7 2pz        0.03587   0.00000     -0.000   0.000  -0.000
   22  8 2px        0.22657   0.00000     -0.000   0.000   0.000
   22  9 3Pdxy      0.00504   0.00000     -0.000  -0.000  -0.000
   22 10 3Pdyz      0.00017   0.00000      0.000  -0.000  -0.000
   22 11 3Pdz2      0.00270   0.00000     -0.000  -0.000  -0.000
   22 12 3Pdxz      0.00460   0.00000     -0.000   0.000   0.000
   22 13 3Pdx2-y2   0.00530   0.00000      0.000   0.000  -0.000
   22     Total     5.49145   0.00000      0.000   0.000  -0.000

   23  1 2s         1.36941   0.00000     -0.000  -0.000   0.000
   23  2 2s         0.13150   0.00000      0.000   0.000  -0.000
   23  3 2py        1.01061   0.00000     -0.000   0.000  -0.000
   23  4 2pz        1.54074   0.00000      0.000   0.000   0.000
   23  5 2px        1.04633   0.00000     -0.000   0.000   0.000
   23  6 2py        0.21377   0.00000      0.000  -0.000   0.000
   23  7 2pz        0.00405   0.00000     -0.000  -0.000   0.000
   23  8 2px        0.20395   0.00000      0.000  -0.000   0.000
   23  9 3Pdxy      0.00542   0.00000     -0.000  -0.000  -0.000
   23 10 3Pdyz      0.00460   0.00000      0.000   0.000   0.000
   23 11 3Pdz2      0.00086   0.00000      0.000   0.000  -0.000
   23 12 3Pdxz      0.00241   0.00000      0.000   0.000   0.000
   23 13 3Pdx2-y2   0.00147   0.00000     -0.000   0.000  -0.000
   23     Total     5.53512   0.00000     -0.000   0.000   0.000

----------------------------------------------------------------
Total              56.69924   0.00000      0.000   0.000   0.000


Species: Si                  

Atom      Orb        Charge      Spin       Svec
----------------------------------------------------------------
    7  1 3s         0.66219   0.00000      0.000  -0.000  -0.000
    7  2 3s         0.36750   0.00000     -0.000   0.000  -0.000
    7  3 3py        0.46138   0.00000      0.000  -0.000  -0.000
    7  4 3pz        0.70015   0.00000     -0.000   0.000  -0.000
    7  5 3px        0.12169   0.00000      0.000  -0.000  -0.000
    7  6 3py        0.27961   0.00000     -0.000   0.000  -0.000
    7  7 3pz        0.26186   0.00000      0.000  -0.000  -0.000
    7  8 3px        0.43903   0.00000     -0.000   0.000  -0.000
    7  9 3Pdxy      0.24634   0.00000      0.000   0.000  -0.000
    7 10 3Pdyz      0.02837   0.00000      0.000  -0.000  -0.000
    7 11 3Pdz2      0.01141   0.00000      0.000   0.000  -0.000
    7 12 3Pdxz      0.14756   0.00000      0.000   0.000   0.000
    7 13 3Pdx2-y2   0.11405   0.00000      0.000   0.000   0.000
    7     Total     3.84115   0.00000      0.000   0.000  -0.000

    8  1 3s         0.65292   0.00000     -0.000  -0.000   0.000
    8  2 3s         0.36965   0.00000      0.000   0.000  -0.000
    8  3 3py        0.39571   0.00000      0.000   0.000  -0.000
    8  4 3pz        0.49503   0.00000     -0.000  -0.000  -0.000
    8  5 3px       -0.01891   0.00000      0.000  -0.000   0.000
    8  6 3py        0.30485   0.00000     -0.000  -0.000  -0.000
    8  7 3pz        0.20643   0.00000      0.000  -0.000  -0.000
    8  8 3px        0.51387   0.00000     -0.000   0.000   0.000
    8  9 3Pdxy      0.25003   0.00000      0.000  -0.000   0.000
    8 10 3Pdyz      0.11142   0.00000      0.000  -0.000  -0.000
    8 11 3Pdz2      0.01349   0.00000     -0.000  -0.000  -0.000
    8 12 3Pdxz      0.15810   0.00000      0.000   0.000  -0.000
    8 13 3Pdx2-y2   0.20443   0.00000     -0.000  -0.000  -0.000
    8     Total     3.65701   0.00000     -0.000  -0.000  -0.000

    9  1 3s         0.60035   0.00000      0.000   0.000   0.000
    9  2 3s         0.36918   0.00000     -0.000  -0.000   0.000
    9  3 3py        0.12504   0.00000     -0.000  -0.000   0.000
    9  4 3pz        0.47187   0.00000     -0.000   0.000   0.000
    9  5 3px        0.33697   0.00000     -0.000   0.000   0.000
    9  6 3py        0.38596   0.00000      0.000  -0.000   0.000
    9  7 3pz        0.19350   0.00000      0.000  -0.000   0.000
    9  8 3px        0.29632   0.00000      0.000  -0.000  -0.000
    9  9 3Pdxy      0.26695   0.00000     -0.000  -0.000   0.000
    9 10 3Pdyz      0.18253   0.00000      0.000   0.000   0.000
    9 11 3Pdz2      0.00952   0.00000      0.000   0.000   0.000
    9 12 3Pdxz      0.11125   0.00000      0.000  -0.000   0.000
    9 13 3Pdx2-y2   0.18181   0.00000     -0.000   0.000   0.000
    9     Total     3.53124   0.00000     -0.000  -0.000   0.000

   10  1 3s         0.49083   0.00000     -0.000  -0.000   0.000
   10  2 3s         0.37440   0.00000      0.000   0.000  -0.000
   10  3 3py        0.23815   0.00000     -0.000   0.000   0.000
   10  4 3pz        0.42649   0.00000     -0.000   0.000   0.000
   10  5 3px        0.10199   0.00000      0.000  -0.000  -0.000
   10  6 3py        0.32343   0.00000      0.000  -0.000  -0.000
   10  7 3pz        0.21414   0.00000      0.000  -0.000   0.000
   10  8 3px        0.44482   0.00000     -0.000   0.000   0.000
   10  9 3Pdxy      0.18228   0.00000      0.000  -0.000   0.000
   10 10 3Pdyz      0.12959   0.00000     -0.000  -0.000  -0.000
   10 11 3Pdz2      0.00966   0.00000      0.000  -0.000   0.000
   10 12 3Pdxz      0.18495   0.00000      0.000   0.000   0.000
   10 13 3Pdx2-y2   0.30931   0.00000      0.000  -0.000   0.000
   10     Total     3.43004   0.00000      0.000  -0.000   0.000

   11  1 3s         0.55388   0.00000     -0.000   0.000  -0.000
   11  2 3s         0.38521   0.00000      0.000   0.000  -0.000
   11  3 3py        0.32488   0.00000      0.000   0.000  -0.000
   11  4 3pz        0.53666   0.00000      0.000   0.000  -0.000
   11  5 3px        0.12682   0.00000     -0.000   0.000  -0.000
   11  6 3py        0.28616   0.00000     -0.000   0.000   0.000
   11  7 3pz        0.17756   0.00000     -0.000  -0.000  -0.000
   11  8 3px        0.44589   0.00000      0.000  -0.000   0.000
   11  9 3Pdxy      0.22621   0.00000      0.000   0.000  -0.000
   11 10 3Pdyz      0.12720   0.00000      0.000  -0.000  -0.000
   11 11 3Pdz2      0.00961   0.00000     -0.000  -0.000   0.000
   11 12 3Pdxz      0.05302   0.00000      0.000   0.000  -0.000
   11 13 3Pdx2-y2   0.20488   0.00000     -0.000  -0.000  -0.000
   11     Total     3.45797   0.00000      0.000   0.000  -0.000

   17  1 3s         0.63586   0.00000      0.000   0.000   0.000
   17  2 3s         0.35947   0.00000     -0.000  -0.000  -0.000
   17  3 3py        0.20875   0.00000     -0.000  -0.000   0.000
   17  4 3pz        0.43140   0.00000     -0.000   0.000  -0.000
   17  5 3px        0.23597   0.00000     -0.000  -0.000  -0.000
   17  6 3py        0.37954   0.00000     -0.000   0.000   0.000
   17  7 3pz        0.21193   0.00000     -0.000  -0.000   0.000
   17  8 3px        0.38873   0.00000      0.000   0.000   0.000
   17  9 3Pdxy      0.27773   0.00000      0.000  -0.000  -0.000
   17 10 3Pdyz      0.13636   0.00000      0.000  -0.000  -0.000
   17 11 3Pdz2      0.00773   0.00000      0.000  -0.000   0.000
   17 12 3Pdxz      0.14462   0.00000     -0.000   0.000  -0.000
   17 13 3Pdx2-y2   0.18150   0.00000     -0.000   0.000  -0.000
   17     Total     3.59959   0.00000      0.000   0.000   0.000

   18  1 3s         0.74366   0.00000     -0.000  -0.000  -0.000
   18  2 3s         0.34340   0.00000      0.000   0.000   0.000
   18  3 3py        0.05966   0.00000      0.000   0.000  -0.000
   18  4 3pz        0.79487   0.00000      0.000  -0.000  -0.000
   18  5 3px        0.56385   0.00000     -0.000   0.000  -0.000
   18  6 3py        0.53031   0.00000     -0.000  -0.000  -0.000
   18  7 3pz        0.19561   0.00000     -0.000   0.000  -0.000
   18  8 3px        0.25024   0.00000      0.000  -0.000  -0.000
   18  9 3Pdxy      0.10161   0.00000      0.000   0.000   0.000
   18 10 3Pdyz      0.02786   0.00000      0.000  -0.000   0.000
   18 11 3Pdz2      0.00826   0.00000     -0.000   0.000   0.000
   18 12 3Pdxz      0.03393   0.00000      0.000   0.000   0.000
   18 13 3Pdx2-y2   0.10779   0.00000     -0.000   0.000  -0.000
   18     Total     3.76104   0.00000     -0.000  -0.000  -0.000

   19  1 3s         0.45907   0.00000     -0.000   0.000   0.000
   19  2 3s         0.36457   0.00000      0.000  -0.000  -0.000
   19  3 3py        0.07588   0.00000     -0.000  -0.000  -0.000
   19  4 3pz        0.39600   0.00000     -0.000  -0.000  -0.000
   19  5 3px        0.24296   0.00000      0.000  -0.000   0.000
   19  6 3py        0.45024   0.00000      0.000  -0.000   0.000
   19  7 3pz        0.19616   0.00000      0.000  -0.000  -0.000
   19  8 3px        0.30631   0.00000     -0.000   0.000  -0.000
   19  9 3Pdxy      0.30340   0.00000     -0.000   0.000  -0.000
   19 10 3Pdyz      0.18064   0.00000      0.000  -0.000  -0.000
   19 11 3Pdz2      0.00981   0.00000      0.000   0.000   0.000
   19 12 3Pdxz      0.10348   0.00000      0.000  -0.000  -0.000
   19 13 3Pdx2-y2   0.23665   0.00000      0.000  -0.000   0.000
   19     Total     3.32515   0.00000      0.000  -0.000  -0.000

   20  1 3s         0.67988   0.00000     -0.000  -0.000   0.000
   20  2 3s         0.37498   0.00000      0.000   0.000   0.000
   20  3 3py        0.33655   0.00000      0.000  -0.000   0.000
   20  4 3pz        0.61807   0.00000     -0.000  -0.000   0.000
   20  5 3px        0.14502   0.00000      0.000   0.000   0.000
   20  6 3py        0.28292   0.00000     -0.000   0.000   0.000
   20  7 3pz        0.16123   0.00000      0.000   0.000   0.000
   20  8 3px        0.49744   0.00000     -0.000  -0.000  -0.000
   20  9 3Pdxy      0.09860   0.00000      0.000   0.000   0.000
   20 10 3Pdyz      0.12794   0.00000     -0.000  -0.000   0.000
   20 11 3Pdz2      0.00808   0.00000     -0.000  -0.000  -0.000
   20 12 3Pdxz      0.02625   0.00000     -0.000  -0.000  -0.000
   20 13 3Pdx2-y2   0.17859   0.00000      0.000  -0.000   0.000
   20     Total     3.53554   0.00000      0.000  -0.000   0.000

----------------------------------------------------------------
Total              88.83797   0.00000     -0.000   0.000  -0.000


Species: H                   

Atom      Orb        Charge      Spin       Svec
----------------------------------------------------------------
   12  1 1s         0.48350   0.00000     -0.000   0.000  -0.000
   12  2 1s         0.17581   0.00000      0.000   0.000  -0.000
   12  3 2Ppy       0.04717   0.00000      0.000   0.000   0.000
   12  4 2Ppz       0.03288   0.00000      0.000  -0.000  -0.000
   12  5 2Ppx       0.05989   0.00000      0.000  -0.000  -0.000
   12     Total     0.79926   0.00000      0.000  -0.000  -0.000

   13  1 1s         1.01984   0.00000      0.000  -0.000   0.000
   13  2 1s         0.09568   0.00000     -0.000   0.000  -0.000
   13  3 2Ppy       0.01804   0.00000      0.000  -0.000  -0.000
   13  4 2Ppz       0.01996   0.00000      0.000  -0.000  -0.000
   13  5 2Ppx       0.03503   0.00000      0.000   0.000   0.000
   13     Total     1.18854   0.00000      0.000  -0.000   0.000

   14  1 1s         0.49372   0.00000      0.000  -0.000  -0.000
   14  2 1s         0.19490   0.00000      0.000   0.000  -0.000
   14  3 2Ppy       0.02151   0.00000      0.000   0.000   0.000
   14  4 2Ppz       0.04860   0.00000     -0.000  -0.000  -0.000
   14  5 2Ppx       0.02279   0.00000     -0.000   0.000   0.000
   14     Total     0.78152   0.00000      0.000   0.000  -0.000

   15  1 1s         0.40899   0.00000      0.000   0.000   0.000
   15  2 1s         0.18469   0.00000     -0.000  -0.000  -0.000
   15  3 2Ppy       0.05561   0.00000     -0.000   0.000   0.000
   15  4 2Ppz       0.05199   0.00000      0.000   0.000  -0.000
   15  5 2Ppx       0.11474   0.00000     -0.000   0.000  -0.000
   15     Total     0.81602   0.00000      0.000   0.000  -0.000

   16  1 1s         0.50779   0.00000      0.000  -0.000  -0.000
   16  2 1s         0.18768   0.00000     -0.000  -0.000  -0.000
   16  3 2Ppy       0.02977   0.00000      0.000   0.000  -0.000
   16  4 2Ppz       0.03926   0.00000     -0.000   0.000  -0.000
   16  5 2Ppx       0.02337   0.00000     -0.000   0.000  -0.000
   16     Total     0.78787   0.00000      0.000  -0.000  -0.000

   24  1 1s         1.06182   0.00000      0.000  -0.000   0.000
   24  2 1s         0.07378   0.00000      0.000   0.000  -0.000
   24  3 2Ppy       0.03259   0.00000     -0.000   0.000  -0.000
   24  4 2Ppz       0.02966   0.00000     -0.000  -0.000  -0.000
   24  5 2Ppx       0.01749   0.00000     -0.000  -0.000   0.000
   24     Total     1.21534   0.00000      0.000  -0.000   0.000

   25  1 1s         1.04224   0.00000     -0.000   0.000  -0.000
   25  2 1s         0.08677   0.00000      0.000  -0.000   0.000
   25  3 2Ppy       0.01221   0.00000     -0.000   0.000  -0.000
   25  4 2Ppz       0.01930   0.00000      0.000  -0.000   0.000
   25  5 2Ppx       0.03550   0.00000      0.000   0.000   0.000
   25     Total     1.19603   0.00000     -0.000   0.000  -0.000

   26  1 1s         0.50232   0.00000      0.000  -0.000  -0.000
   26  2 1s         0.19201   0.00000     -0.000  -0.000  -0.000
   26  3 2Ppy       0.02532   0.00000      0.000  -0.000   0.000
   26  4 2Ppz       0.04819   0.00000      0.000  -0.000  -0.000
   26  5 2Ppx       0.02290   0.00000     -0.000   0.000  -0.000
   26     Total     0.79073   0.00000      0.000  -0.000  -0.000

   27  1 1s         0.39154   0.00000      0.000   0.000   0.000
   27  2 1s         0.18594   0.00000     -0.000  -0.000  -0.000
   27  3 2Ppy       0.07079   0.00000     -0.000   0.000   0.000
   27  4 2Ppz       0.05240   0.00000      0.000  -0.000   0.000
   27  5 2Ppx       0.12003   0.00000     -0.000  -0.000  -0.000
   27     Total     0.82070   0.00000      0.000   0.000   0.000

   29  1 1s         0.49092   0.00000     -0.000  -0.000  -0.000
   29  2 1s         0.18730   0.00000      0.000  -0.000  -0.000
   29  3 2Ppy       0.02498   0.00000     -0.000   0.000  -0.000
   29  4 2Ppz       0.03533   0.00000      0.000  -0.000  -0.000
   29  5 2Ppx       0.02749   0.00000      0.000  -0.000  -0.000
   29     Total     0.76601   0.00000      0.000  -0.000  -0.000

----------------------------------------------------------------
Total              98.00000   0.00000      0.000  -0.000   0.000


siesta: Eigenvalues (eV):
ik =     1
  -23.2263  -23.2263  -22.8514  -22.8514  -21.4961  -21.4961  -21.2230  -21.2230  -20.8196  -20.8196
  -20.5264  -20.5264  -20.0941  -20.0941  -19.6589  -19.6589  -19.4272  -19.4272  -19.3494  -19.3494
  -14.7949  -14.7949  -13.8220  -13.8220  -13.2793  -13.2793  -13.1226  -13.1226  -13.0801  -13.0801
  -12.7358  -12.7358  -12.5029  -12.5029  -12.1096  -12.1096  -11.9430  -11.9430  -11.8064  -11.8064
  -10.9547  -10.9547  -10.8245  -10.8245  -10.5753  -10.5753  -10.2844  -10.2844  -10.1920  -10.1920
   -9.7366   -9.7366   -9.1363   -9.1363   -8.9738   -8.9738   -8.8395   -8.8395   -8.7573   -8.7573
   -8.4498   -8.4498   -8.3920   -8.3920   -8.3729   -8.3729   -7.9573   -7.9573   -7.8070   -7.8070
   -7.5884   -7.5884   -7.4599   -7.4599   -7.3760   -7.3760   -7.2045   -7.2045   -6.9580   -6.9580
   -6.7943   -6.7943   -6.6578   -6.6578   -6.4898   -6.4898   -6.4264   -6.4264   -6.2234   -6.2234
   -5.9504   -5.9504   -5.9222   -5.9222   -5.5530   -5.5530   -4.3214   -4.3214   -3.2382   -3.2382
   -2.3859   -2.3859   -2.3612   -2.3612   -2.1836   -2.1836   -1.9297   -1.9297   -1.8739   -1.8739
   -1.8688   -1.8688   -1.6141   -1.6141   -1.5995   -1.5995   -1.2923   -1.2923   -1.0592   -1.0592
   -1.0290   -1.0290   -0.5496   -0.5496   -0.4906   -0.4906   -0.2915   -0.2915    0.3985    0.3985
    0.4766    0.4766    0.5071    0.5071    0.6663    0.6663    0.9542    0.9542    1.0859    1.0859
    1.4052    1.4052    1.4142    1.4142    1.4932    1.4932    1.5800    1.5800    2.0340    2.0340
    2.2041    2.2041    2.6494    2.6494    2.7106    2.7106    2.7422    2.7422    2.8787    2.8787
    3.0537    3.0537    3.2572    3.2572    3.4200    3.4200    3.5175    3.5175    3.7457    3.7457
    3.8644    3.8644    4.0435    4.0435    4.0885    4.0885    4.2539    4.2539    4.4348    4.4348
    4.5287    4.5287    4.6913    4.6913    4.7731    4.7731    5.0639    5.0639    5.2119    5.2119
    5.3350    5.3350    5.5311    5.5311    5.6776    5.6776    5.8616    5.8616    5.8879    5.8879
    5.9414    5.9414    6.3985    6.3985    6.4432    6.4432    6.5614    6.5614    6.6154    6.6154
    6.9698    6.9698    7.0270    7.0270    7.1984    7.1984    7.2458    7.2458    7.2679    7.2679
    7.5020    7.5020    7.7024    7.7024    7.7167    7.7167    8.0265    8.0265    8.1298    8.1298
    8.3012    8.3012    8.5525    8.5525    8.6652    8.6652    8.7623    8.7623    8.8143    8.8143
    8.9118    8.9118    9.1205    9.1205    9.3600    9.3600    9.5156    9.5156    9.5769    9.5769
    9.8218    9.8218    9.9137    9.9137   10.0182   10.0182   10.1275   10.1275   10.3397   10.3397
   10.5044   10.5044   10.7800   10.7800   11.0001   11.0001   11.2632   11.2632   11.3731   11.3731
   11.4039   11.4039   11.7988   11.7988   12.3388   12.3388   12.4355   12.4355   12.4810   12.4810
   12.6250   12.6250   12.8121   12.8121   13.1444   13.1444   13.3078   13.3078   13.4737   13.4737
   13.6338   13.6338   13.8619   13.8619   14.0515   14.0515   14.1979   14.1979   14.2988   14.2988
   14.4971   14.4971   14.7903   14.7903   14.9239   14.9239   15.0972   15.0972   15.3075   15.3075
   15.5415   15.5415   16.4269   16.4269   16.6554   16.6554   16.8359   16.8359   16.9589   16.9589
   17.4022   17.4022   17.9383   17.9383   18.5553   18.5553   18.6368   18.6368   19.1581   19.1581
   19.4114   19.4114   20.2306   20.2306   20.3791   20.3791   20.7759   20.7759   20.9213   20.9213
   21.2791   21.2791   22.0359   22.0359   22.2746   22.2746   22.8358   22.8358   23.6528   23.6528
   23.9449   23.9449   24.0885   24.0885   24.2754   24.2754   24.9265   24.9265   25.2675   25.2675
   26.1047   26.1047   26.3516   26.3516   26.8081   26.8081   27.9503   27.9503   28.8237   28.8237
   29.5459   29.5459   29.8649   29.8649   30.0458   30.0458   30.4269   30.4270   30.7014   30.7014
   30.9492   30.9492   30.9985   30.9985   31.3730   31.3730   31.6729   31.6729   31.8970   31.8970
   33.3495   33.3495   33.7339   33.7339   33.8914   33.8914   34.0226   34.0226   34.8268   34.8268
   35.1464   35.1464   35.5383   35.5383   36.0766   36.0766   36.5197   36.5197   36.6911   36.6911
   37.0807   37.0807   37.5120   37.5120   37.6293   37.6293   37.8618   37.8618   38.8602   38.8602
   39.2863   39.2863   39.3574   39.3574   39.8575   39.8575   40.1647   40.1647   40.5238   40.5238
   40.7955   40.7955   40.9524   40.9524   41.8959   41.8959   41.9007   41.9007   42.1930   42.1930
   42.5413   42.5413   43.1368   43.1368   43.3355   43.3355   43.4812   43.4812   44.1370   44.1370
   44.6819   44.6819   44.7868   44.7868   44.8062   44.8062   45.2147   45.2147   45.2529   45.2529
   45.4339   45.4339   45.9171   45.9171   46.5772   46.5772   46.7702   46.7702   46.9685   46.9685
   47.8528   47.8528   47.8908   47.8908   49.7187   49.7187   49.9214   49.9214   50.0798   50.0798
   50.1881   50.1881   50.5349   50.5349   50.8499   50.8499   51.7633   51.7633   51.8083   51.8083
   52.5656   52.5656   52.9947   52.9947   53.0883   53.0883   54.1011   54.1011   54.4517   54.4517
   54.6879   54.6879   54.9873   54.9873   55.8588   55.8588   56.1464   56.1464   56.7187   56.7187
   56.7742   56.7742   57.3403   57.3403   58.5962   58.5962   59.0912   59.0912   60.3463   60.3463
   60.4554   60.4554   60.6360   60.6360   61.2788   61.2788   62.1232   62.1232   62.9604   62.9604
   63.5637   63.5637   63.8085   63.8085   64.0362   64.0362   65.6065   65.6065   66.7984   66.7984
   67.4628   67.4628   68.2104   68.2104   70.6216   70.6216   71.2035   71.2035   72.5085   72.5085
   73.4563   73.4563   74.6804   74.6804   76.3912   76.3912   76.8688   76.8688   89.4421   89.4421
   90.9474   90.9474   91.4564   91.4564   94.9706   94.9706   98.1370   98.1370   98.5282   98.5282
  102.4404  102.4404  103.4360  103.4360  105.0432  105.0432  107.5072  107.5072  108.6576  108.6576
  117.1474  117.1474  119.4647  119.4647  125.4447  125.4447  128.4768  128.4768  140.6449  140.6449
  145.7106  145.7106  148.5071  148.5071
siesta: Fermi energy =      -3.780077 eV

siesta: Program's energy decomposition (eV):
siesta: Ebs     =     -1136.096391
siesta: Eions   =      3585.165840
siesta: Ena     =       382.117949
siesta: Ekin    =      2916.931002
siesta: Enl     =     -2799.671254
siesta: Eso     =        -0.004344
siesta: Edftu   =         0.000000
siesta: DEna    =        48.422934
siesta: DUscf   =        13.691451
siesta: DUext   =         0.000000
siesta: Exc     =     -1124.129415
siesta: eta*DQ  =         0.000000
siesta: Emadel  =         0.000000
siesta: Emeta   =         0.000000
siesta: Emolmec =         0.000000
siesta: Ekinion =         0.000000
siesta: Eharris =     -4147.807517
siesta: Etot    =     -4147.807517
siesta: FreeEng =     -4147.807517

siesta: Final energy (eV):
siesta:  Band Struct. =   -1136.096391
siesta:       Kinetic =    2916.931002
siesta:       Hartree =    9171.220332
siesta:       Edftu   =       0.000000
siesta:       Eso     =      -0.004344
siesta:    Ext. field =       0.000000
siesta:   Exch.-corr. =   -1124.129415
siesta:  Ion-electron =  -20935.922139
siesta:       Ion-ion =    5824.097047
siesta:       Ekinion =       0.000000
siesta:         Total =   -4147.807517
siesta:         Fermi =      -3.780077

siesta: Atomic forces (eV/Ang):
siesta:      1   -2.025871   -3.117848   -0.000000
siesta:      2   -0.053796    0.033875    0.000000
siesta:      3   -0.276624    0.004655    0.000000
siesta:      4   -0.183181    0.006425   -0.000000
siesta:      5   -0.016812    0.045164    0.000000
siesta:      6   -0.973116   -0.484505   -0.000000
siesta:      7   -0.007731    0.063809   -0.000000
siesta:      8    0.084333   -0.072193    0.000000
siesta:      9   -0.021072   -0.341303    0.000000
siesta:     10    0.174941   -0.127201    0.000000
siesta:     11    0.001378    0.002640    0.000000
siesta:     12    0.203213    0.041706   -0.000000
siesta:     13   -0.077989   -0.097658   -0.000000
siesta:     14   -0.130146   -0.235305    0.000000
siesta:     15    0.107758    0.045657    0.000000
siesta:     16    0.074336    0.069820   -0.000000
siesta:     17   -0.176661    0.318768   -0.000000
siesta:     18    0.043169   -0.055047   -0.000000
siesta:     19    0.113529    0.295573    0.000000
siesta:     20    0.012311    0.099270    0.000000
siesta:     21    0.147576   -0.159026    0.000000
siesta:     22    1.152374    0.677503    0.000000
siesta:     23   -0.123810   -0.176677   -0.000000
siesta:     24    0.126907   -0.124143    0.000000
siesta:     25    0.111921   -0.144718    0.000000
siesta:     26    0.137260   -0.015037   -0.000000
siesta:     27   -0.261247   -0.129812    0.000000
siesta:     28    3.003052    0.757891   -0.000000
siesta:     29   -0.001143    0.133287    0.000000
siesta: ----------------------------------------
siesta:    Tot    1.164857   -2.684431    0.000000

siesta: Stress tensor (static) (eV/Ang**3):
siesta:    -0.001439   -0.000848   -0.000000
siesta:    -0.000848   -0.000118   -0.000000
siesta:     0.000000   -0.000000   -0.000071

siesta: Cell volume =       4336.916828 Ang**3

siesta: Pressure (static):
siesta:                Solid            Molecule  Units
siesta:           0.00000591         -0.00000280  Ry/Bohr**3
siesta:           0.00054260         -0.00025668  eV/Ang**3
siesta:           0.86935052         -0.41124773  kBar
(Free)E+ p_basis*V_orbitals  =       -4127.957100
(Free)Eharris+ p_basis*V_orbitals  =       -4127.957100
     spin moment: S , {S} =    0.00000   0.00000  -0.00000   0.00000

siesta: Electric dipole (a.u.)  =    1.627715    0.173338    0.000000
siesta: Electric dipole (Debye) =    4.137242    0.440583    0.000000

cite: Please see "GC.bib" for an exhaustive BiBTeX file.
cite: Please clearly indicate Siesta version in published work: v4.1.5-1-g384057250
cite: This calculation has made use of the following articles
cite: which are encouraged to be cited in a published work.
        Primary SIESTA paper
          DOI: www.doi.org/10.1088/0953-8984/14/11/302
        Spin-orbit coupling (on-site approximation)
          DOI: www.doi.org/10.1088/0953-8984/19/19/489001


WARNING: alloc-realloc-dealloc name mismatch
         Name: atomlist isa
         Size:              -116. Bytes
         Node:     0
         Subsequent mismatches will not be reported
>> End of run:  28-JUN-2023  18:24:22
Job completed
