Siesta Version  : v4.1.5-1-g384057250
Architecture    : gcc
Compiler version: GNU Fortran (Ubuntu 11.4.0-1ubuntu1~22.04) 11.4.0
Compiler flags  : mpifort -O2 -fPIC -ftree-vectorize -fallow-argument-mismatch
PP flags        : -DFC_HAVE_ABORT -DMPI -DSIESTA__FLOOK -DSIESTA__METIS -DSIESTA__MUMPS -DCDF -DNCDF -DNCDF_4 -DNCDF_PARALLEL -DSIESTA__MRRR -DSIESTA__ELPA
Libraries       : libncdf.a libfdict.a  -lflookall -ldl -lnetcdff -lnetcdf -lhdf5_hl -lhdf5 -lhdf5_fortran -lz -lscalapack-openmpi -lopenblas -lmetis -lzmumps -lcmumps -ldmumps -lmumps_common -lpord -lsmumps -lesmumps -lscotch -lscotcherr -fopenmp -lelpa
PARALLEL version
NetCDF support
NetCDF-4 support
NetCDF-4 MPI-IO support
METIS ordering support
Lua support

* Running on 8 nodes in parallel
>> Start of run:   1-FEB-2024  22:12:49

                           ***********************       
                           *  WELCOME TO SIESTA  *       
                           ***********************       

reinit: Reading from standard input
reinit: Dumped input in INPUT_TMP.40066
************************** Dump of input data file ****************************
# mpirun -np 4 siesta-4.1.5 < GC.fdf > GC.out &
SystemLabel      GC
NumberOfAtoms    29
NumberOfSpecies  4
%block ChemicalSpeciesLabel
    1    1  H
    2    7  N
    3   14  Si
    4    8  O
%endblock ChemicalSpeciesLabel
############################################
# This overrides Defaults.fdf configuration
############################################
MD.TypeOfRun                Verlet # CG, Verlet
MD.Steps                    0
MaxSCFIterations            200
SCF.MustConverge            F
AtomicCoordinatesFormat NotScaledCartesianAng
%block AtomicCoordinatesAndAtomicSpecies
    0.07497075772042017 5.025412590730935 0.0  1  1  H
    -0.6315159722795798 4.235376410730935 0.0  2  2  N
    -2.36180288227958 4.676740320730935 0.0  3  3  Si
    -2.5175825622795798 6.166732580730935 0.0  1  4  H
    -3.88512450227958 3.117832800730935 0.0  3  5  Si
    -5.368312132279581 3.360663160730935 0.0  1  6  H
    -2.68673364227958 1.2045566407309347 0.0  3  7  Si
    -3.45275910227958 -0.3281600992690654 0.0  2  8  N
    -2.86251255227958 -1.2853731292690653 0.0  1  9  H
    -4.50438142227958 -0.40862032926906533 0.0  1  10  H
    -0.9705335822795798 1.2597309507309347 0.0  2  11  N
    0.10448903772042017 2.5900697907309347 0.0  3  12  Si
    1.71316235772042 2.5712595307309347 0.0  4  13  O
    5.6164483 -7.44953905 0.0  1  14  H
    4.58206954 -7.2320376 0.0  2  15  N
    3.29666389 -8.492636 0.0  3  16  Si
    3.80117524 -9.90371886 -0.0  1  17  H
    1.65934232 -8.01362137 0.0  2  18  N
    1.68097912 -6.20463398 -0.0  3  19  Si
    0.54543521 -4.28636135 0.0  3  20  Si
    -1.03431493 -3.94450034 0.0  4  21  O
    1.73226934 -2.87719605 0.0  2  22  N
    1.20957366 -1.92961761 -0.0  1  23  H
    3.50853448 -2.77677601 0.0  3  24  Si
    4.13684451 -1.17938608 0.0  2  25  N
    3.54296161 -0.26248101 0.0  1  26  H
    5.18364407 -1.05231197 -0.0  1  27  H
    4.63288658 -4.07521596 -0.0  2  28  N
    3.79410501 -5.58634043 0.0  3  29  Si
%endblock AtomicCoordinatesAndAtomicSpecies
#############
# Unit Cell
#############
LatticeConstant 1.0 Ang
%block LatticeVectors
    30.00000    0.000000    0.000000
    0.000000    45.00000    0.000000
    0.000000    0.000000    10.00000
%endblock LatticeVectors
%include ../../../../Defaults.fdf
************************** End of input data file *****************************

reinit: -----------------------------------------------------------------------
reinit: System Name: 
reinit: -----------------------------------------------------------------------
reinit: System Label: GC
reinit: -----------------------------------------------------------------------

initatom: Reading input for the pseudopotentials and atomic orbitals ----------
Species number:   1 Atomic number:    1 Label: H
Species number:   2 Atomic number:    7 Label: N
Species number:   3 Atomic number:   14 Label: Si
Species number:   4 Atomic number:    8 Label: O

Ground state valence configuration:   1s01
Reading pseudopotential information in formatted form from H.psf

Pseudopotential generated from a relativistic atomic calculation

Valence configuration for pseudopotential generation:
1s( 1.00) rc: 0.01
2p( 0.00) rc: 0.60
3d( 0.00) rc: 1.99
4f( 0.00) rc: 2.49
Ground state valence configuration:   2s02  2p03
Reading pseudopotential information in formatted form from N.psf

Pseudopotential generated from a relativistic atomic calculation

Valence configuration for pseudopotential generation:
2s( 2.00) rc: 0.94
2p( 3.00) rc: 0.59
3d( 0.00) rc: 3.46
4f( 0.00) rc: 2.47
Ground state valence configuration:   3s02  3p02
Reading pseudopotential information in formatted form from Si.psf

Pseudopotential generated from a relativistic atomic calculation

Valence configuration for pseudopotential generation:
3s( 2.00) rc: 1.67
3p( 2.00) rc: 2.04
3d( 0.00) rc: 2.89
4f( 0.00) rc: 2.49
Ground state valence configuration:   2s02  2p04
Reading pseudopotential information in formatted form from O.psf

Pseudopotential generated from a relativistic atomic calculation

Valence configuration for pseudopotential generation:
2s( 2.00) rc: 0.45
2p( 4.00) rc: 0.92
3d( 0.00) rc: 2.24
4f( 0.00) rc: 0.25
For H, standard SIESTA heuristics set lmxkb to 2
 (one more than the basis l, including polarization orbitals).
Use PS.lmax or PS.KBprojectors blocks to override.
For N, standard SIESTA heuristics set lmxkb to 3
 (one more than the basis l, including polarization orbitals).
Use PS.lmax or PS.KBprojectors blocks to override.
For Si, standard SIESTA heuristics set lmxkb to 3
 (one more than the basis l, including polarization orbitals).
Use PS.lmax or PS.KBprojectors blocks to override.
For O, standard SIESTA heuristics set lmxkb to 3
 (one more than the basis l, including polarization orbitals).
Use PS.lmax or PS.KBprojectors blocks to override.

<basis_specs>
===============================================================================
H                    Z=   1    Mass=  1.0100        Charge= 0.17977+309
Lmxo=0 Lmxkb= 2    BasisType=split      Semic=F
L=0  Nsemic=0  Cnfigmx=1
          i=1  nzeta=2  polorb=1  (1s)
            splnorm:   0.62000    
               vcte:    0.0000    
               rinn:    0.0000    
               qcoe:    0.0000    
               qyuk:    0.0000    
               qwid:   0.10000E-01
                rcs:    0.0000      0.0000    
            lambdas:    1.0000      1.0000    
-------------------------------------------------------------------------------
L=0  Nkbl=1  erefs: 0.17977+309
L=1  Nkbl=1  erefs: 0.17977+309
L=2  Nkbl=1  erefs: 0.17977+309
===============================================================================
</basis_specs>

atom: Called for H                     (Z =   1)

read_vps: Pseudopotential generation method:
read_vps: ATM4.2.7  Troullier-Martins                       
Valence charge for ps generation:    1.00000

xc_check: Exchange-correlation functional:
xc_check: GGA Perdew, Burke & Ernzerhof 1996
V l=0 = -2*Zval/r beyond r=  0.0098
V l=1 = -2*Zval/r beyond r=  0.5817
V l=2 = -2*Zval/r beyond r=  1.9372
All V_l potentials equal beyond r=  1.9372
This should be close to max(r_c) in ps generation
All pots = -2*Zval/r beyond r=  1.9372

VLOCAL1: 99.0% of the norm of Vloc inside     11.567 Ry
VLOCAL1: 99.9% of the norm of Vloc inside     26.362 Ry
atom: Maximum radius for 4*pi*r*r*local-pseudopot. charge    2.25106
atom: Maximum radius for r*vlocal+2*Zval:    1.91306
GHOST: No ghost state for L =  0
GHOST: No ghost state for L =  1
GHOST: No ghost state for L =  2

KBgen: Kleinman-Bylander projectors: 
   l= 0   rc=  2.036604   el= -0.477180   Ekb= -6.081590   kbcos= -0.277285
   l= 1   rc=  2.195416   el=  0.001076   Ekb= -0.926943   kbcos= -0.034643
   l= 2   rc=  2.251056   el=  0.002010   Ekb= -0.130941   kbcos= -0.009788

KBgen: Total number of Kleinman-Bylander projectors:    9
atom: -------------------------------------------------------------------------

atom: SANKEY-TYPE ORBITALS:
atom: Selected multiple-zeta basis: split     

SPLIT: Orbitals with angular momentum L= 0

SPLIT: Basis orbitals for state 1s

SPLIT: PAO cut-off radius determined from an
SPLIT: energy shift=  0.002000 Ry

   izeta = 1
                 lambda =    1.000000
                     rc =    6.518340
                 energy =   -0.475305
                kinetic =    0.912139
    potential(screened) =   -1.387444
       potential(ionic) =   -1.907295

   izeta = 2
                 rmatch =    2.141150
              splitnorm =    0.620000
                 energy =    0.566467
                kinetic =    3.772856
    potential(screened) =   -3.206389
       potential(ionic) =   -3.759093

POLgen: Perturbative polarization orbital with L=  1

POLgen: Polarization orbital for state 1s

   izeta = 1
                     rc =    6.518340
                 energy =    0.533861
                kinetic =    1.121086
    potential(screened) =   -0.587225
       potential(ionic) =   -1.053027
atom: Total number of Sankey-type orbitals:  5

atm_pop: Valence configuration (for local Pseudopot. screening):
 1s( 1.00)                                                            
Vna: chval, zval:    1.00000   1.00000

Vna:  Cut-off radius for the neutral-atom potential:   6.518340

atom: _________________________________________________________________________

<basis_specs>
===============================================================================
N                    Z=   7    Mass=  14.010        Charge= 0.17977+309
Lmxo=1 Lmxkb= 3    BasisType=split      Semic=F
L=0  Nsemic=0  Cnfigmx=2
          i=1  nzeta=2  polorb=0  (2s)
            splnorm:   0.28000    
               vcte:    0.0000    
               rinn:    0.0000    
               qcoe:    0.0000    
               qyuk:    0.0000    
               qwid:   0.10000E-01
                rcs:    0.0000      0.0000    
            lambdas:    1.0000      1.0000    
L=1  Nsemic=0  Cnfigmx=2
          i=1  nzeta=2  polorb=1  (2p)
            splnorm:   0.28000    
               vcte:    0.0000    
               rinn:    0.0000    
               qcoe:    0.0000    
               qyuk:    0.0000    
               qwid:   0.10000E-01
                rcs:    0.0000      0.0000    
            lambdas:    1.0000      1.0000    
-------------------------------------------------------------------------------
L=0  Nkbl=1  erefs: 0.17977+309
L=1  Nkbl=1  erefs: 0.17977+309
L=2  Nkbl=1  erefs: 0.17977+309
L=3  Nkbl=1  erefs: 0.17977+309
===============================================================================
</basis_specs>

atom: Called for N                     (Z =   7)

read_vps: Pseudopotential generation method:
read_vps: ATM4.2.7  Troullier-Martins                       
Valence charge for ps generation:    5.00000

xc_check: Exchange-correlation functional:
xc_check: GGA Perdew, Burke & Ernzerhof 1996
V l=0 = -2*Zval/r beyond r=  1.2889
V l=1 = -2*Zval/r beyond r=  1.2889
V l=2 = -2*Zval/r beyond r=  3.4178
V l=3 = -2*Zval/r beyond r=  2.4084
All V_l potentials equal beyond r=  3.3753
This should be close to max(r_c) in ps generation
All pots = -2*Zval/r beyond r=  3.4178

VLOCAL1: 99.0% of the norm of Vloc inside      3.810 Ry
VLOCAL1: 99.9% of the norm of Vloc inside      8.683 Ry
atom: Maximum radius for 4*pi*r*r*local-pseudopot. charge    4.02088
atom: Maximum radius for r*vlocal+2*Zval:    3.54838
GHOST: No ghost state for L =  0
GHOST: No ghost state for L =  1
GHOST: No ghost state for L =  2
GHOST: No ghost state for L =  3

KBgen: Kleinman-Bylander projectors: 
   l= 0   rc=  3.417763   el= -1.365098   Ekb= -4.433130   kbcos= -0.707855
   l= 1   rc=  3.375302   el= -0.521201   Ekb=-13.264039   kbcos= -0.535594
   l= 2   rc=  3.872880   el=  0.001991   Ekb= -0.641094   kbcos= -0.062456
   l= 3   rc=  3.970931   el=  0.003093   Ekb= -0.474517   kbcos= -0.018236

KBgen: Total number of Kleinman-Bylander projectors:   16
atom: -------------------------------------------------------------------------

atom: SANKEY-TYPE ORBITALS:
atom: Selected multiple-zeta basis: split     

SPLIT: Orbitals with angular momentum L= 0

SPLIT: Basis orbitals for state 2s

SPLIT: PAO cut-off radius determined from an
SPLIT: energy shift=  0.002000 Ry

   izeta = 1
                 lambda =    1.000000
                     rc =    4.730425
                 energy =   -1.363399
                kinetic =    1.245246
    potential(screened) =   -2.608645
       potential(ionic) =   -8.121105

   izeta = 2
                 rmatch =    2.531849
              splitnorm =    0.280000
                 energy =   -0.959908
                kinetic =    2.409435
    potential(screened) =   -3.369343
       potential(ionic) =   -9.427975

SPLIT: Orbitals with angular momentum L= 1

SPLIT: Basis orbitals for state 2p

SPLIT: PAO cut-off radius determined from an
SPLIT: energy shift=  0.002000 Ry

   izeta = 1
                 lambda =    1.000000
                     rc =    5.924108
                 energy =   -0.519262
                kinetic =    3.672940
    potential(screened) =   -4.192202
       potential(ionic) =   -9.518354

   izeta = 2
                 rmatch =    2.531849
              splitnorm =    0.280000
                 energy =   -0.104258
                kinetic =    6.807538
    potential(screened) =   -6.911796
       potential(ionic) =  -13.149920

POLgen: Perturbative polarization orbital with L=  2

POLgen: Polarization orbital for state 2p

   izeta = 1
                     rc =    5.924108
                 energy =    1.427508
                kinetic =    2.872379
    potential(screened) =   -1.444871
       potential(ionic) =   -5.563644
atom: Total number of Sankey-type orbitals: 13

atm_pop: Valence configuration (for local Pseudopot. screening):
 2s( 2.00)                                                            
 2p( 3.00)                                                            
Vna: chval, zval:    5.00000   5.00000

Vna:  Cut-off radius for the neutral-atom potential:   5.924108

atom: _________________________________________________________________________

<basis_specs>
===============================================================================
Si                   Z=  14    Mass=  28.090        Charge= 0.17977+309
Lmxo=1 Lmxkb= 3    BasisType=split      Semic=F
L=0  Nsemic=0  Cnfigmx=3
          i=1  nzeta=2  polorb=0  (3s)
            splnorm:   0.28000    
               vcte:    0.0000    
               rinn:    0.0000    
               qcoe:    0.0000    
               qyuk:    0.0000    
               qwid:   0.10000E-01
                rcs:    0.0000      0.0000    
            lambdas:    1.0000      1.0000    
L=1  Nsemic=0  Cnfigmx=3
          i=1  nzeta=2  polorb=1  (3p)
            splnorm:   0.28000    
               vcte:    0.0000    
               rinn:    0.0000    
               qcoe:    0.0000    
               qyuk:    0.0000    
               qwid:   0.10000E-01
                rcs:    0.0000      0.0000    
            lambdas:    1.0000      1.0000    
-------------------------------------------------------------------------------
L=0  Nkbl=1  erefs: 0.17977+309
L=1  Nkbl=1  erefs: 0.17977+309
L=2  Nkbl=1  erefs: 0.17977+309
L=3  Nkbl=1  erefs: 0.17977+309
===============================================================================
</basis_specs>

atom: Called for Si                    (Z =  14)

read_vps: Pseudopotential generation method:
read_vps: ATM4.2.7  Troullier-Martins                       
Valence charge for ps generation:    4.00000

xc_check: Exchange-correlation functional:
xc_check: GGA Perdew, Burke & Ernzerhof 1996
V l=0 = -2*Zval/r beyond r=  2.7826
V l=1 = -2*Zval/r beyond r=  2.7826
V l=2 = -2*Zval/r beyond r=  2.9253
V l=3 = -2*Zval/r beyond r=  2.7826
All V_l potentials equal beyond r=  2.8530
This should be close to max(r_c) in ps generation
All pots = -2*Zval/r beyond r=  2.9253

VLOCAL1: 99.0% of the norm of Vloc inside      5.333 Ry
VLOCAL1: 99.9% of the norm of Vloc inside     12.154 Ry
atom: Maximum radius for 4*pi*r*r*local-pseudopot. charge    3.39869
atom: Maximum radius for r*vlocal+2*Zval:    2.96205
GHOST: No ghost state for L =  0
GHOST: No ghost state for L =  1
GHOST: No ghost state for L =  2
GHOST: No ghost state for L =  3

KBgen: Kleinman-Bylander projectors: 
   l= 0   rc=  3.075247   el= -0.794092   Ekb=  5.879390   kbcos=  0.167461
   l= 1   rc=  3.153101   el= -0.300068   Ekb=  2.642817   kbcos=  0.058301
   l= 2   rc=  3.273594   el=  0.001958   Ekb= -1.185135   kbcos= -0.104411
   l= 3   rc=  3.232927   el=  0.003046   Ekb= -0.497174   kbcos= -0.015889

KBgen: Total number of Kleinman-Bylander projectors:   16
atom: -------------------------------------------------------------------------

atom: SANKEY-TYPE ORBITALS:
atom: Selected multiple-zeta basis: split     

SPLIT: Orbitals with angular momentum L= 0

SPLIT: Basis orbitals for state 3s

SPLIT: PAO cut-off radius determined from an
SPLIT: energy shift=  0.002000 Ry

   izeta = 1
                 lambda =    1.000000
                     rc =    6.429618
                 energy =   -0.792283
                kinetic =    0.525293
    potential(screened) =   -1.317576
       potential(ionic) =   -3.744923

   izeta = 2
                 rmatch =    3.998416
              splitnorm =    0.280000
                 energy =   -0.583081
                kinetic =    1.069570
    potential(screened) =   -1.652651
       potential(ionic) =   -4.235185

SPLIT: Orbitals with angular momentum L= 1

SPLIT: Basis orbitals for state 3p

SPLIT: PAO cut-off radius determined from an
SPLIT: energy shift=  0.002000 Ry

   izeta = 1
                 lambda =    1.000000
                     rc =    8.464845
                 energy =   -0.298236
                kinetic =    0.785360
    potential(screened) =   -1.083596
       potential(ionic) =   -3.273779

   izeta = 2
                 rmatch =    4.587816
              splitnorm =    0.280000
                 energy =   -0.131871
                kinetic =    1.403687
    potential(screened) =   -1.535557
       potential(ionic) =   -4.015310

POLgen: Perturbative polarization orbital with L=  2

POLgen: Polarization orbital for state 3p

   izeta = 1
                     rc =    8.464845
                 energy =    0.321949
                kinetic =    1.055677
    potential(screened) =   -0.733728
       potential(ionic) =   -2.672950
atom: Total number of Sankey-type orbitals: 13

atm_pop: Valence configuration (for local Pseudopot. screening):
 3s( 2.00)                                                            
 3p( 2.00)                                                            
Vna: chval, zval:    4.00000   4.00000

Vna:  Cut-off radius for the neutral-atom potential:   8.464845

atom: _________________________________________________________________________

<basis_specs>
===============================================================================
O                    Z=   8    Mass=  16.000        Charge= 0.17977+309
Lmxo=1 Lmxkb= 3    BasisType=split      Semic=F
L=0  Nsemic=0  Cnfigmx=2
          i=1  nzeta=2  polorb=0  (2s)
            splnorm:   0.28000    
               vcte:    0.0000    
               rinn:    0.0000    
               qcoe:    0.0000    
               qyuk:    0.0000    
               qwid:   0.10000E-01
                rcs:    0.0000      0.0000    
            lambdas:    1.0000      1.0000    
L=1  Nsemic=0  Cnfigmx=2
          i=1  nzeta=2  polorb=1  (2p)
            splnorm:   0.28000    
               vcte:    0.0000    
               rinn:    0.0000    
               qcoe:    0.0000    
               qyuk:    0.0000    
               qwid:   0.10000E-01
                rcs:    0.0000      0.0000    
            lambdas:    1.0000      1.0000    
-------------------------------------------------------------------------------
L=0  Nkbl=1  erefs: 0.17977+309
L=1  Nkbl=1  erefs: 0.17977+309
L=2  Nkbl=1  erefs: 0.17977+309
L=3  Nkbl=1  erefs: 0.17977+309
===============================================================================
</basis_specs>

atom: Called for O                     (Z =   8)

read_vps: Pseudopotential generation method:
read_vps: ATM4.2.7  Troullier-Martins                       
Valence charge for ps generation:    6.00000

xc_check: Exchange-correlation functional:
xc_check: GGA Perdew, Burke & Ernzerhof 1996
V l=0 = -2*Zval/r beyond r=  1.1000
V l=1 = -2*Zval/r beyond r=  1.1000
V l=2 = -2*Zval/r beyond r=  2.2154
V l=3 = -2*Zval/r beyond r=  1.1000
All V_l potentials equal beyond r=  2.2154
This should be close to max(r_c) in ps generation
All pots = -2*Zval/r beyond r=  2.2154

VLOCAL1: 99.0% of the norm of Vloc inside      8.845 Ry
VLOCAL1: 99.9% of the norm of Vloc inside     20.157 Ry
atom: Maximum radius for 4*pi*r*r*local-pseudopot. charge    2.67231
atom: Maximum radius for r*vlocal+2*Zval:    2.32897
GHOST: No ghost state for L =  0
GHOST: No ghost state for L =  1
GHOST: No ghost state for L =  2
GHOST: No ghost state for L =  3

KBgen: Kleinman-Bylander projectors: 
   l= 0   rc=  2.243238   el= -1.759686   Ekb=**********   kbcos= -0.171774
   l= 1   rc=  2.328968   el= -0.663873   Ekb=-14.506792   kbcos= -0.519897
   l= 2   rc=  2.573941   el=  0.002031   Ekb= -1.137373   kbcos= -0.019581
   l= 3   rc=  2.606321   el=  0.003153   Ekb= -1.013546   kbcos= -0.003122

KBgen: Total number of Kleinman-Bylander projectors:   16
atom: -------------------------------------------------------------------------

atom: SANKEY-TYPE ORBITALS:
atom: Selected multiple-zeta basis: split     

SPLIT: Orbitals with angular momentum L= 0

SPLIT: Basis orbitals for state 2s

SPLIT: PAO cut-off radius determined from an
SPLIT: energy shift=  0.002000 Ry

   izeta = 1
                 lambda =    1.000000
                     rc =    4.243912
                 energy =   -1.758270
                kinetic =    3.286084
    potential(screened) =   -5.044353
       potential(ionic) =  -12.921184

   izeta = 2
                 rmatch =    2.187845
              splitnorm =    0.280000
                 energy =   -0.885018
                kinetic =    8.134434
    potential(screened) =   -9.019452
       potential(ionic) =  -17.710645

SPLIT: Orbitals with angular momentum L= 1

SPLIT: Basis orbitals for state 2p

SPLIT: PAO cut-off radius determined from an
SPLIT: energy shift=  0.002000 Ry

   izeta = 1
                 lambda =    1.000000
                     rc =    5.314825
                 energy =   -0.661986
                kinetic =    4.917472
    potential(screened) =   -5.579458
       potential(ionic) =  -13.236259

   izeta = 2
                 rmatch =    2.160663
              splitnorm =    0.280000
                 energy =   -0.068760
                kinetic =    9.183374
    potential(screened) =   -9.252135
       potential(ionic) =  -18.274251

POLgen: Perturbative polarization orbital with L=  2

POLgen: Polarization orbital for state 2p

   izeta = 1
                     rc =    5.314825
                 energy =    1.970580
                kinetic =    3.886128
    potential(screened) =   -1.915547
       potential(ionic) =   -7.749584
atom: Total number of Sankey-type orbitals: 13

atm_pop: Valence configuration (for local Pseudopot. screening):
 2s( 2.00)                                                            
 2p( 4.00)                                                            
Vna: chval, zval:    6.00000   6.00000

Vna:  Cut-off radius for the neutral-atom potential:   5.314825

atom: _________________________________________________________________________

prinput: Basis input ----------------------------------------------------------

PAO.BasisType split     

%block ChemicalSpeciesLabel
    1    1 H                       # Species index, atomic number, species label
    2    7 N                       # Species index, atomic number, species label
    3   14 Si                      # Species index, atomic number, species label
    4    8 O                       # Species index, atomic number, species label
%endblock ChemicalSpeciesLabel

%block PAO.Basis                 # Define Basis set
H                     1                    # Species label, number of l-shells
 n=1   0   2 P   1                   # n, l, Nzeta, Polarization, NzetaPol
   6.518      2.141   
   1.000      1.000   
N                     2                    # Species label, number of l-shells
 n=2   0   2                         # n, l, Nzeta 
   4.730      2.532   
   1.000      1.000   
 n=2   1   2 P   1                   # n, l, Nzeta, Polarization, NzetaPol
   5.924      2.532   
   1.000      1.000   
Si                    2                    # Species label, number of l-shells
 n=3   0   2                         # n, l, Nzeta 
   6.430      3.998   
   1.000      1.000   
 n=3   1   2 P   1                   # n, l, Nzeta, Polarization, NzetaPol
   8.465      4.588   
   1.000      1.000   
O                     2                    # Species label, number of l-shells
 n=2   0   2                         # n, l, Nzeta 
   4.244      2.188   
   1.000      1.000   
 n=2   1   2 P   1                   # n, l, Nzeta, Polarization, NzetaPol
   5.315      2.161   
   1.000      1.000   
%endblock PAO.Basis

prinput: ----------------------------------------------------------------------

Dumping basis to NetCDF file H.ion.nc
Dumping basis to NetCDF file N.ion.nc
Dumping basis to NetCDF file Si.ion.nc
Dumping basis to NetCDF file O.ion.nc
coor:   Atomic-coordinates input format  =     Cartesian coordinates
coor:                                          (in Angstroms)

siesta: Atomic coordinates (Bohr) and species
siesta:      0.14167   9.49666   0.00000  1        1
siesta:     -1.19339   8.00370   0.00000  2        2
siesta:     -4.46316   8.83776   0.00000  3        3
siesta:     -4.75754  11.65344   0.00000  1        4
siesta:     -7.34182   5.89185   0.00000  3        5
siesta:    -10.14464   6.35074   0.00000  1        6
siesta:     -5.07719   2.27628   0.00000  3        7
siesta:     -6.52477  -0.62013   0.00000  2        8
siesta:     -5.40937  -2.42900   0.00000  1        9
siesta:     -8.51205  -0.77218   0.00000  1       10
siesta:     -1.83404   2.38055   0.00000  2       11
siesta:      0.19746   4.89452   0.00000  3       12
siesta:      3.23741   4.85898   0.00000  4       13
siesta:     10.61355 -14.07759   0.00000  1       14
siesta:      8.65886 -13.66658   0.00000  2       15
siesta:      6.22979 -16.04876   0.00000  3       16
siesta:      7.18318 -18.71532  -0.00000  1       17
siesta:      3.13570 -15.14356   0.00000  2       18
siesta:      3.17659 -11.72506  -0.00000  3       19
siesta:      1.03072  -8.10005   0.00000  3       20
siesta:     -1.95457  -7.45403   0.00000  4       21
siesta:      3.27352  -5.43711   0.00000  2       22
siesta:      2.28576  -3.64645  -0.00000  1       23
siesta:      6.63017  -5.24735   0.00000  3       24
siesta:      7.81751  -2.22872   0.00000  2       25
siesta:      6.69523  -0.49602   0.00000  1       26
siesta:      9.79567  -1.98858  -0.00000  1       27
siesta:      8.75489  -7.70105  -0.00000  2       28
siesta:      7.16982 -10.55666   0.00000  3       29

siesta: System type = molecule  

initatomlists: Number of atoms, orbitals, and projectors:     29   297   394

siesta: ******************** Simulation parameters ****************************
siesta:
siesta: The following are some of the parameters of the simulation.
siesta: A complete list of the parameters used, including default values,
siesta: can be found in file out.fdf
siesta:
redata: Spin configuration                          = spin-orbit
redata: Number of spin components                   = 8
redata: Time-Reversal Symmetry                      = F
redata: Spin spiral                                 = F
############################################################
This spin-orbit implementation uses a local approximation.
From 4.2 and onwards the full non-local approximation is implemented
You are strongly advised to use >=4.2 versions!
############################################################
redata: Long output                                 =   F
redata: Number of Atomic Species                    =        4
redata: Charge density info will appear in .RHO file
redata: Write Mulliken Pop.                         = NO
redata: Matel table size (NRTAB)                    =     1024
redata: Mesh Cutoff                                 =   340.0000 Ry
redata: Net charge of the system                    =     0.0000 |e|
redata: Min. number of SCF Iter                     =        1
redata: Max. number of SCF Iter                     =      200
redata: SCF mix quantity                            = Hamiltonian
redata: Mix DM or H after convergence               =   F
redata: Recompute H after scf cycle                 =   F
redata: Mix DM in first SCF step                    =   T
redata: Write Pulay info on disk                    =   F
redata: New DM Occupancy tolerance                  = 0.000000000001
redata: No kicks to SCF
redata: DM Mixing Weight for Kicks                  =     0.5000
redata: Require Harris convergence for SCF          =   F
redata: Harris energy tolerance for SCF             =     0.000100 eV
redata: Require DM convergence for SCF              =   T
redata: DM tolerance for SCF                        =     0.000008
redata: Require EDM convergence for SCF             =   F
redata: EDM tolerance for SCF                       =     0.001000 eV
redata: Require H convergence for SCF               =   T
redata: Hamiltonian tolerance for SCF               =     0.000001 eV
redata: Require (free) Energy convergence for SCF   =   F
redata: (free) Energy tolerance for SCF             =     0.000100 eV
redata: Using Saved Data (generic)                  =   F
redata: Use continuation files for DM               =   T
redata: Neglect nonoverlap interactions             =   F
redata: Method of Calculation                       = Diagonalization
redata: Electronic Temperature                      =   299.9978 K
redata: Fix the spin of the system                  =   F
redata: Dynamics option                             = Verlet MD run
redata: Initial MD time step                        =        1
redata:   Final MD time step                        =        1
redata: Length of MD time step                      =     0.5000 fs
redata: Initial Temperature of MD run               =     0.0000 K
redata: Perform a MD quench                         =   F
mix.SCF: Pulay mixing                            = Pulay
mix.SCF:    Variant                              = stable
mix.SCF:    History steps                        = 6
mix.SCF:    Linear mixing weight                 =     0.250000
mix.SCF:    Mixing weight                        =     0.250000
mix.SCF:    SVD condition                        = 0.1000E-07
mix.SCF:    Restart steps                        = 24
mix.SCF:    Restart save steps                   = 3
mix.SCF: Spin-component mixing                   all
redata: Save all siesta data in one NC              =   F
redata: ***********************************************************************

%block SCF.Mixers
  Pulay
%endblock SCF.Mixers

%block SCF.Mixer.Pulay
  # Mixing method
  method pulay
  variant stable

  # Mixing options
  weight 0.2500
  weight.linear 0.2500
  history 6
  restart 24
  restart.save 3
%endblock SCF.Mixer.Pulay

Size of DM history Fstack: 3
Total number of electrons:    98.000000
Total ionic charge:    98.000000

* ProcessorY, Blocksize:    2  24


* Orbital distribution balance (max,min):    48    24


Time-reversal symmetry not used.

siesta: k-grid: Number of k-points =     1
siesta: k-grid: Cutoff (effective) =     5.000 Ang
siesta: k-grid: Supercell and displacements
siesta: k-grid:    1   0   0      0.000
siesta: k-grid:    0   1   0      0.000
siesta: k-grid:    0   0   1      0.000

diag: Algorithm                                     = ELPA-1stage
diag: Parallel over k                               =   F
diag: Use parallel 2D distribution                  =   T
diag: Parallel block-size                           = 24
diag: Parallel distribution                         =     2 x     4
diag: Used triangular part                          = Lower
diag: Absolute tolerance                            =  0.100E-15
diag: Orthogonalization factor                      =  0.100E-05
diag: Memory factor                                 =  1.0000


ts: **************************************************************
ts: Save H and S matrices                           =    F
ts: Save DM and EDM matrices                        =    F
ts: Only save the overlap matrix S                  =    F
ts: **************************************************************

************************ Begin: TS CHECKS AND WARNINGS ************************
************************ End: TS CHECKS AND WARNINGS **************************


                     ====================================
                        Begin MD step =      1
                     ====================================

outcoor: Atomic coordinates (Ang):                          
    0.07497076    5.02541259    0.00000000   1       1  H
   -0.63151597    4.23537641    0.00000000   2       2  N
   -2.36180288    4.67674032    0.00000000   3       3  Si
   -2.51758256    6.16673258    0.00000000   1       4  H
   -3.88512450    3.11783280    0.00000000   3       5  Si
   -5.36831213    3.36066316    0.00000000   1       6  H
   -2.68673364    1.20455664    0.00000000   3       7  Si
   -3.45275910   -0.32816010    0.00000000   2       8  N
   -2.86251255   -1.28537313    0.00000000   1       9  H
   -4.50438142   -0.40862033    0.00000000   1      10  H
   -0.97053358    1.25973095    0.00000000   2      11  N
    0.10448904    2.59006979    0.00000000   3      12  Si
    1.71316236    2.57125953    0.00000000   4      13  O
    5.61644830   -7.44953905    0.00000000   1      14  H
    4.58206954   -7.23203760    0.00000000   2      15  N
    3.29666389   -8.49263600    0.00000000   3      16  Si
    3.80117524   -9.90371886    0.00000000   1      17  H
    1.65934232   -8.01362137    0.00000000   2      18  N
    1.68097912   -6.20463398    0.00000000   3      19  Si
    0.54543521   -4.28636135    0.00000000   3      20  Si
   -1.03431493   -3.94450034    0.00000000   4      21  O
    1.73226934   -2.87719605    0.00000000   2      22  N
    1.20957366   -1.92961761    0.00000000   1      23  H
    3.50853448   -2.77677601    0.00000000   3      24  Si
    4.13684451   -1.17938608    0.00000000   2      25  N
    3.54296161   -0.26248101    0.00000000   1      26  H
    5.18364407   -1.05231197    0.00000000   1      27  H
    4.63288658   -4.07521596    0.00000000   2      28  N
    3.79410501   -5.58634043    0.00000000   3      29  Si

outcell: Unit cell vectors (Ang):
       30.000000    0.000000    0.000000
        0.000000   45.000000    0.000000
        0.000000    0.000000   10.000000

outcell: Cell vector modules (Ang)   :   30.000000   45.000000   10.000000
outcell: Cell angles (23,13,12) (deg):     90.0000     90.0000     90.0000
outcell: Cell volume (Ang**3)        :  13500.0000
<dSpData1D:S at geom step 1
  <sparsity:sparsity for geom step 1
    nrows_g=297 nrows=48 sparsity=.1117 nnzs=9849, refcount: 8>
  <dData1D:(new from dSpData1D) n=9849, refcount: 1>
refcount: 1>
new_DM -- step:     1
Initializing Density Matrix...

Attempting to read DM from file... Failed...
DM filled with atomic data:
<dSpData2D:DM initialized from atoms
  <sparsity:sparsity for geom step 1
    nrows_g=297 nrows=48 sparsity=.1117 nnzs=9849, refcount: 9>
  <dData2D:DM n=9849 m=8, refcount: 1>
refcount: 1>
     spin moment: S , {S} =   56.00000   0.00000   0.00000  56.00000
No. of atoms with KB's overlaping orbs in proc 0. Max # of overlaps:      27     170

Initializing spin-orbit part of the Hamiltonian
  Adding spin-orbit effects for H 
  Adding spin-orbit effects for N 
  Adding spin-orbit effects for Si
  Adding spin-orbit effects for O 


New grid distribution:   1
           1       1:  180    1:  125    1:   15
           2       1:  180    1:  125   16:   30
           3       1:  180    1:  125   31:   45
           4       1:  180    1:  125   46:   60
           5       1:  180  126:  250    1:   15
           6       1:  180  126:  250   16:   30
           7       1:  180  126:  250   31:   45
           8       1:  180  126:  250   46:   60

InitMesh: MESH =   360 x   500 x   120 =    21600000
InitMesh: (bp) =   180 x   250 x    60 =     2700000
InitMesh: Mesh cutoff (required, used) =   340.000   341.206 Ry
ExtMesh (bp) on 0 =   288 x   225 x   123 =     7970400
New grid distribution:   2
           1       1:  154   32:  210    1:   60
           2       1:  154    1:   31    1:   60
           3       1:   22  228:  250    1:   60
           4     155:  180    1:   17    1:   60
           5     155:  180   18:  210    1:   60
           6      23:  180  211:  231    1:   60
           7      23:  180  232:  250    1:   60
           8       1:   22  211:  227    1:   60
New grid distribution:   3
           1       1:  140   26:  197    1:   60
           2       1:  140    1:   25    1:   60
           3       1:   34  224:  250    1:   60
           4     141:  180    1:   22    1:   60
           5     141:  180   23:  197    1:   60
           6      35:  180  198:  230    1:   60
           7      35:  180  231:  250    1:   60
           8       1:   34  198:  223    1:   60
Setting up quadratic distribution...
ExtMesh (bp) on 0 =   262 x   279 x   168 =    12280464
PhiOnMesh: Number of (b)points on node 0 =              1653960
PhiOnMesh: nlist on node 0 =              1553985

stepf: Fermi-Dirac step function

siesta: Program's energy decomposition (eV):
siesta: Ebs     =      -591.501432
siesta: Eions   =      3585.165840
siesta: Ena     =       381.822906
siesta: Ekin    =      3366.335372
siesta: Enl     =     -3294.978266
siesta: Eso     =        -0.003414
siesta: Edftu   =         0.000000
siesta: DEna    =       153.217379
siesta: DUscf   =        80.713957
siesta: DUext   =         0.000000
siesta: Exc     =     -1203.359535
siesta: eta*DQ  =         0.000000
siesta: Emadel  =         0.000000
siesta: Emeta   =         0.000000
siesta: Emolmec =         0.000000
siesta: Ekinion =         0.000000
siesta: Eharris =     -4023.767189
siesta: Etot    =     -4101.417441
siesta: FreeEng =     -4101.418467

        iscf     Eharris(eV)        E_KS(eV)     FreeEng(eV)     dDmax    Ef(eV) dHmax(eV)
   scf:    1    -4023.767189    -4101.417441    -4101.418467  0.965079 -4.903883 22.025971
     spin moment: S , {S} =    2.00577   0.00000  -0.00000   2.00577
timer: Routine,Calls,Time,% = IterSCF        1      11.232  30.18
   scf:    2    -4146.667078    -4136.267291    -4136.268265  0.457943 -4.143368 11.869636
     spin moment: S , {S} =    1.99524  -0.00000   0.00000   1.99524
   scf:    3    -4105.620602    -4133.277972    -4133.293511  0.431321 -4.312250 12.642485
     spin moment: S , {S} =    2.05965   0.00000   0.00000   2.05965
   scf:    4    -4150.187828    -4145.256018    -4145.256018  0.319394 -3.825597  6.272944
     spin moment: S , {S} =    0.00010   0.00000   0.00000   0.00010
   scf:    5    -4146.495630    -4145.970923    -4145.970923  0.037106 -3.599660  4.269273
     spin moment: S , {S} =    0.00006   0.00000   0.00000   0.00006
   scf:    6    -4146.688437    -4146.336697    -4146.336697  0.023607 -3.495405  2.195915
     spin moment: S , {S} =    0.00003   0.00000  -0.00000   0.00003
   scf:    7    -4146.680662    -4146.505055    -4146.505055  0.021413 -3.493800  0.948650
     spin moment: S , {S} =    0.00001   0.00000  -0.00000   0.00001
   scf:    8    -4146.627901    -4146.564403    -4146.564403  0.012697 -3.557520  0.543974
     spin moment: S , {S} =    0.00000  -0.00000   0.00000   0.00000
   scf:    9    -4146.603948    -4146.583513    -4146.583513  0.006836 -3.677982  0.410737
     spin moment: S , {S} =    0.00000  -0.00000  -0.00000   0.00000
   scf:   10    -4146.637998    -4146.604013    -4146.604013  0.022413 -3.678134  0.229865
     spin moment: S , {S} =    0.00000   0.00000  -0.00000  -0.00000
   scf:   11    -4146.607482    -4146.605769    -4146.605769  0.005236 -3.667316  0.069431
     spin moment: S , {S} =    0.00000  -0.00000  -0.00000  -0.00000
   scf:   12    -4146.607106    -4146.606447    -4146.606447  0.001288 -3.661016  0.028390
     spin moment: S , {S} =    0.00000  -0.00000  -0.00000  -0.00000
   scf:   13    -4146.606882    -4146.606661    -4146.606661  0.001183 -3.658651  0.017524
     spin moment: S , {S} =    0.00000   0.00000  -0.00000  -0.00000
   scf:   14    -4146.606911    -4146.606779    -4146.606779  0.001055 -3.657266  0.011590
     spin moment: S , {S} =    0.00000  -0.00000  -0.00000   0.00000
   scf:   15    -4146.606893    -4146.606832    -4146.606832  0.000990 -3.656932  0.008379
     spin moment: S , {S} =    0.00000  -0.00000  -0.00000   0.00000
   scf:   16    -4146.606897    -4146.606861    -4146.606861  0.000901 -3.657146  0.005735
     spin moment: S , {S} =    0.00000  -0.00000  -0.00000   0.00000
   scf:   17    -4146.606880    -4146.606869    -4146.606869  0.000483 -3.657098  0.004327
     spin moment: S , {S} =    0.00000  -0.00000  -0.00000   0.00000
   scf:   18    -4146.606879    -4146.606874    -4146.606874  0.000352 -3.657239  0.002655
     spin moment: S , {S} =    0.00000  -0.00000  -0.00000   0.00000
   scf:   19    -4146.606879    -4146.606876    -4146.606876  0.000280 -3.657292  0.001567
     spin moment: S , {S} =    0.00000  -0.00000  -0.00000   0.00000
   scf:   20    -4146.606878    -4146.606877    -4146.606877  0.000158 -3.657301  0.000978
     spin moment: S , {S} =    0.00000  -0.00000  -0.00000   0.00000
   scf:   21    -4146.606878    -4146.606877    -4146.606877  0.000157 -3.657306  0.000422
     spin moment: S , {S} =    0.00000  -0.00000  -0.00000   0.00000
   scf:   22    -4146.606878    -4146.606877    -4146.606877  0.000075 -3.657306  0.000193
     spin moment: S , {S} =    0.00000  -0.00000  -0.00000   0.00000
   scf:   23    -4146.606877    -4146.606877    -4146.606877  0.000025 -3.657313  0.000135
     spin moment: S , {S} =    0.00000  -0.00000  -0.00000   0.00000
   scf:   24    -4146.606877    -4146.606877    -4146.606877  0.000007 -3.657315  0.000071
     spin moment: S , {S} =    0.00000   0.00000  -0.00000   0.00000
mix: Pulay -- resetting history
   scf:   25    -4146.606877    -4146.606877    -4146.606877  0.000004 -3.657314  0.000040
     spin moment: S , {S} =    0.00000  -0.00000  -0.00000   0.00000
   scf:   26    -4146.606877    -4146.606877    -4146.606877  0.000003 -3.657312  0.000031
     spin moment: S , {S} =    0.00000  -0.00000  -0.00000   0.00000
   scf:   27    -4146.606877    -4146.606877    -4146.606877  0.000002 -3.657308  0.000022
     spin moment: S , {S} =    0.00000  -0.00000  -0.00000   0.00000
   scf:   28    -4146.606877    -4146.606877    -4146.606877  0.000002 -3.657306  0.000013
     spin moment: S , {S} =    0.00000  -0.00000  -0.00000  -0.00000
   scf:   29    -4146.606877    -4146.606877    -4146.606877  0.000001 -3.657305  0.000007
     spin moment: S , {S} =    0.00000  -0.00000  -0.00000   0.00000
   scf:   30    -4146.606877    -4146.606877    -4146.606877  0.000001 -3.657305  0.000003
     spin moment: S , {S} =    0.00000  -0.00000  -0.00000   0.00000
   scf:   31    -4146.606877    -4146.606877    -4146.606877  0.000001 -3.657305  0.000002
     spin moment: S , {S} =    0.00000  -0.00000  -0.00000  -0.00000
   scf:   32    -4146.606877    -4146.606877    -4146.606877  0.000000 -3.657305  0.000001
     spin moment: S , {S} =    0.00000  -0.00000  -0.00000   0.00000
   scf:   33    -4146.606877    -4146.606877    -4146.606877  0.000000 -3.657305  0.000001
     spin moment: S , {S} =    0.00000  -0.00000  -0.00000  -0.00000

SCF Convergence by DM+H criterion
max |DM_out - DM_in|         :     0.0000000915
max |H_out - H_in|      (eV) :     0.0000005906
SCF cycle converged after 33 iterations

Using DM_out to compute the final energy and forces
No. of atoms with KB's overlaping orbs in proc 0. Max # of overlaps:      27     170

siesta: E_KS(eV) =            -4146.6069

siesta: E_KS - E_eggbox =     -4146.6069
     spin moment: S , {S} =    0.00000  -0.00000  -0.00000  -0.00000

siesta: Atomic forces (eV/Ang):
     1    0.094873    0.078333   -0.000000
     2   -0.432233    0.263859   -0.000000
     3    0.355639   -0.038505    0.000000
     4   -0.064034    0.119398   -0.000000
     5   -0.179643   -0.181063   -0.000000
     6    0.029777    0.027245    0.000000
     7    1.045853    0.830118   -0.000000
     8    0.827772   -2.156557   -0.000000
     9   -1.169931    1.680880   -0.000000
    10    0.141937   -0.291028    0.000000
    11   -0.834858   -0.268895    0.000000
    12    1.007559   -0.225697    0.000000
    13    1.088329    1.999446   -0.000000
    14   -0.015733   -0.028421    0.000000
    15    0.096029    0.028142   -0.000000
    16    0.009661   -0.017455    0.000000
    17   -0.002966    0.045964   -0.000000
    18   -0.040192    0.036165   -0.000000
    19    0.224878    0.023245    0.000000
    20   -1.178480   -0.127825   -0.000000
    21    1.082231   -3.742052    0.000000
    22    0.252817    0.676865    0.000000
    23    0.218752   -0.530352   -0.000000
    24   -0.294453   -0.777718   -0.000000
    25   -0.496183    1.452154   -0.000000
    26    0.754175   -1.079666    0.000000
    27   -0.145330    0.085781    0.000000
    28    0.036622    0.601454   -0.000000
    29   -0.264872   -0.342994    0.000000
----------------------------------------
   Tot    2.147995   -1.859179    0.000000
----------------------------------------
   Max    3.742052
   Res    0.692974    sqrt( Sum f_i^2 / 3N )
----------------------------------------
   Max    3.742052    constrained

Stress tensor Voigt[x,y,z,yz,xz,xy] (kbar):        0.57        0.32       -0.03        0.00       -0.00       -0.51
(Free)E + p*V (eV/cell)    -4149.0058
Target enthalpy (eV/cell)    -4146.6069

siesta: Stress tensor (static) (eV/Ang**3):
         0.000355   -0.000320   -0.000000
        -0.000320    0.000199   -0.000000
        -0.000000    0.000000   -0.000021

siesta: Pressure (static):         -0.28470669  kBar

siesta: Stress tensor (total) (eV/Ang**3):
         0.000355   -0.000320   -0.000000
        -0.000320    0.000199   -0.000000
        -0.000000    0.000000   -0.000021

siesta: Pressure (total):         -0.28470669  kBar

siesta: Temp_ion =       0.000 K

siesta: Eigenvalues (eV):
ik =     1
  -21.8549  -21.8549  -21.6126  -21.6126  -21.4208  -21.4208  -21.3757  -21.3757  -21.0717  -21.0717
  -21.0410  -21.0410  -20.6125  -20.6125  -19.6136  -19.6136  -19.3460  -19.3460  -19.1999  -19.1999
  -14.6966  -14.6966  -13.7090  -13.7090  -13.2400  -13.2400  -12.9428  -12.9428  -12.8995  -12.8995
  -12.7644  -12.7644  -12.5820  -12.5820  -12.2626  -12.2626  -12.2238  -12.2238  -11.9587  -11.9587
  -11.1919  -11.1919  -10.7452  -10.7452  -10.5814  -10.5814  -10.5304  -10.5304  -10.0383  -10.0383
   -9.5109   -9.5109   -9.0733   -9.0733   -8.6890   -8.6890   -8.6095   -8.6095   -8.5544   -8.5544
   -8.4205   -8.4205   -8.3671   -8.3671   -7.9966   -7.9966   -7.7114   -7.7114   -7.6796   -7.6796
   -7.4738   -7.4738   -7.1687   -7.1687   -7.1006   -7.1006   -6.7206   -6.7206   -6.6580   -6.6580
   -6.4748   -6.4748   -6.3436   -6.3436   -6.0886   -6.0886   -5.9903   -5.9903   -5.9614   -5.9614
   -5.8563   -5.8563   -5.5358   -5.5358   -5.4299   -5.4299   -4.1462   -4.1462   -3.1684   -3.1684
   -2.2372   -2.2372   -2.1603   -2.1603   -2.1171   -2.1171   -1.7880   -1.7880   -1.7337   -1.7337
   -1.7082   -1.7082   -1.6859   -1.6859   -1.5308   -1.5308   -1.3404   -1.3404   -0.9559   -0.9559
   -0.7733   -0.7733   -0.6158   -0.6158   -0.2375   -0.2375   -0.1464   -0.1464    0.1918    0.1918
    0.5765    0.5765    0.6192    0.6192    0.6967    0.6967    0.8397    0.8397    0.9866    0.9866
    1.1452    1.1452    1.3549    1.3549    1.4772    1.4772    1.4882    1.4882    1.5956    1.5956
    1.8939    1.8939    1.9676    1.9676    2.0996    2.0996    2.4881    2.4881    2.8799    2.8799
    2.8853    2.8853    2.9062    2.9062    3.0379    3.0379    3.3533    3.3533    3.5418    3.5418
    3.5600    3.5600    3.9399    3.9399    4.0218    4.0218    4.1564    4.1564    4.4726    4.4726
    4.5118    4.5118    4.5777    4.5777    4.6466    4.6466    4.7777    4.7777    4.9385    4.9385
    5.0258    5.0258    5.1702    5.1702    5.4095    5.4095    5.5979    5.5979    5.7678    5.7678
    5.9291    5.9291    5.9494    5.9494    6.1283    6.1283    6.1517    6.1517    6.2688    6.2688
    6.3893    6.3893    6.5258    6.5258    6.6662    6.6662    6.8396    6.8396    6.9467    6.9467
    7.1124    7.1124    7.3408    7.3408    7.6044    7.6044    7.7278    7.7278    7.8782    7.8782
    8.0028    8.0028    8.0817    8.0817    8.1542    8.1542    8.4444    8.4444    8.5051    8.5051
    8.7310    8.7310    8.8945    8.8945    9.0002    9.0002    9.0493    9.0493    9.3130    9.3130
    9.3612    9.3612    9.4734    9.4734    9.9147    9.9147    9.9185    9.9185   10.0110   10.0110
   10.2217   10.2217   10.2907   10.2907   10.6129   10.6129   10.9358   10.9358   11.1387   11.1387
   11.1568   11.1568   11.2227   11.2227   11.3354   11.3354   11.8256   11.8256   11.8682   11.8682
   11.9837   11.9837   12.1274   12.1274   12.4273   12.4273   12.5787   12.5787   12.7670   12.7670
   12.8066   12.8066   12.9569   12.9569   13.5155   13.5155   13.5548   13.5548   13.8636   13.8636
   13.8741   13.8741   14.1850   14.1850   14.4849   14.4849   14.8652   14.8652   14.9125   14.9125
   15.0744   15.0744   15.4118   15.4118   16.1575   16.1575   16.6403   16.6403   16.7627   16.7627
   17.0801   17.0801   17.4735   17.4735   17.6651   17.6651   18.4352   18.4352   18.7204   18.7204
   18.7520   18.7520   19.2429   19.2429   19.5606   19.5606   20.0532   20.0532   20.3345   20.3345
   21.1154   21.1154   21.3907   21.3907   22.1144   22.1144   22.2167   22.2167   22.6222   22.6222
   22.9816   22.9816   23.5669   23.5669   23.8806   23.8806   23.9824   23.9824   24.1406   24.1406
   25.0715   25.0715   25.5072   25.5072   26.1620   26.1620   26.9234   26.9234   27.8329   27.8329
   28.9002   28.9002   29.0798   29.0798   29.1976   29.1976   29.6222   29.6222   30.0239   30.0239
   30.2733   30.2733   30.4037   30.4037   30.6588   30.6588   30.9916   30.9916   31.1282   31.1282
   31.2197   31.2197   31.5379   31.5379   31.7758   31.7758   32.1518   32.1518   32.1713   32.1713
   33.4581   33.4581   34.1070   34.1070   34.6000   34.6000   34.7903   34.7903   34.8711   34.8711
   34.9530   34.9530   35.2115   35.2115   35.6629   35.6629   35.7397   35.7397   35.8444   35.8444
   37.0789   37.0789   37.4011   37.4011   37.4480   37.4480   37.6127   37.6127   38.2158   38.2158
   38.4102   38.4102   39.0465   39.0465   39.3902   39.3902   39.6082   39.6082   40.2926   40.2926
   40.6081   40.6081   40.6134   40.6134   40.8832   40.8832   40.9556   40.9556   41.4368   41.4368
   41.8678   41.8678   42.5983   42.5983   42.9575   42.9575   43.1674   43.1674   43.4684   43.4684
   43.5573   43.5573   43.9853   43.9853   44.2758   44.2758   44.4332   44.4332   44.5775   44.5775
   44.8154   44.8154   45.1351   45.1351   45.3665   45.3665   45.9607   45.9607   46.2210   46.2210
   46.8707   46.8707   47.4697   47.4697   47.5098   47.5098   48.8669   48.8669   49.6485   49.6485
   49.8277   49.8277   50.4391   50.4391   50.6027   50.6027   51.0306   51.0306   51.3090   51.3090
   51.5565   51.5565   52.5433   52.5433   52.6384   52.6384   53.5171   53.5171   54.4326   54.4326
   54.6347   54.6347   54.9611   54.9611   55.5303   55.5303   55.8340   55.8340   56.3021   56.3021
   56.4933   56.4933   56.6300   56.6300   56.8006   56.8006   58.6662   58.6662   59.2717   59.2717
   59.6519   59.6519   60.5339   60.5339   60.5651   60.5651   61.2786   61.2786   61.9100   61.9100
   62.0400   62.0400   62.3773   62.3773   62.7627   62.7627   64.9272   64.9272   66.6987   66.6987
   67.0421   67.0421   67.5430   67.5430   68.2186   68.2186   69.1085   69.1085   71.0309   71.0309
   74.0678   74.0678   81.7507   81.7507   91.4976   91.4976   92.1776   92.1776   93.4953   93.4953
   98.5564   98.5564   99.4157   99.4157  100.2241  100.2241  103.4364  103.4364  104.1121  104.1121
  110.5553  110.5553  112.5981  112.5981  124.2835  124.2835  126.4634  126.4634  130.0488  130.0488
  135.6701  135.6701  138.7375  138.7375
siesta: Fermi energy =      -3.657305 eV

siesta: Program's energy decomposition (eV):
siesta: Ebs     =     -1122.152784
siesta: Eions   =      3585.165840
siesta: Ena     =       381.822906
siesta: Ekin    =      2902.428535
siesta: Enl     =     -2787.374296
siesta: Eso     =        -0.004274
siesta: Edftu   =         0.000000
siesta: DEna    =        47.031550
siesta: DUscf   =        14.210383
siesta: DUext   =         0.000000
siesta: Exc     =     -1119.555842
siesta: eta*DQ  =         0.000000
siesta: Emadel  =         0.000000
siesta: Emeta   =         0.000000
siesta: Emolmec =         0.000000
siesta: Ekinion =         0.000000
siesta: Eharris =     -4146.606877
siesta: Etot    =     -4146.606877
siesta: FreeEng =     -4146.606877

siesta: Final energy (eV):
siesta:  Band Struct. =   -1122.152784
siesta:       Kinetic =    2902.428535
siesta:       Hartree =   14453.562257
siesta:       Edftu   =       0.000000
siesta:       Eso     =      -0.004274
siesta:    Ext. field =       0.000000
siesta:   Exch.-corr. =   -1119.555842
siesta:  Ion-electron =  -31478.395730
siesta:       Ion-ion =   11095.358176
siesta:       Ekinion =       0.000000
siesta:         Total =   -4146.606877
siesta:         Fermi =      -3.657305

siesta: Atomic forces (eV/Ang):
siesta:      1    0.094873    0.078333   -0.000000
siesta:      2   -0.432233    0.263859   -0.000000
siesta:      3    0.355639   -0.038505    0.000000
siesta:      4   -0.064034    0.119398   -0.000000
siesta:      5   -0.179643   -0.181063   -0.000000
siesta:      6    0.029777    0.027245    0.000000
siesta:      7    1.045853    0.830118   -0.000000
siesta:      8    0.827772   -2.156557   -0.000000
siesta:      9   -1.169931    1.680880   -0.000000
siesta:     10    0.141937   -0.291028    0.000000
siesta:     11   -0.834858   -0.268895    0.000000
siesta:     12    1.007559   -0.225697    0.000000
siesta:     13    1.088329    1.999446   -0.000000
siesta:     14   -0.015733   -0.028421    0.000000
siesta:     15    0.096029    0.028142   -0.000000
siesta:     16    0.009661   -0.017455    0.000000
siesta:     17   -0.002966    0.045964   -0.000000
siesta:     18   -0.040192    0.036165   -0.000000
siesta:     19    0.224878    0.023245    0.000000
siesta:     20   -1.178480   -0.127825   -0.000000
siesta:     21    1.082231   -3.742052    0.000000
siesta:     22    0.252817    0.676865    0.000000
siesta:     23    0.218752   -0.530352   -0.000000
siesta:     24   -0.294453   -0.777718   -0.000000
siesta:     25   -0.496183    1.452154   -0.000000
siesta:     26    0.754175   -1.079666    0.000000
siesta:     27   -0.145330    0.085781    0.000000
siesta:     28    0.036622    0.601454   -0.000000
siesta:     29   -0.264872   -0.342994    0.000000
siesta: ----------------------------------------
siesta:    Tot    2.147995   -1.859179    0.000000

siesta: Stress tensor (static) (eV/Ang**3):
siesta:     0.000355   -0.000320   -0.000000
siesta:    -0.000320    0.000199   -0.000000
siesta:    -0.000000    0.000000   -0.000021

siesta: Cell volume =      13500.000000 Ang**3

siesta: Pressure (static):
siesta:                Solid            Molecule  Units
siesta:          -0.00000194         -0.00000531  Ry/Bohr**3
siesta:          -0.00017770         -0.00048718  eV/Ang**3
siesta:          -0.28470669         -0.78056326  kBar
(Free)E+ p_basis*V_orbitals  =       -4126.756460
(Free)Eharris+ p_basis*V_orbitals  =       -4126.756460
     spin moment: S , {S} =    0.00000  -0.00000  -0.00000  -0.00000

siesta: Electric dipole (a.u.)  =   -0.018701    1.508364   -0.000000
siesta: Electric dipole (Debye) =   -0.047534    3.833881   -0.000000

cite: Please see "GC.bib" for an exhaustive BiBTeX file.
cite: Please clearly indicate Siesta version in published work: v4.1.5-1-g384057250
cite: This calculation has made use of the following articles
cite: which are encouraged to be cited in a published work.
        Primary SIESTA paper
          DOI: www.doi.org/10.1088/0953-8984/14/11/302
        Spin-orbit coupling (on-site approximation)
          DOI: www.doi.org/10.1088/0953-8984/19/19/489001


WARNING: alloc-realloc-dealloc name mismatch
         Name: atomlist isa
         Size:              -116. Bytes
         Node:     0
         Subsequent mismatches will not be reported
>> End of run:   1-FEB-2024  22:16:45
Job completed
