Siesta Version  : v4.1.5-1-g384057250
Architecture    : gcc
Compiler version: GNU Fortran (Debian 10.2.1-6) 10.2.1 20210110
Compiler flags  : mpifort -O2 -fPIC -ftree-vectorize -fallow-argument-mismatch
PP flags        : -DFC_HAVE_ABORT -DMPI -DSIESTA__FLOOK -DSIESTA__METIS -DSIESTA__MUMPS -DCDF -DNCDF -DNCDF_4 -DNCDF_PARALLEL -DSIESTA__MRRR -DSIESTA__ELPA
Libraries       : libncdf.a libfdict.a  -lflookall -ldl -lnetcdff -lnetcdf -lhdf5_hl -lhdf5 -lhdf5_fortran -lz -lscalapack-openmpi -lopenblas -lmetis -lzmumps -lcmumps -ldmumps -lmumps_common -lpord -lsmumps -lesmumps -lscotch -lscotcherr -fopenmp -lelpa
PARALLEL version
NetCDF support
NetCDF-4 support
NetCDF-4 MPI-IO support
METIS ordering support
Lua support

* Running on 6 nodes in parallel
>> Start of run:  22-MAY-2023   9:59:50

                           ***********************       
                           *  WELCOME TO SIESTA  *       
                           ***********************       

reinit: Reading from standard input
reinit: Dumped input in INPUT_TMP.93393
************************** Dump of input data file ****************************
SystemLabel      AT
NumberOfAtoms    30
NumberOfSpecies  4
%block ChemicalSpeciesLabel
    1    1  H
    2    7  N
    3   14  Si
    4    8  O
%endblock ChemicalSpeciesLabel
# Single point calculation
MD.TypeOfRun                CG
MD.Steps                    0
SCF.MustConverge            F # In case it does not. There can be 2 very close atoms
AtomicCoordinatesFormat NotScaledCartesianAng
%block AtomicCoordinatesAndAtomicSpecies
2.582377650    -5.776830440   0.000000000       1
1.654759240    -5.269361980   0.000000000       2
0.063128840    -6.101704590   0.000000000       3
0.119223240    -7.596849500   0.000000000       1
-1.376892050   -5.182603740   0.000000000       2
-0.824371900   -3.460866440   0.000000000       3
-1.170571480   -1.270002100   0.000000000       3
-2.706933680   -0.417515780   0.000000000       2
-2.754569660   0.634858620    0.000000000       1
-3.637675640   -0.909967860   0.000000000       1
0.218091790    -0.234193970   0.000000000       2
1.872004100    -0.697162300   0.000000000       3
2.828001130    0.461464770    0.000000000       1
2.648150080    -2.255024470   0.000000000       2
1.391921380    -3.454727220   0.000000000       3
1.878844495    5.952541031    0.000000000       2
0.551472975    7.162745331    0.000000000       3
1.191474245    8.524063571    0.000000000       1
-1.534272965   6.492213981    0.000000000       3
-3.563835565   7.622330171    0.000000000       3
-3.409599795   8.782560381    0.940305280       1
-4.549770285   6.600409551    0.512613700       1
-3.980050525   8.098556021    -1.366678340      1
-1.467777545   4.218237361    0.000000000       3
-2.506826275   3.025177861    0.000000000       4
0.189214035    3.584262171    0.000000000       2
0.171196665    2.521817341    0.000000000       1
1.812817105    4.181332381    0.000000000       3
3.007833275    3.166907181    0.000000000       4
2.878881865    6.298048131    0.000000000       1
%endblock AtomicCoordinatesAndAtomicSpecies
%include ../../../Defaults.fdf
************************** End of input data file *****************************

reinit: -----------------------------------------------------------------------
reinit: System Name: 
reinit: -----------------------------------------------------------------------
reinit: System Label: AT
reinit: -----------------------------------------------------------------------

initatom: Reading input for the pseudopotentials and atomic orbitals ----------
Species number:   1 Atomic number:    1 Label: H
Species number:   2 Atomic number:    7 Label: N
Species number:   3 Atomic number:   14 Label: Si
Species number:   4 Atomic number:    8 Label: O

Ground state valence configuration:   1s01
Reading pseudopotential information in formatted form from H.psf

Pseudopotential generated from a relativistic atomic calculation

Valence configuration for pseudopotential generation:
1s( 1.00) rc: 0.01
2p( 0.00) rc: 0.60
3d( 0.00) rc: 1.99
4f( 0.00) rc: 2.49
Ground state valence configuration:   2s02  2p03
Reading pseudopotential information in formatted form from N.psf

Pseudopotential generated from a relativistic atomic calculation

Valence configuration for pseudopotential generation:
2s( 2.00) rc: 0.94
2p( 3.00) rc: 0.59
3d( 0.00) rc: 3.46
4f( 0.00) rc: 2.47
Ground state valence configuration:   3s02  3p02
Reading pseudopotential information in formatted form from Si.psf

Pseudopotential generated from a relativistic atomic calculation

Valence configuration for pseudopotential generation:
3s( 2.00) rc: 1.67
3p( 2.00) rc: 2.04
3d( 0.00) rc: 2.89
4f( 0.00) rc: 2.49
Ground state valence configuration:   2s02  2p04
Reading pseudopotential information in formatted form from O.psf

Pseudopotential generated from a relativistic atomic calculation

Valence configuration for pseudopotential generation:
2s( 2.00) rc: 0.45
2p( 4.00) rc: 0.92
3d( 0.00) rc: 2.24
4f( 0.00) rc: 0.25
For H, standard SIESTA heuristics set lmxkb to 2
 (one more than the basis l, including polarization orbitals).
Use PS.lmax or PS.KBprojectors blocks to override.
For N, standard SIESTA heuristics set lmxkb to 3
 (one more than the basis l, including polarization orbitals).
Use PS.lmax or PS.KBprojectors blocks to override.
For Si, standard SIESTA heuristics set lmxkb to 3
 (one more than the basis l, including polarization orbitals).
Use PS.lmax or PS.KBprojectors blocks to override.
For O, standard SIESTA heuristics set lmxkb to 3
 (one more than the basis l, including polarization orbitals).
Use PS.lmax or PS.KBprojectors blocks to override.

<basis_specs>
===============================================================================
H                    Z=   1    Mass=  1.0100        Charge= 0.17977+309
Lmxo=0 Lmxkb= 2    BasisType=split      Semic=F
L=0  Nsemic=0  Cnfigmx=1
          i=1  nzeta=2  polorb=1  (1s)
            splnorm:   0.62000    
               vcte:    0.0000    
               rinn:    0.0000    
               qcoe:    0.0000    
               qyuk:    0.0000    
               qwid:   0.10000E-01
                rcs:    0.0000      0.0000    
            lambdas:    1.0000      1.0000    
-------------------------------------------------------------------------------
L=0  Nkbl=1  erefs: 0.17977+309
L=1  Nkbl=1  erefs: 0.17977+309
L=2  Nkbl=1  erefs: 0.17977+309
===============================================================================
</basis_specs>

atom: Called for H                     (Z =   1)

read_vps: Pseudopotential generation method:
read_vps: ATM4.2.7  Troullier-Martins                       
Valence charge for ps generation:    1.00000

xc_check: Exchange-correlation functional:
xc_check: GGA Perdew, Burke & Ernzerhof 1996
V l=0 = -2*Zval/r beyond r=  0.0098
V l=1 = -2*Zval/r beyond r=  0.5817
V l=2 = -2*Zval/r beyond r=  1.9372
All V_l potentials equal beyond r=  1.9372
This should be close to max(r_c) in ps generation
All pots = -2*Zval/r beyond r=  1.9372

VLOCAL1: 99.0% of the norm of Vloc inside     11.567 Ry
VLOCAL1: 99.9% of the norm of Vloc inside     26.362 Ry
atom: Maximum radius for 4*pi*r*r*local-pseudopot. charge    2.25106
atom: Maximum radius for r*vlocal+2*Zval:    1.91306
GHOST: No ghost state for L =  0
GHOST: No ghost state for L =  1
GHOST: No ghost state for L =  2

KBgen: Kleinman-Bylander projectors: 
   l= 0   rc=  2.036604   el= -0.477180   Ekb= -6.081590   kbcos= -0.277285
   l= 1   rc=  2.195416   el=  0.001076   Ekb= -0.926943   kbcos= -0.034643
   l= 2   rc=  2.251056   el=  0.002010   Ekb= -0.130941   kbcos= -0.009788

KBgen: Total number of Kleinman-Bylander projectors:    9
atom: -------------------------------------------------------------------------

atom: SANKEY-TYPE ORBITALS:
atom: Selected multiple-zeta basis: split     

SPLIT: Orbitals with angular momentum L= 0

SPLIT: Basis orbitals for state 1s

SPLIT: PAO cut-off radius determined from an
SPLIT: energy shift=  0.002000 Ry

   izeta = 1
                 lambda =    1.000000
                     rc =    6.518340
                 energy =   -0.475305
                kinetic =    0.912139
    potential(screened) =   -1.387444
       potential(ionic) =   -1.907295

   izeta = 2
                 rmatch =    2.141150
              splitnorm =    0.620000
                 energy =    0.566467
                kinetic =    3.772856
    potential(screened) =   -3.206389
       potential(ionic) =   -3.759093

POLgen: Perturbative polarization orbital with L=  1

POLgen: Polarization orbital for state 1s

   izeta = 1
                     rc =    6.518340
                 energy =    0.533861
                kinetic =    1.121086
    potential(screened) =   -0.587225
       potential(ionic) =   -1.053027
atom: Total number of Sankey-type orbitals:  5

atm_pop: Valence configuration (for local Pseudopot. screening):
 1s( 1.00)                                                            
Vna: chval, zval:    1.00000   1.00000

Vna:  Cut-off radius for the neutral-atom potential:   6.518340

atom: _________________________________________________________________________

<basis_specs>
===============================================================================
N                    Z=   7    Mass=  14.010        Charge= 0.17977+309
Lmxo=1 Lmxkb= 3    BasisType=split      Semic=F
L=0  Nsemic=0  Cnfigmx=2
          i=1  nzeta=2  polorb=0  (2s)
            splnorm:   0.28000    
               vcte:    0.0000    
               rinn:    0.0000    
               qcoe:    0.0000    
               qyuk:    0.0000    
               qwid:   0.10000E-01
                rcs:    0.0000      0.0000    
            lambdas:    1.0000      1.0000    
L=1  Nsemic=0  Cnfigmx=2
          i=1  nzeta=2  polorb=1  (2p)
            splnorm:   0.28000    
               vcte:    0.0000    
               rinn:    0.0000    
               qcoe:    0.0000    
               qyuk:    0.0000    
               qwid:   0.10000E-01
                rcs:    0.0000      0.0000    
            lambdas:    1.0000      1.0000    
-------------------------------------------------------------------------------
L=0  Nkbl=1  erefs: 0.17977+309
L=1  Nkbl=1  erefs: 0.17977+309
L=2  Nkbl=1  erefs: 0.17977+309
L=3  Nkbl=1  erefs: 0.17977+309
===============================================================================
</basis_specs>

atom: Called for N                     (Z =   7)

read_vps: Pseudopotential generation method:
read_vps: ATM4.2.7  Troullier-Martins                       
Valence charge for ps generation:    5.00000

xc_check: Exchange-correlation functional:
xc_check: GGA Perdew, Burke & Ernzerhof 1996
V l=0 = -2*Zval/r beyond r=  1.2889
V l=1 = -2*Zval/r beyond r=  1.2889
V l=2 = -2*Zval/r beyond r=  3.4178
V l=3 = -2*Zval/r beyond r=  2.4084
All V_l potentials equal beyond r=  3.3753
This should be close to max(r_c) in ps generation
All pots = -2*Zval/r beyond r=  3.4178

VLOCAL1: 99.0% of the norm of Vloc inside      3.810 Ry
VLOCAL1: 99.9% of the norm of Vloc inside      8.683 Ry
atom: Maximum radius for 4*pi*r*r*local-pseudopot. charge    4.02088
atom: Maximum radius for r*vlocal+2*Zval:    3.54838
GHOST: No ghost state for L =  0
GHOST: No ghost state for L =  1
GHOST: No ghost state for L =  2
GHOST: No ghost state for L =  3

KBgen: Kleinman-Bylander projectors: 
   l= 0   rc=  3.417763   el= -1.365098   Ekb= -4.433130   kbcos= -0.707855
   l= 1   rc=  3.375302   el= -0.521201   Ekb=-13.264039   kbcos= -0.535594
   l= 2   rc=  3.872880   el=  0.001991   Ekb= -0.641094   kbcos= -0.062456
   l= 3   rc=  3.970931   el=  0.003093   Ekb= -0.474517   kbcos= -0.018236

KBgen: Total number of Kleinman-Bylander projectors:   16
atom: -------------------------------------------------------------------------

atom: SANKEY-TYPE ORBITALS:
atom: Selected multiple-zeta basis: split     

SPLIT: Orbitals with angular momentum L= 0

SPLIT: Basis orbitals for state 2s

SPLIT: PAO cut-off radius determined from an
SPLIT: energy shift=  0.002000 Ry

   izeta = 1
                 lambda =    1.000000
                     rc =    4.730425
                 energy =   -1.363399
                kinetic =    1.245246
    potential(screened) =   -2.608645
       potential(ionic) =   -8.121105

   izeta = 2
                 rmatch =    2.531849
              splitnorm =    0.280000
                 energy =   -0.959908
                kinetic =    2.409435
    potential(screened) =   -3.369343
       potential(ionic) =   -9.427975

SPLIT: Orbitals with angular momentum L= 1

SPLIT: Basis orbitals for state 2p

SPLIT: PAO cut-off radius determined from an
SPLIT: energy shift=  0.002000 Ry

   izeta = 1
                 lambda =    1.000000
                     rc =    5.924108
                 energy =   -0.519262
                kinetic =    3.672940
    potential(screened) =   -4.192202
       potential(ionic) =   -9.518354

   izeta = 2
                 rmatch =    2.531849
              splitnorm =    0.280000
                 energy =   -0.104258
                kinetic =    6.807538
    potential(screened) =   -6.911796
       potential(ionic) =  -13.149920

POLgen: Perturbative polarization orbital with L=  2

POLgen: Polarization orbital for state 2p

   izeta = 1
                     rc =    5.924108
                 energy =    1.427508
                kinetic =    2.872379
    potential(screened) =   -1.444871
       potential(ionic) =   -5.563644
atom: Total number of Sankey-type orbitals: 13

atm_pop: Valence configuration (for local Pseudopot. screening):
 2s( 2.00)                                                            
 2p( 3.00)                                                            
Vna: chval, zval:    5.00000   5.00000

Vna:  Cut-off radius for the neutral-atom potential:   5.924108

atom: _________________________________________________________________________

<basis_specs>
===============================================================================
Si                   Z=  14    Mass=  28.090        Charge= 0.17977+309
Lmxo=1 Lmxkb= 3    BasisType=split      Semic=F
L=0  Nsemic=0  Cnfigmx=3
          i=1  nzeta=2  polorb=0  (3s)
            splnorm:   0.28000    
               vcte:    0.0000    
               rinn:    0.0000    
               qcoe:    0.0000    
               qyuk:    0.0000    
               qwid:   0.10000E-01
                rcs:    0.0000      0.0000    
            lambdas:    1.0000      1.0000    
L=1  Nsemic=0  Cnfigmx=3
          i=1  nzeta=2  polorb=1  (3p)
            splnorm:   0.28000    
               vcte:    0.0000    
               rinn:    0.0000    
               qcoe:    0.0000    
               qyuk:    0.0000    
               qwid:   0.10000E-01
                rcs:    0.0000      0.0000    
            lambdas:    1.0000      1.0000    
-------------------------------------------------------------------------------
L=0  Nkbl=1  erefs: 0.17977+309
L=1  Nkbl=1  erefs: 0.17977+309
L=2  Nkbl=1  erefs: 0.17977+309
L=3  Nkbl=1  erefs: 0.17977+309
===============================================================================
</basis_specs>

atom: Called for Si                    (Z =  14)

read_vps: Pseudopotential generation method:
read_vps: ATM4.2.7  Troullier-Martins                       
Valence charge for ps generation:    4.00000

xc_check: Exchange-correlation functional:
xc_check: GGA Perdew, Burke & Ernzerhof 1996
V l=0 = -2*Zval/r beyond r=  2.7826
V l=1 = -2*Zval/r beyond r=  2.7826
V l=2 = -2*Zval/r beyond r=  2.9253
V l=3 = -2*Zval/r beyond r=  2.7826
All V_l potentials equal beyond r=  2.8530
This should be close to max(r_c) in ps generation
All pots = -2*Zval/r beyond r=  2.9253

VLOCAL1: 99.0% of the norm of Vloc inside      5.333 Ry
VLOCAL1: 99.9% of the norm of Vloc inside     12.154 Ry
atom: Maximum radius for 4*pi*r*r*local-pseudopot. charge    3.39869
atom: Maximum radius for r*vlocal+2*Zval:    2.96205
GHOST: No ghost state for L =  0
GHOST: No ghost state for L =  1
GHOST: No ghost state for L =  2
GHOST: No ghost state for L =  3

KBgen: Kleinman-Bylander projectors: 
   l= 0   rc=  3.075247   el= -0.794092   Ekb=  5.879390   kbcos=  0.167461
   l= 1   rc=  3.153101   el= -0.300068   Ekb=  2.642817   kbcos=  0.058301
   l= 2   rc=  3.273594   el=  0.001958   Ekb= -1.185135   kbcos= -0.104411
   l= 3   rc=  3.232927   el=  0.003046   Ekb= -0.497174   kbcos= -0.015889

KBgen: Total number of Kleinman-Bylander projectors:   16
atom: -------------------------------------------------------------------------

atom: SANKEY-TYPE ORBITALS:
atom: Selected multiple-zeta basis: split     

SPLIT: Orbitals with angular momentum L= 0

SPLIT: Basis orbitals for state 3s

SPLIT: PAO cut-off radius determined from an
SPLIT: energy shift=  0.002000 Ry

   izeta = 1
                 lambda =    1.000000
                     rc =    6.429618
                 energy =   -0.792283
                kinetic =    0.525293
    potential(screened) =   -1.317576
       potential(ionic) =   -3.744923

   izeta = 2
                 rmatch =    3.998416
              splitnorm =    0.280000
                 energy =   -0.583081
                kinetic =    1.069570
    potential(screened) =   -1.652651
       potential(ionic) =   -4.235185

SPLIT: Orbitals with angular momentum L= 1

SPLIT: Basis orbitals for state 3p

SPLIT: PAO cut-off radius determined from an
SPLIT: energy shift=  0.002000 Ry

   izeta = 1
                 lambda =    1.000000
                     rc =    8.464845
                 energy =   -0.298236
                kinetic =    0.785360
    potential(screened) =   -1.083596
       potential(ionic) =   -3.273779

   izeta = 2
                 rmatch =    4.587816
              splitnorm =    0.280000
                 energy =   -0.131871
                kinetic =    1.403687
    potential(screened) =   -1.535557
       potential(ionic) =   -4.015310

POLgen: Perturbative polarization orbital with L=  2

POLgen: Polarization orbital for state 3p

   izeta = 1
                     rc =    8.464845
                 energy =    0.321949
                kinetic =    1.055677
    potential(screened) =   -0.733728
       potential(ionic) =   -2.672950
atom: Total number of Sankey-type orbitals: 13

atm_pop: Valence configuration (for local Pseudopot. screening):
 3s( 2.00)                                                            
 3p( 2.00)                                                            
Vna: chval, zval:    4.00000   4.00000

Vna:  Cut-off radius for the neutral-atom potential:   8.464845

atom: _________________________________________________________________________

<basis_specs>
===============================================================================
O                    Z=   8    Mass=  16.000        Charge= 0.17977+309
Lmxo=1 Lmxkb= 3    BasisType=split      Semic=F
L=0  Nsemic=0  Cnfigmx=2
          i=1  nzeta=2  polorb=0  (2s)
            splnorm:   0.28000    
               vcte:    0.0000    
               rinn:    0.0000    
               qcoe:    0.0000    
               qyuk:    0.0000    
               qwid:   0.10000E-01
                rcs:    0.0000      0.0000    
            lambdas:    1.0000      1.0000    
L=1  Nsemic=0  Cnfigmx=2
          i=1  nzeta=2  polorb=1  (2p)
            splnorm:   0.28000    
               vcte:    0.0000    
               rinn:    0.0000    
               qcoe:    0.0000    
               qyuk:    0.0000    
               qwid:   0.10000E-01
                rcs:    0.0000      0.0000    
            lambdas:    1.0000      1.0000    
-------------------------------------------------------------------------------
L=0  Nkbl=1  erefs: 0.17977+309
L=1  Nkbl=1  erefs: 0.17977+309
L=2  Nkbl=1  erefs: 0.17977+309
L=3  Nkbl=1  erefs: 0.17977+309
===============================================================================
</basis_specs>

atom: Called for O                     (Z =   8)

read_vps: Pseudopotential generation method:
read_vps: ATM4.2.7  Troullier-Martins                       
Valence charge for ps generation:    6.00000

xc_check: Exchange-correlation functional:
xc_check: GGA Perdew, Burke & Ernzerhof 1996
V l=0 = -2*Zval/r beyond r=  1.1000
V l=1 = -2*Zval/r beyond r=  1.1000
V l=2 = -2*Zval/r beyond r=  2.2154
V l=3 = -2*Zval/r beyond r=  1.1000
All V_l potentials equal beyond r=  2.2154
This should be close to max(r_c) in ps generation
All pots = -2*Zval/r beyond r=  2.2154

VLOCAL1: 99.0% of the norm of Vloc inside      8.845 Ry
VLOCAL1: 99.9% of the norm of Vloc inside     20.157 Ry
atom: Maximum radius for 4*pi*r*r*local-pseudopot. charge    2.67231
atom: Maximum radius for r*vlocal+2*Zval:    2.32897
GHOST: No ghost state for L =  0
GHOST: No ghost state for L =  1
GHOST: No ghost state for L =  2
GHOST: No ghost state for L =  3

KBgen: Kleinman-Bylander projectors: 
   l= 0   rc=  2.243238   el= -1.759686   Ekb=**********   kbcos= -0.171774
   l= 1   rc=  2.328968   el= -0.663873   Ekb=-14.506792   kbcos= -0.519897
   l= 2   rc=  2.573941   el=  0.002031   Ekb= -1.137373   kbcos= -0.019581
   l= 3   rc=  2.606321   el=  0.003153   Ekb= -1.013546   kbcos= -0.003122

KBgen: Total number of Kleinman-Bylander projectors:   16
atom: -------------------------------------------------------------------------

atom: SANKEY-TYPE ORBITALS:
atom: Selected multiple-zeta basis: split     

SPLIT: Orbitals with angular momentum L= 0

SPLIT: Basis orbitals for state 2s

SPLIT: PAO cut-off radius determined from an
SPLIT: energy shift=  0.002000 Ry

   izeta = 1
                 lambda =    1.000000
                     rc =    4.243912
                 energy =   -1.758270
                kinetic =    3.286084
    potential(screened) =   -5.044353
       potential(ionic) =  -12.921184

   izeta = 2
                 rmatch =    2.187845
              splitnorm =    0.280000
                 energy =   -0.885018
                kinetic =    8.134434
    potential(screened) =   -9.019452
       potential(ionic) =  -17.710645

SPLIT: Orbitals with angular momentum L= 1

SPLIT: Basis orbitals for state 2p

SPLIT: PAO cut-off radius determined from an
SPLIT: energy shift=  0.002000 Ry

   izeta = 1
                 lambda =    1.000000
                     rc =    5.314825
                 energy =   -0.661986
                kinetic =    4.917472
    potential(screened) =   -5.579458
       potential(ionic) =  -13.236259

   izeta = 2
                 rmatch =    2.160663
              splitnorm =    0.280000
                 energy =   -0.068760
                kinetic =    9.183374
    potential(screened) =   -9.252135
       potential(ionic) =  -18.274251

POLgen: Perturbative polarization orbital with L=  2

POLgen: Polarization orbital for state 2p

   izeta = 1
                     rc =    5.314825
                 energy =    1.970580
                kinetic =    3.886128
    potential(screened) =   -1.915547
       potential(ionic) =   -7.749584
atom: Total number of Sankey-type orbitals: 13

atm_pop: Valence configuration (for local Pseudopot. screening):
 2s( 2.00)                                                            
 2p( 4.00)                                                            
Vna: chval, zval:    6.00000   6.00000

Vna:  Cut-off radius for the neutral-atom potential:   5.314825

atom: _________________________________________________________________________

prinput: Basis input ----------------------------------------------------------

PAO.BasisType split     

%block ChemicalSpeciesLabel
    1    1 H                       # Species index, atomic number, species label
    2    7 N                       # Species index, atomic number, species label
    3   14 Si                      # Species index, atomic number, species label
    4    8 O                       # Species index, atomic number, species label
%endblock ChemicalSpeciesLabel

%block PAO.Basis                 # Define Basis set
H                     1                    # Species label, number of l-shells
 n=1   0   2 P   1                   # n, l, Nzeta, Polarization, NzetaPol
   6.518      2.141   
   1.000      1.000   
N                     2                    # Species label, number of l-shells
 n=2   0   2                         # n, l, Nzeta 
   4.730      2.532   
   1.000      1.000   
 n=2   1   2 P   1                   # n, l, Nzeta, Polarization, NzetaPol
   5.924      2.532   
   1.000      1.000   
Si                    2                    # Species label, number of l-shells
 n=3   0   2                         # n, l, Nzeta 
   6.430      3.998   
   1.000      1.000   
 n=3   1   2 P   1                   # n, l, Nzeta, Polarization, NzetaPol
   8.465      4.588   
   1.000      1.000   
O                     2                    # Species label, number of l-shells
 n=2   0   2                         # n, l, Nzeta 
   4.244      2.188   
   1.000      1.000   
 n=2   1   2 P   1                   # n, l, Nzeta, Polarization, NzetaPol
   5.315      2.161   
   1.000      1.000   
%endblock PAO.Basis

prinput: ----------------------------------------------------------------------

Dumping basis to NetCDF file H.ion.nc
Dumping basis to NetCDF file N.ion.nc
Dumping basis to NetCDF file Si.ion.nc
Dumping basis to NetCDF file O.ion.nc
coor:   Atomic-coordinates input format  =     Cartesian coordinates
coor:                                          (in Angstroms)

siesta: Atomic coordinates (Bohr) and species
siesta:      4.87999 -10.91663   0.00000  1        1
siesta:      3.12704  -9.95765   0.00000  2        2
siesta:      0.11930 -11.53056   0.00000  3        3
siesta:      0.22530 -14.35597   0.00000  1        4
siesta:     -2.60195  -9.79371   0.00000  2        5
siesta:     -1.55784  -6.54009   0.00000  3        6
siesta:     -2.21206  -2.39996   0.00000  3        7
siesta:     -5.11537  -0.78899   0.00000  2        8
siesta:     -5.20538   1.19971   0.00000  1        9
siesta:     -6.87421  -1.71959   0.00000  1       10
siesta:      0.41213  -0.44256   0.00000  2       11
siesta:      3.53758  -1.31745   0.00000  3       12
siesta:      5.34415   0.87204   0.00000  1       13
siesta:      5.00428  -4.26138   0.00000  2       14
siesta:      2.63035  -6.52849   0.00000  3       15
siesta:      3.55050  11.24868   0.00000  2       16
siesta:      1.04213  13.53563   0.00000  3       17
siesta:      2.25156  16.10815   0.00000  1       18
siesta:     -2.89936  12.26851   0.00000  3       19
siesta:     -6.73468  14.40412   0.00000  3       20
siesta:     -6.44321  16.59664   1.77692  1       21
siesta:     -8.59782  12.47297   0.96870  1       22
siesta:     -7.52121  15.30406  -2.58265  1       23
siesta:     -2.77370   7.97132   0.00000  3       24
siesta:     -4.73722   5.71676   0.00000  4       25
siesta:      0.35756   6.77328   0.00000  2       26
siesta:      0.32351   4.76555   0.00000  1       27
siesta:      3.42573   7.90158   0.00000  3       28
siesta:      5.68398   5.98459   0.00000  4       29
siesta:      5.44030  11.90159   0.00000  1       30

siesta: Automatic unit cell vectors (Ang):
siesta:   15.834107    0.000000    0.000000
siesta:    0.000000   25.605934    0.000000
siesta:    0.000000    0.000000   10.224979

siesta: System type = molecule  

initatomlists: Number of atoms, orbitals, and projectors:     30   302   403

siesta: ******************** Simulation parameters ****************************
siesta:
siesta: The following are some of the parameters of the simulation.
siesta: A complete list of the parameters used, including default values,
siesta: can be found in file out.fdf
siesta:
redata: Spin configuration                          = spin-orbit
redata: Number of spin components                   = 8
redata: Time-Reversal Symmetry                      = F
redata: Spin spiral                                 = F
############################################################
This spin-orbit implementation uses a local approximation.
From 4.2 and onwards the full non-local approximation is implemented
You are strongly advised to use >=4.2 versions!
############################################################
redata: Long output                                 =   F
redata: Number of Atomic Species                    =        4
redata: Charge density info will appear in .RHO file
redata: Write Mulliken Pop.                         = Atomic and Orbital charges
redata: Matel table size (NRTAB)                    =     1024
redata: Mesh Cutoff                                 =   340.0000 Ry
redata: Net charge of the system                    =     0.0000 |e|
redata: Min. number of SCF Iter                     =        1
redata: Max. number of SCF Iter                     =      200
redata: SCF mix quantity                            = Hamiltonian
redata: Mix DM or H after convergence               =   F
redata: Recompute H after scf cycle                 =   F
redata: Mix DM in first SCF step                    =   T
redata: Write Pulay info on disk                    =   F
redata: New DM Occupancy tolerance                  = 0.000000000001
redata: No kicks to SCF
redata: DM Mixing Weight for Kicks                  =     0.5000
redata: Require Harris convergence for SCF          =   F
redata: Harris energy tolerance for SCF             =     0.000100 eV
redata: Require DM convergence for SCF              =   T
redata: DM tolerance for SCF                        =     0.000008
redata: Require EDM convergence for SCF             =   F
redata: EDM tolerance for SCF                       =     0.001000 eV
redata: Require H convergence for SCF               =   T
redata: Hamiltonian tolerance for SCF               =     0.000001 eV
redata: Require (free) Energy convergence for SCF   =   F
redata: (free) Energy tolerance for SCF             =     0.000100 eV
redata: Using Saved Data (generic)                  =   F
redata: Use continuation files for DM               =   F
redata: Neglect nonoverlap interactions             =   F
redata: Method of Calculation                       = Diagonalization
redata: Electronic Temperature                      =   299.9978 K
redata: Fix the spin of the system                  =   F
redata: Dynamics option                             = Single-point calculation
mix.SCF: Pulay mixing                            = Pulay
mix.SCF:    Variant                              = stable
mix.SCF:    History steps                        = 6
mix.SCF:    Linear mixing weight                 =     0.250000
mix.SCF:    Mixing weight                        =     0.250000
mix.SCF:    SVD condition                        = 0.1000E-07
mix.SCF:    Restart steps                        = 24
mix.SCF:    Restart save steps                   = 3
mix.SCF: Spin-component mixing                   all
redata: Save all siesta data in one NC              =   F
redata: ***********************************************************************

%block SCF.Mixers
  Pulay
%endblock SCF.Mixers

%block SCF.Mixer.Pulay
  # Mixing method
  method pulay
  variant stable

  # Mixing options
  weight 0.2500
  weight.linear 0.2500
  history 6
  restart 24
  restart.save 3
%endblock SCF.Mixer.Pulay

DM_history_depth set to one: no extrapolation allowed by default for geometry relaxation
Size of DM history Fstack: 1
Total number of electrons:    98.000000
Total ionic charge:    98.000000

* ProcessorY, Blocksize:    2  24


* Orbital distribution balance (max,min):    62    48


Time-reversal symmetry not used.

siesta: k-grid: Number of k-points =     1
siesta: k-grid: Cutoff (effective) =     5.112 Ang
siesta: k-grid: Supercell and displacements
siesta: k-grid:    1   0   0      0.000
siesta: k-grid:    0   1   0      0.000
siesta: k-grid:    0   0   1      0.000

diag: Algorithm                                     = ELPA-1stage
diag: Parallel over k                               =   F
diag: Use parallel 2D distribution                  =   T
diag: Parallel block-size                           = 24
diag: Parallel distribution                         =     2 x     3
diag: Used triangular part                          = Lower
diag: Absolute tolerance                            =  0.100E-15
diag: Orthogonalization factor                      =  0.100E-05
diag: Memory factor                                 =  1.0000


ts: **************************************************************
ts: Save H and S matrices                           =    F
ts: Save DM and EDM matrices                        =    F
ts: Only save the overlap matrix S                  =    F
ts: **************************************************************

************************ Begin: TS CHECKS AND WARNINGS ************************
************************ End: TS CHECKS AND WARNINGS **************************


                     ====================================
                        Single-point calculation
                     ====================================

outcoor: Atomic coordinates (Ang):                          
    2.58237765   -5.77683044    0.00000000   1       1  H
    1.65475924   -5.26936198    0.00000000   2       2  N
    0.06312884   -6.10170459    0.00000000   3       3  Si
    0.11922324   -7.59684950    0.00000000   1       4  H
   -1.37689205   -5.18260374    0.00000000   2       5  N
   -0.82437190   -3.46086644    0.00000000   3       6  Si
   -1.17057148   -1.27000210    0.00000000   3       7  Si
   -2.70693368   -0.41751578    0.00000000   2       8  N
   -2.75456966    0.63485862    0.00000000   1       9  H
   -3.63767564   -0.90996786    0.00000000   1      10  H
    0.21809179   -0.23419397    0.00000000   2      11  N
    1.87200410   -0.69716230    0.00000000   3      12  Si
    2.82800113    0.46146477    0.00000000   1      13  H
    2.64815008   -2.25502447    0.00000000   2      14  N
    1.39192138   -3.45472722    0.00000000   3      15  Si
    1.87884450    5.95254103    0.00000000   2      16  N
    0.55147298    7.16274533    0.00000000   3      17  Si
    1.19147424    8.52406357    0.00000000   1      18  H
   -1.53427296    6.49221398    0.00000000   3      19  Si
   -3.56383557    7.62233017    0.00000000   3      20  Si
   -3.40959980    8.78256038    0.94030528   1      21  H
   -4.54977029    6.60040955    0.51261370   1      22  H
   -3.98005052    8.09855602   -1.36667834   1      23  H
   -1.46777754    4.21823736    0.00000000   3      24  Si
   -2.50682627    3.02517786    0.00000000   4      25  O
    0.18921404    3.58426217    0.00000000   2      26  N
    0.17119666    2.52181734    0.00000000   1      27  H
    1.81281710    4.18133238    0.00000000   3      28  Si
    3.00783327    3.16690718    0.00000000   4      29  O
    2.87888186    6.29804813    0.00000000   1      30  H

outcell: Unit cell vectors (Ang):
       15.834107    0.000000    0.000000
        0.000000   25.605934    0.000000
        0.000000    0.000000   10.224979

outcell: Cell vector modules (Ang)   :   15.834107   25.605934   10.224979
outcell: Cell angles (23,13,12) (deg):     90.0000     90.0000     90.0000
outcell: Cell volume (Ang**3)        :   4145.6881
<dSpData1D:S at geom step 0
  <sparsity:sparsity for geom step 0
    nrows_g=302 nrows=62 sparsity=.1320 nnzs=12039, refcount: 8>
  <dData1D:(new from dSpData1D) n=12039, refcount: 1>
refcount: 1>
new_DM -- step:     1
Initializing Density Matrix...
DM filled with atomic data:
<dSpData2D:DM initialized from atoms
  <sparsity:sparsity for geom step 0
    nrows_g=302 nrows=62 sparsity=.1320 nnzs=12039, refcount: 9>
  <dData2D:DM n=12039 m=8, refcount: 1>
refcount: 1>
     spin moment: S , {S} =   56.00000   0.00000   0.00000  56.00000
No. of atoms with KB's overlaping orbs in proc 0. Max # of overlaps:      24     178

Initializing spin-orbit part of the Hamiltonian
  Adding spin-orbit effects for H 
  Adding spin-orbit effects for N 
  Adding spin-orbit effects for Si
  Adding spin-orbit effects for O 


New grid distribution:   1
           1       1:   90    1:   72    1:   20
           2       1:   90    1:   72   21:   40
           3       1:   90    1:   72   41:   60
           4       1:   90   73:  144    1:   20
           5       1:   90   73:  144   21:   40
           6       1:   90   73:  144   41:   60

InitMesh: MESH =   180 x   288 x   120 =     6220800
InitMesh: (bp) =    90 x   144 x    60 =      777600
InitMesh: Mesh cutoff (required, used) =   340.000   349.627 Ry
ExtMesh (bp) on 0 =   194 x   176 x   128 =     4370432
New grid distribution:   2
           1      14:   90   25:   44    1:   60
           2       1:   12   45:  144    1:   60
           3       1:   13    1:   44    1:   60
           4      13:   90   45:  123    1:   60
           5      14:   90    1:   24    1:   60
           6      13:   90  124:  144    1:   60
New grid distribution:   3
           1       1:   18   54:  144    1:   60
           2      23:   90   30:   53    1:   60
           3       1:   22    1:   53    1:   60
           4      19:   90   54:  117    1:   60
           5      23:   90    1:   29    1:   60
           6      19:   90  118:  144    1:   60
Setting up quadratic distribution...
ExtMesh (bp) on 0 =   181 x   124 x   168 =     3770592
PhiOnMesh: Number of (b)points on node 0 =                92400
PhiOnMesh: nlist on node 0 =              1749963

stepf: Fermi-Dirac step function

siesta: Program's energy decomposition (eV):
siesta: Ebs     =      -619.959078
siesta: Eions   =      3553.971015
siesta: Ena     =       377.729581
siesta: Ekin    =      3179.412031
siesta: Enl     =     -2994.885617
siesta: Eso     =        -0.003926
siesta: Edftu   =         0.000000
siesta: DEna    =       130.266231
siesta: DUscf   =        75.324823
siesta: DUext   =         0.000000
siesta: Exc     =     -1170.564716
siesta: eta*DQ  =         0.000000
siesta: Emadel  =         0.000000
siesta: Emeta   =         0.000000
siesta: Emolmec =         0.000000
siesta: Ekinion =         0.000000
siesta: Eharris =     -3885.897259
siesta: Etot    =     -3956.692607
siesta: FreeEng =     -3956.696803

        iscf     Eharris(eV)        E_KS(eV)     FreeEng(eV)     dDmax    Ef(eV) dHmax(eV)
   scf:    1    -3885.897259    -3956.692607    -3956.696803  0.970966 -4.941150 21.174868
     spin moment: S , {S} =    2.03168   0.00003   0.00001   2.03168
timer: Routine,Calls,Time,% = IterSCF        1       5.522  21.10
   scf:    2    -3999.880253    -3990.536152    -3990.536154  0.456364 -4.351337 10.225094
     spin moment: S , {S} =    2.00010  -0.00001   0.00004   2.00010
   scf:    3    -3992.187225    -3995.503774    -3995.525389  0.417379 -4.239856  7.601261
     spin moment: S , {S} =    0.29009   0.00001   0.00000   0.29009
   scf:    4    -3999.681099    -3997.860450    -3997.860450  0.048876 -3.937311  5.308572
     spin moment: S , {S} =    0.00009   0.00001  -0.00000   0.00009
   scf:    5    -3999.388204    -3998.653993    -3998.653993  0.032701 -3.859068  2.774292
     spin moment: S , {S} =    0.00005   0.00000  -0.00000   0.00005
   scf:    6    -3999.296112    -3998.975574    -3998.975576  0.028351 -3.889668  1.133707
     spin moment: S , {S} =    0.00003   0.00000  -0.00000   0.00003
   scf:    7    -3999.196833    -3999.082142    -3999.082160  0.017574 -3.935999  0.458909
     spin moment: S , {S} =    0.00001   0.00000  -0.00000   0.00001
   scf:    8    -3999.150891    -3999.115248    -3999.115346  0.009422 -3.962152  0.222911
     spin moment: S , {S} =    0.00020   0.00000  -0.00000  -0.00020
   scf:    9    -3999.149828    -3999.131522    -3999.131778  0.007115 -3.973146  0.112927
     spin moment: S , {S} =    0.00069   0.00000   0.00000  -0.00069
   scf:   10    -3999.150711    -3999.140292    -3999.140671  0.007273 -3.975783  0.074756
     spin moment: S , {S} =    0.00078   0.00000   0.00000  -0.00078
   scf:   11    -3999.148301    -3999.143895    -3999.144287  0.005750 -3.974368  0.042764
     spin moment: S , {S} =    0.00029   0.00000   0.00000  -0.00029
   scf:   12    -3999.146820    -3999.145201    -3999.145596  0.004036 -3.973555  0.030210
     spin moment: S , {S} =    0.00006   0.00000   0.00000  -0.00006
   scf:   13    -3999.146301    -3999.145689    -3999.146080  0.002868 -3.972892  0.023244
     spin moment: S , {S} =    0.00001   0.00000   0.00000  -0.00001
   scf:   14    -3999.146197    -3999.145906    -3999.146287  0.002374 -3.972331  0.012630
     spin moment: S , {S} =    0.00001   0.00000   0.00000  -0.00001
   scf:   15    -3999.146040    -3999.145962    -3999.146342  0.001357 -3.972265  0.007188
     spin moment: S , {S} =    0.00001   0.00000   0.00000  -0.00001
   scf:   16    -3999.145995    -3999.145977    -3999.146356  0.000581 -3.972392  0.004273
     spin moment: S , {S} =    0.00001   0.00000   0.00000  -0.00001
   scf:   17    -3999.145994    -3999.145985    -3999.146363  0.000483 -3.972515  0.002797
     spin moment: S , {S} =    0.00001   0.00000   0.00000  -0.00001
   scf:   18    -3999.145993    -3999.145988    -3999.146366  0.000352 -3.972588  0.001405
     spin moment: S , {S} =    0.00000   0.00000   0.00000  -0.00000
   scf:   19    -3999.145991    -3999.145990    -3999.146368  0.000214 -3.972578  0.000756
     spin moment: S , {S} =    0.00000   0.00000   0.00000   0.00000
   scf:   20    -3999.145991    -3999.145990    -3999.146368  0.000125 -3.972538  0.000502
     spin moment: S , {S} =    0.00000   0.00000   0.00000   0.00000
   scf:   21    -3999.145990    -3999.145990    -3999.146368  0.000068 -3.972525  0.000405
     spin moment: S , {S} =    0.00000   0.00000   0.00000   0.00000
   scf:   22    -3999.145990    -3999.145990    -3999.146368  0.000022 -3.972527  0.000286
     spin moment: S , {S} =    0.00000   0.00000   0.00000   0.00000
   scf:   23    -3999.145990    -3999.145990    -3999.146368  0.000023 -3.972537  0.000166
     spin moment: S , {S} =    0.00000   0.00000   0.00000  -0.00000
   scf:   24    -3999.145990    -3999.145990    -3999.146368  0.000016 -3.972541  0.000098
     spin moment: S , {S} =    0.00000   0.00000   0.00000  -0.00000
mix: Pulay -- resetting history
   scf:   25    -3999.145990    -3999.145990    -3999.146368  0.000009 -3.972540  0.000055
     spin moment: S , {S} =    0.00000  -0.00000   0.00000  -0.00000
   scf:   26    -3999.145990    -3999.145990    -3999.146368  0.000005 -3.972538  0.000025
     spin moment: S , {S} =    0.00000  -0.00000   0.00000  -0.00000
   scf:   27    -3999.145990    -3999.145990    -3999.146368  0.000003 -3.972537  0.000009
     spin moment: S , {S} =    0.00000  -0.00000   0.00000  -0.00000
   scf:   28    -3999.145990    -3999.145990    -3999.146368  0.000001 -3.972537  0.000006
     spin moment: S , {S} =    0.00000  -0.00000   0.00000  -0.00000
   scf:   29    -3999.145990    -3999.145990    -3999.146368  0.000001 -3.972537  0.000004
     spin moment: S , {S} =    0.00000  -0.00000   0.00000  -0.00000
   scf:   30    -3999.145990    -3999.145990    -3999.146368  0.000000 -3.972537  0.000002
     spin moment: S , {S} =    0.00000  -0.00000   0.00000  -0.00000
   scf:   31    -3999.145990    -3999.145990    -3999.146368  0.000000 -3.972537  0.000001
     spin moment: S , {S} =    0.00000  -0.00000   0.00000  -0.00000
   scf:   32    -3999.145990    -3999.145990    -3999.146368  0.000000 -3.972537  0.000001
     spin moment: S , {S} =    0.00000  -0.00000   0.00000  -0.00000

SCF Convergence by DM+H criterion
max |DM_out - DM_in|         :     0.0000000692
max |H_out - H_in|      (eV) :     0.0000008080
SCF cycle converged after 32 iterations

Using DM_out to compute the final energy and forces
No. of atoms with KB's overlaping orbs in proc 0. Max # of overlaps:      24     178

siesta: E_KS(eV) =            -3999.1460

siesta: E_KS - E_eggbox =     -3999.1460
     spin moment: S , {S} =    0.00000  -0.00000   0.00000  -0.00000

siesta: Atomic forces (eV/Ang):
     1   -0.056276    0.015092    0.000003
     2   -0.006325   -0.057952   -0.000004
     3    0.007603    0.046426   -0.000002
     4   -0.021980   -0.003488    0.000005
     5    0.005530   -0.041991   -0.000010
     6    0.078631    0.004386    0.000028
     7   -0.400610    0.175402    0.000030
     8    0.160893   -0.206980   -0.000155
     9    0.062175    0.271112    0.000258
    10    0.116036    0.056715    0.000024
    11    0.005202    0.148186   -0.000053
    12    0.266340    0.114085   -0.000016
    13   -0.149969   -0.127629   -0.000006
    14   -0.060938   -0.082705    0.000017
    15    0.002311    0.051756   -0.000010
    16    0.020677    0.093641    0.008009
    17    0.029246   -0.073048   -0.039878
    18   -0.081573    0.085586    0.008353
    19   -0.050236    0.017321   -0.041406
    20    0.041173   -0.041851    0.024300
    21   -0.168637    0.203900    0.066721
    22   -0.066716    0.005117    0.027042
    23    0.112680   -0.005499   -0.042974
    24    0.266066   -0.096532   -0.026444
    25   -1.072402   -0.586819    0.002999
    26   -0.087558    0.215738    0.006629
    27    0.015891   -0.437317    0.002846
    28   -0.131766   -0.155686   -0.000846
    29   -2.774754    1.720913   -0.001109
    30    0.105570    0.208917    0.008189
----------------------------------------
   Tot   -3.833715    1.516795    0.002537
----------------------------------------
   Max    2.774754
   Res    0.383574    sqrt( Sum f_i^2 / 3N )
----------------------------------------
   Max    2.774754    constrained

Stress tensor Voigt[x,y,z,yz,xz,xy] (kbar):       -1.73       -0.19       -0.23       -0.05        0.05        0.29
(Free)E + p*V (eV/cell)    -3997.2906
Target enthalpy (eV/cell)    -3999.1464

mulliken: Atomic and Orbital Populations:

Species: H                   

Atom      Orb        Charge      Spin       Svec
----------------------------------------------------------------
    1  1 1s         0.50979   0.00000     -0.000  -0.000  -0.000
    1  2 1s         0.18791   0.00000      0.000   0.000  -0.000
    1  3 2Ppy       0.02809   0.00000     -0.000   0.000  -0.000
    1  4 2Ppz       0.04011   0.00000      0.000   0.000  -0.000
    1  5 2Ppx       0.02516   0.00000     -0.000   0.000  -0.000
    1     Total     0.79107   0.00000     -0.000   0.000  -0.000

    4  1 1s         1.02461   0.00000     -0.000   0.000   0.000
    4  2 1s         0.09497   0.00000     -0.000  -0.000  -0.000
    4  3 2Ppy       0.03896   0.00000     -0.000   0.000   0.000
    4  4 2Ppz       0.02004   0.00000      0.000  -0.000  -0.000
    4  5 2Ppx       0.01357   0.00000      0.000   0.000  -0.000
    4     Total     1.19215   0.00000     -0.000   0.000   0.000

    9  1 1s         0.46258   0.00000     -0.000  -0.000  -0.000
    9  2 1s         0.19626   0.00000     -0.000   0.000  -0.000
    9  3 2Ppy       0.04202   0.00000     -0.000  -0.000  -0.000
    9  4 2Ppz       0.04537   0.00000     -0.000   0.000  -0.000
    9  5 2Ppx       0.01138   0.00000     -0.000  -0.000  -0.000
    9     Total     0.75761   0.00000     -0.000  -0.000  -0.000

   10  1 1s         0.48883   0.00000      0.000   0.000  -0.000
   10  2 1s         0.19501   0.00000     -0.000  -0.000  -0.000
   10  3 2Ppy       0.00746   0.00000     -0.000  -0.000  -0.000
   10  4 2Ppz       0.05333   0.00000     -0.000  -0.000  -0.000
   10  5 2Ppx       0.02997   0.00000     -0.000  -0.000  -0.000
   10     Total     0.77461   0.00000     -0.000  -0.000  -0.000

   13  1 1s         0.97267   0.00000     -0.000   0.000   0.000
   13  2 1s         0.10534   0.00000      0.000  -0.000  -0.000
   13  3 2Ppy       0.03333   0.00000     -0.000   0.000   0.000
   13  4 2Ppz       0.01408   0.00000     -0.000  -0.000  -0.000
   13  5 2Ppx       0.01853   0.00000     -0.000  -0.000   0.000
   13     Total     1.14395   0.00000     -0.000   0.000   0.000

   18  1 1s         1.04922   0.00000     -0.000   0.000   0.000
   18  2 1s         0.08386   0.00000      0.000  -0.000  -0.000
   18  3 2Ppy       0.02792   0.00000     -0.000  -0.000  -0.000
   18  4 2Ppz       0.01889   0.00000      0.000  -0.000  -0.000
   18  5 2Ppx       0.01759   0.00000      0.000  -0.000   0.000
   18     Total     1.19749   0.00000     -0.000  -0.000   0.000

   21  1 1s         1.06628   0.00000      0.000   0.000   0.000
   21  2 1s         0.08262   0.00000     -0.000  -0.000  -0.000
   21  3 2Ppy       0.02233   0.00000     -0.000   0.000  -0.000
   21  4 2Ppz       0.02109   0.00000      0.000  -0.000  -0.000
   21  5 2Ppx       0.01156   0.00000      0.000  -0.000  -0.000
   21     Total     1.20389   0.00000      0.000   0.000   0.000

   22  1 1s         1.05279   0.00000     -0.000  -0.000   0.000
   22  2 1s         0.08337   0.00000      0.000   0.000  -0.000
   22  3 2Ppy       0.02006   0.00000      0.000  -0.000   0.000
   22  4 2Ppz       0.01771   0.00000     -0.000  -0.000  -0.000
   22  5 2Ppx       0.01711   0.00000      0.000  -0.000   0.000
   22     Total     1.19104   0.00000     -0.000  -0.000   0.000

   23  1 1s         1.06458   0.00000      0.000   0.000   0.000
   23  2 1s         0.08225   0.00000     -0.000  -0.000  -0.000
   23  3 2Ppy       0.01685   0.00000     -0.000  -0.000  -0.000
   23  4 2Ppz       0.02464   0.00000     -0.000   0.000   0.000
   23  5 2Ppx       0.01346   0.00000      0.000  -0.000   0.000
   23     Total     1.20178   0.00000      0.000   0.000   0.000

   27  1 1s         0.45430   0.00000     -0.000   0.000  -0.000
   27  2 1s         0.19060   0.00000      0.000  -0.000  -0.000
   27  3 2Ppy       0.03293   0.00000     -0.000   0.000  -0.000
   27  4 2Ppz       0.02292   0.00000     -0.000  -0.000  -0.000
   27  5 2Ppx       0.02830   0.00000      0.000  -0.000  -0.000
   27     Total     0.72906   0.00000     -0.000  -0.000  -0.000

   30  1 1s         0.48519   0.00000     -0.000  -0.000  -0.000
   30  2 1s         0.18899   0.00000     -0.000   0.000  -0.000
   30  3 2Ppy       0.02723   0.00000      0.000  -0.000  -0.000
   30  4 2Ppz       0.03446   0.00000      0.000  -0.000  -0.000
   30  5 2Ppx       0.02365   0.00000     -0.000  -0.000  -0.000
   30     Total     0.75952   0.00000     -0.000  -0.000  -0.000

----------------------------------------------------------------
Total              10.94216   0.00000      0.000  -0.000   0.000


Species: N                   

Atom      Orb        Charge      Spin       Svec
----------------------------------------------------------------
    2  1 2s         1.38021   0.00000      0.000  -0.000  -0.000
    2  2 2s         0.12709   0.00000     -0.000   0.000   0.000
    2  3 2py        1.06867   0.00000      0.000  -0.000   0.000
    2  4 2pz        1.49492   0.00000      0.000   0.000  -0.000
    2  5 2px        1.01654   0.00000      0.000   0.000   0.000
    2  6 2py        0.19593   0.00000     -0.000   0.000  -0.000
    2  7 2pz        0.01444   0.00000     -0.000   0.000  -0.000
    2  8 2px        0.21029   0.00000     -0.000  -0.000   0.000
    2  9 3Pdxy      0.00678   0.00000      0.000   0.000  -0.000
    2 10 3Pdyz      0.00608   0.00000      0.000   0.000  -0.000
    2 11 3Pdz2      0.00153   0.00000     -0.000  -0.000  -0.000
    2 12 3Pdxz      0.00304   0.00000     -0.000   0.000  -0.000
    2 13 3Pdx2-y2   0.00298   0.00000      0.000  -0.000  -0.000
    2     Total     5.52851   0.00000      0.000   0.000   0.000

    5  1 2s         1.55769   0.00000     -0.000   0.000   0.000
    5  2 2s         0.08141   0.00000      0.000  -0.000  -0.000
    5  3 2py        0.90417   0.00000      0.000   0.000   0.000
    5  4 2pz        1.22271   0.00000      0.000   0.000   0.000
    5  5 2px        1.14279   0.00000     -0.000  -0.000   0.000
    5  6 2py        0.22984   0.00000     -0.000  -0.000  -0.000
    5  7 2pz        0.05523   0.00000     -0.000  -0.000  -0.000
    5  8 2px        0.14615   0.00000     -0.000   0.000  -0.000
    5  9 3Pdxy      0.00854   0.00000     -0.000  -0.000   0.000
    5 10 3Pdyz      0.00706   0.00000      0.000  -0.000   0.000
    5 11 3Pdz2      0.00190   0.00000      0.000   0.000   0.000
    5 12 3Pdxz      0.01128   0.00000      0.000   0.000  -0.000
    5 13 3Pdx2-y2   0.00919   0.00000      0.000   0.000   0.000
    5     Total     5.37795   0.00000     -0.000   0.000   0.000

    8  1 2s         1.27863   0.00000     -0.000   0.000   0.000
    8  2 2s         0.17415   0.00000      0.000  -0.000   0.000
    8  3 2py        1.07946   0.00000     -0.000  -0.000   0.000
    8  4 2pz        1.55878   0.00000      0.000   0.000  -0.000
    8  5 2px        0.99697   0.00000     -0.000  -0.000   0.000
    8  6 2py        0.19340   0.00000      0.000   0.000   0.000
    8  7 2pz        0.02732   0.00000     -0.000  -0.000  -0.000
    8  8 2px        0.22988   0.00000     -0.000   0.000   0.000
    8  9 3Pdxy      0.00283   0.00000      0.000  -0.000  -0.000
    8 10 3Pdyz      0.00090   0.00000     -0.000  -0.000  -0.000
    8 11 3Pdz2      0.00262   0.00000     -0.000  -0.000   0.000
    8 12 3Pdxz      0.00239   0.00000      0.000  -0.000  -0.000
    8 13 3Pdx2-y2   0.00414   0.00000      0.000   0.000  -0.000
    8     Total     5.55146   0.00000      0.000   0.000   0.000

   11  1 2s         1.45895   0.00000     -0.000  -0.000   0.000
   11  2 2s         0.11220   0.00000      0.000   0.000  -0.000
   11  3 2py        1.24510   0.00000      0.000  -0.000   0.000
   11  4 2pz        1.30262   0.00000      0.000   0.000   0.000
   11  5 2px        0.80762   0.00000      0.000  -0.000   0.000
   11  6 2py        0.10046   0.00000     -0.000  -0.000  -0.000
   11  7 2pz        0.04228   0.00000     -0.000  -0.000  -0.000
   11  8 2px        0.31569   0.00000      0.000   0.000  -0.000
   11  9 3Pdxy      0.00726   0.00000      0.000   0.000   0.000
   11 10 3Pdyz      0.00569   0.00000      0.000   0.000  -0.000
   11 11 3Pdz2      0.00038   0.00000      0.000  -0.000  -0.000
   11 12 3Pdxz      0.00499   0.00000     -0.000  -0.000  -0.000
   11 13 3Pdx2-y2   0.00491   0.00000      0.000  -0.000  -0.000
   11     Total     5.40816   0.00000      0.000   0.000   0.000

   14  1 2s         1.50246   0.00000     -0.000  -0.000   0.000
   14  2 2s         0.10437   0.00000      0.000   0.000   0.000
   14  3 2py        0.84538   0.00000      0.000   0.000   0.000
   14  4 2pz        1.23761   0.00000      0.000   0.000   0.000
   14  5 2px        1.17090   0.00000      0.000   0.000   0.000
   14  6 2py        0.27742   0.00000     -0.000  -0.000  -0.000
   14  7 2pz        0.05464   0.00000     -0.000  -0.000  -0.000
   14  8 2px        0.13389   0.00000      0.000   0.000  -0.000
   14  9 3Pdxy      0.00942   0.00000      0.000   0.000  -0.000
   14 10 3Pdyz      0.00483   0.00000     -0.000   0.000  -0.000
   14 11 3Pdz2      0.00149   0.00000      0.000   0.000   0.000
   14 12 3Pdxz      0.01067   0.00000     -0.000   0.000  -0.000
   14 13 3Pdx2-y2   0.00803   0.00000      0.000   0.000   0.000
   14     Total     5.36110   0.00000     -0.000   0.000   0.000

   16  1 2s         1.37158   0.00000     -0.000   0.000   0.000
   16  2 2s         0.12956   0.00000      0.000  -0.000   0.000
   16  3 2py        0.99141   0.00000      0.000  -0.000   0.000
   16  4 2pz        1.54656   0.00000     -0.000   0.000   0.000
   16  5 2px        1.07955   0.00000     -0.000   0.000   0.000
   16  6 2py        0.23973   0.00000     -0.000   0.000  -0.000
   16  7 2pz        0.00334   0.00000     -0.000  -0.000  -0.000
   16  8 2px        0.18083   0.00000      0.000  -0.000  -0.000
   16  9 3Pdxy      0.00165   0.00000     -0.000  -0.000   0.000
   16 10 3Pdyz      0.00475   0.00000      0.000   0.000  -0.000
   16 11 3Pdz2      0.00095   0.00000     -0.000  -0.000   0.000
   16 12 3Pdxz      0.00235   0.00000     -0.000   0.000  -0.000
   16 13 3Pdx2-y2   0.00606   0.00000     -0.000   0.000  -0.000
   16     Total     5.55831   0.00000     -0.000   0.000   0.000

   26  1 2s         1.35987   0.00000      0.000  -0.000   0.000
   26  2 2s         0.13176   0.00000     -0.000  -0.000  -0.000
   26  3 2py        1.11920   0.00000     -0.000  -0.000   0.000
   26  4 2pz        1.52334   0.00000     -0.000  -0.000   0.000
   26  5 2px        0.93031   0.00000     -0.000   0.000   0.000
   26  6 2py        0.17216   0.00000      0.000   0.000   0.000
   26  7 2pz        0.00514   0.00000     -0.000   0.000  -0.000
   26  8 2px        0.27228   0.00000      0.000   0.000  -0.000
   26  9 3Pdxy      0.00075   0.00000     -0.000  -0.000  -0.000
   26 10 3Pdyz      0.00090   0.00000      0.000   0.000  -0.000
   26 11 3Pdz2     -0.00132   0.00000     -0.000   0.000  -0.000
   26 12 3Pdxz      0.00456   0.00000      0.000   0.000  -0.000
   26 13 3Pdx2-y2   0.00220   0.00000     -0.000   0.000  -0.000
   26     Total     5.52114   0.00000     -0.000   0.000   0.000

----------------------------------------------------------------
Total              49.24879   0.00000     -0.000   0.000   0.000


Species: Si                  

Atom      Orb        Charge      Spin       Svec
----------------------------------------------------------------
    3  1 3s         0.55059   0.00000      0.000  -0.000  -0.000
    3  2 3s         0.38737   0.00000     -0.000   0.000  -0.000
    3  3 3py        0.08293   0.00000     -0.000  -0.000  -0.000
    3  4 3pz        0.53885   0.00000     -0.000  -0.000  -0.000
    3  5 3px        0.36935   0.00000     -0.000   0.000  -0.000
    3  6 3py        0.49771   0.00000      0.000   0.000   0.000
    3  7 3pz        0.17533   0.00000     -0.000  -0.000  -0.000
    3  8 3px        0.23683   0.00000      0.000  -0.000  -0.000
    3  9 3Pdxy      0.10859   0.00000     -0.000   0.000  -0.000
    3 10 3Pdyz      0.05237   0.00000      0.000  -0.000  -0.000
    3 11 3Pdz2      0.01019   0.00000      0.000   0.000  -0.000
    3 12 3Pdxz      0.13326   0.00000      0.000   0.000  -0.000
    3 13 3Pdx2-y2   0.32463   0.00000     -0.000  -0.000  -0.000
    3     Total     3.46798   0.00000     -0.000  -0.000  -0.000

    6  1 3s         0.66004   0.00000      0.000   0.000  -0.000
    6  2 3s         0.37049   0.00000     -0.000   0.000   0.000
    6  3 3py        0.12651   0.00000     -0.000  -0.000   0.000
    6  4 3pz        0.69697   0.00000     -0.000   0.000   0.000
    6  5 3px        0.49051   0.00000     -0.000  -0.000   0.000
    6  6 3py        0.46847   0.00000      0.000   0.000   0.000
    6  7 3pz        0.24288   0.00000      0.000  -0.000  -0.000
    6  8 3px        0.24573   0.00000      0.000   0.000  -0.000
    6  9 3Pdxy      0.18395   0.00000      0.000  -0.000  -0.000
    6 10 3Pdyz      0.14662   0.00000      0.000   0.000  -0.000
    6 11 3Pdz2      0.01153   0.00000     -0.000   0.000  -0.000
    6 12 3Pdxz      0.03672   0.00000     -0.000  -0.000   0.000
    6 13 3Pdx2-y2   0.18752   0.00000      0.000  -0.000   0.000
    6     Total     3.86795   0.00000     -0.000   0.000   0.000

    7  1 3s         0.62917   0.00000     -0.000  -0.000  -0.000
    7  2 3s         0.36834   0.00000      0.000   0.000  -0.000
    7  3 3py        0.37302   0.00000      0.000   0.000  -0.000
    7  4 3pz        0.49462   0.00000      0.000  -0.000  -0.000
    7  5 3px        0.07808   0.00000     -0.000   0.000  -0.000
    7  6 3py        0.30295   0.00000     -0.000  -0.000   0.000
    7  7 3pz        0.20742   0.00000     -0.000  -0.000  -0.000
    7  8 3px        0.42347   0.00000      0.000  -0.000  -0.000
    7  9 3Pdxy      0.20447   0.00000     -0.000  -0.000  -0.000
    7 10 3Pdyz      0.14300   0.00000      0.000   0.000  -0.000
    7 11 3Pdz2      0.01039   0.00000      0.000  -0.000  -0.000
    7 12 3Pdxz      0.15289   0.00000      0.000  -0.000  -0.000
    7 13 3Pdx2-y2   0.23853   0.00000      0.000  -0.000  -0.000
    7     Total     3.62635   0.00000      0.000  -0.000  -0.000

   12  1 3s         0.54144   0.00000     -0.000   0.000  -0.000
   12  2 3s         0.39870   0.00000      0.000  -0.000  -0.000
   12  3 3py        0.21544   0.00000     -0.000  -0.000  -0.000
   12  4 3pz        0.43479   0.00000      0.000   0.000  -0.000
   12  5 3px        0.29966   0.00000      0.000   0.000  -0.000
   12  6 3py        0.40880   0.00000      0.000  -0.000   0.000
   12  7 3pz        0.16667   0.00000      0.000  -0.000  -0.000
   12  8 3px        0.34034   0.00000     -0.000  -0.000  -0.000
   12  9 3Pdxy      0.38816   0.00000      0.000   0.000  -0.000
   12 10 3Pdyz      0.08143   0.00000     -0.000   0.000  -0.000
   12 11 3Pdz2      0.00990   0.00000      0.000   0.000  -0.000
   12 12 3Pdxz      0.09299   0.00000      0.000   0.000  -0.000
   12 13 3Pdx2-y2   0.16584   0.00000      0.000   0.000  -0.000
   12     Total     3.54415   0.00000      0.000  -0.000  -0.000

   15  1 3s         0.66204   0.00000      0.000   0.000   0.000
   15  2 3s         0.36731   0.00000     -0.000  -0.000  -0.000
   15  3 3py       -0.02813   0.00000      0.000  -0.000   0.000
   15  4 3pz        0.51198   0.00000     -0.000  -0.000   0.000
   15  5 3px        0.39237   0.00000     -0.000  -0.000   0.000
   15  6 3py        0.47272   0.00000      0.000  -0.000   0.000
   15  7 3pz        0.19913   0.00000     -0.000   0.000  -0.000
   15  8 3px        0.33923   0.00000      0.000   0.000  -0.000
   15  9 3Pdxy      0.14170   0.00000      0.000   0.000   0.000
   15 10 3Pdyz      0.12600   0.00000     -0.000  -0.000   0.000
   15 11 3Pdz2      0.01410   0.00000      0.000  -0.000   0.000
   15 12 3Pdxz      0.12547   0.00000     -0.000  -0.000   0.000
   15 13 3Pdx2-y2   0.30404   0.00000     -0.000   0.000  -0.000
   15     Total     3.62796   0.00000     -0.000  -0.000   0.000

   17  1 3s         0.73111   0.00000      0.000  -0.000  -0.000
   17  2 3s         0.35642   0.00000     -0.000   0.000  -0.000
   17  3 3py        0.09653   0.00000      0.000  -0.000  -0.000
   17  4 3pz        0.62429   0.00000      0.000  -0.000  -0.000
   17  5 3px        0.35727   0.00000     -0.000   0.000  -0.000
   17  6 3py        0.45364   0.00000     -0.000  -0.000   0.000
   17  7 3pz        0.15197   0.00000     -0.000   0.000  -0.000
   17  8 3px        0.33400   0.00000      0.000  -0.000  -0.000
   17  9 3Pdxy      0.15087   0.00000      0.000  -0.000  -0.000
   17 10 3Pdyz      0.02342   0.00000     -0.000  -0.000   0.000
   17 11 3Pdz2      0.00902   0.00000      0.000   0.000   0.000
   17 12 3Pdxz      0.12885   0.00000      0.000  -0.000  -0.000
   17 13 3Pdx2-y2   0.12713   0.00000     -0.000  -0.000  -0.000
   17     Total     3.54452   0.00000      0.000  -0.000  -0.000

   19  1 3s         0.86172   0.00000      0.000  -0.000   0.000
   19  2 3s         0.31364   0.00000     -0.000   0.000   0.000
   19  3 3py        0.43384   0.00000      0.000   0.000   0.000
   19  4 3pz        0.65959   0.00000     -0.000   0.000   0.000
   19  5 3px        0.35231   0.00000     -0.000   0.000   0.000
   19  6 3py        0.32797   0.00000     -0.000   0.000  -0.000
   19  7 3pz        0.26955   0.00000      0.000   0.000   0.000
   19  8 3px        0.35760   0.00000      0.000  -0.000   0.000
   19  9 3Pdxy      0.09330   0.00000     -0.000   0.000   0.000
   19 10 3Pdyz      0.02909   0.00000     -0.000  -0.000  -0.000
   19 11 3Pdz2      0.01445   0.00000     -0.000  -0.000  -0.000
   19 12 3Pdxz      0.05654   0.00000     -0.000  -0.000  -0.000
   19 13 3Pdx2-y2   0.13151   0.00000      0.000  -0.000  -0.000
   19     Total     3.90111   0.00000      0.000   0.000   0.000

   20  1 3s         0.54075   0.00000     -0.000  -0.000  -0.000
   20  2 3s         0.44392   0.00000      0.000   0.000  -0.000
   20  3 3py        0.31023   0.00000     -0.000   0.000  -0.000
   20  4 3pz        0.25473   0.00000     -0.000  -0.000  -0.000
   20  5 3px        0.45476   0.00000     -0.000   0.000  -0.000
   20  6 3py        0.38762   0.00000      0.000  -0.000  -0.000
   20  7 3pz        0.42342   0.00000      0.000   0.000   0.000
   20  8 3px        0.27759   0.00000      0.000  -0.000   0.000
   20  9 3Pdxy      0.07004   0.00000     -0.000   0.000   0.000
   20 10 3Pdyz      0.08420   0.00000     -0.000   0.000   0.000
   20 11 3Pdz2      0.05097   0.00000     -0.000   0.000  -0.000
   20 12 3Pdxz      0.07235   0.00000     -0.000   0.000   0.000
   20 13 3Pdx2-y2   0.04584   0.00000      0.000   0.000   0.000
   20     Total     3.41642   0.00000     -0.000   0.000  -0.000

   24  1 3s         0.60288   0.00000     -0.000  -0.000  -0.000
   24  2 3s         0.37191   0.00000      0.000   0.000  -0.000
   24  3 3py        0.27305   0.00000      0.000  -0.000  -0.000
   24  4 3pz        0.40385   0.00000      0.000   0.000  -0.000
   24  5 3px        0.17400   0.00000      0.000   0.000   0.000
   24  6 3py        0.39168   0.00000     -0.000   0.000  -0.000
   24  7 3pz        0.19416   0.00000      0.000  -0.000  -0.000
   24  8 3px        0.35798   0.00000     -0.000  -0.000  -0.000
   24  9 3Pdxy      0.14196   0.00000      0.000  -0.000   0.000
   24 10 3Pdyz      0.14063   0.00000      0.000   0.000   0.000
   24 11 3Pdz2      0.01350   0.00000     -0.000  -0.000  -0.000
   24 12 3Pdxz      0.12230   0.00000     -0.000  -0.000  -0.000
   24 13 3Pdx2-y2   0.34466   0.00000     -0.000  -0.000  -0.000
   24     Total     3.53257   0.00000      0.000   0.000  -0.000

   28  1 3s         0.43247   0.00000      0.000   0.000  -0.000
   28  2 3s         0.37787   0.00000     -0.000  -0.000  -0.000
   28  3 3py        0.14317   0.00000     -0.000   0.000  -0.000
   28  4 3pz        0.39734   0.00000      0.000   0.000  -0.000
   28  5 3px        0.17510   0.00000      0.000  -0.000  -0.000
   28  6 3py        0.37802   0.00000      0.000  -0.000  -0.000
   28  7 3pz        0.20523   0.00000     -0.000  -0.000  -0.000
   28  8 3px        0.38154   0.00000      0.000   0.000  -0.000
   28  9 3Pdxy      0.14428   0.00000     -0.000  -0.000  -0.000
   28 10 3Pdyz      0.12309   0.00000     -0.000  -0.000  -0.000
   28 11 3Pdz2      0.01441   0.00000      0.000  -0.000  -0.000
   28 12 3Pdxz      0.15711   0.00000      0.000   0.000  -0.000
   28 13 3Pdx2-y2   0.35342   0.00000     -0.000  -0.000  -0.000
   28     Total     3.28308   0.00000      0.000   0.000  -0.000

----------------------------------------------------------------
Total              85.06089   0.00000      0.000  -0.000  -0.000


Species: O                   

Atom      Orb        Charge      Spin       Svec
----------------------------------------------------------------
   25  1 2s         1.74432   0.00000     -0.000   0.000   0.000
   25  2 2s         0.06572   0.00000      0.000  -0.000   0.000
   25  3 2py        1.46140   0.00000     -0.000   0.000   0.000
   25  4 2pz        1.52773   0.00000      0.000   0.000   0.000
   25  5 2px        1.59376   0.00000      0.000  -0.000   0.000
   25  6 2py        0.03673   0.00000      0.000  -0.000   0.000
   25  7 2pz       -0.00347   0.00000      0.000  -0.000   0.000
   25  8 2px        0.02464   0.00000     -0.000   0.000   0.000
   25  9 3Pdxy      0.00675   0.00000     -0.000   0.000  -0.000
   25 10 3Pdyz      0.00579   0.00000     -0.000  -0.000  -0.000
   25 11 3Pdz2      0.00117   0.00000     -0.000   0.000  -0.000
   25 12 3Pdxz      0.00424   0.00000     -0.000  -0.000  -0.000
   25 13 3Pdx2-y2   0.00716   0.00000     -0.000   0.000  -0.000
   25     Total     6.47594   0.00000      0.000   0.000   0.000

   29  1 2s         1.74530   0.00000     -0.000   0.000   0.000
   29  2 2s         0.06610   0.00000      0.000  -0.000   0.000
   29  3 2py        1.47968   0.00000     -0.000   0.000   0.000
   29  4 2pz        1.53288   0.00000     -0.000  -0.000   0.000
   29  5 2px        1.52412   0.00000      0.000   0.000   0.000
   29  6 2py        0.04348   0.00000      0.000  -0.000   0.000
   29  7 2pz        0.00402   0.00000     -0.000   0.000   0.000
   29  8 2px        0.03921   0.00000      0.000  -0.000   0.000
   29  9 3Pdxy      0.00802   0.00000     -0.000   0.000   0.000
   29 10 3Pdyz      0.00475   0.00000      0.000  -0.000  -0.000
   29 11 3Pdz2      0.00132   0.00000      0.000  -0.000   0.000
   29 12 3Pdxz      0.00621   0.00000      0.000  -0.000  -0.000
   29 13 3Pdx2-y2   0.00807   0.00000     -0.000  -0.000  -0.000
   29     Total     6.46317   0.00000     -0.000  -0.000   0.000

----------------------------------------------------------------
Total              98.00000   0.00000     -0.000   0.000  -0.000


siesta: Eigenvalues (eV):
ik =     1
  -22.9720  -22.9720  -22.6891  -22.6891  -22.0117  -22.0117  -21.2173  -21.2173  -20.9747  -20.9747
  -20.5005  -20.5005  -19.3824  -19.3824  -19.2011  -19.2011  -18.6087  -18.6087  -15.3561  -15.3561
  -14.4118  -14.4118  -13.6734  -13.6734  -13.5611  -13.5611  -13.3324  -13.3324  -12.8674  -12.8674
  -12.4134  -12.4134  -12.0494  -12.0494  -11.8193  -11.8193  -11.4589  -11.4589  -11.3690  -11.3690
  -10.8057  -10.8057  -10.7851  -10.7851  -10.1412  -10.1412   -9.8891   -9.8891   -9.6074   -9.6074
   -9.4104   -9.4104   -9.1958   -9.1958   -9.0631   -9.0631   -8.8050   -8.8050   -8.7637   -8.7637
   -8.4936   -8.4936   -8.1498   -8.1498   -8.1122   -8.1122   -8.0975   -8.0975   -8.0433   -8.0433
   -7.8631   -7.8631   -7.3837   -7.3837   -7.3001   -7.3001   -7.2816   -7.2816   -6.8708   -6.8708
   -6.7138   -6.7138   -6.6583   -6.6583   -6.4995   -6.4995   -6.3052   -6.3052   -6.1441   -6.1441
   -5.9955   -5.9955   -5.6846   -5.6846   -5.5387   -5.5387   -4.1738   -4.1738   -3.7713   -3.7713
   -2.9032   -2.9032   -2.5385   -2.5385   -2.2298   -2.2298   -2.1763   -2.1763   -2.0616   -2.0616
   -1.9578   -1.9578   -1.6463   -1.6463   -1.6015   -1.6015   -1.5199   -1.5199   -1.2816   -1.2816
   -1.1107   -1.1107   -0.5432   -0.5432   -0.4281   -0.4281   -0.2431   -0.2431   -0.1759   -0.1759
   -0.1314   -0.1314   -0.0707   -0.0707    0.2133    0.2133    0.3549    0.3549    0.6260    0.6260
    0.7086    0.7086    0.7601    0.7601    1.0297    1.0297    1.3184    1.3184    1.3644    1.3644
    1.4454    1.4454    1.7699    1.7699    1.9365    1.9365    2.1467    2.1467    2.3289    2.3289
    2.5402    2.5402    2.6858    2.6858    2.8775    2.8775    2.9103    2.9103    2.9654    2.9654
    3.0712    3.0712    3.1114    3.1114    3.1505    3.1505    3.5960    3.5960    3.8707    3.8708
    3.9301    3.9301    4.0691    4.0691    4.3286    4.3286    4.3419    4.3419    4.4785    4.4785
    4.4884    4.4884    4.5099    4.5099    4.7694    4.7694    5.0158    5.0158    5.1544    5.1544
    5.2052    5.2052    5.4625    5.4625    5.5287    5.5287    5.8387    5.8387    5.8977    5.8977
    6.0042    6.0042    6.1140    6.1140    6.1879    6.1879    6.4848    6.4848    6.5930    6.5930
    6.7359    6.7359    6.7952    6.7952    6.8610    6.8610    7.0912    7.0912    7.4300    7.4300
    7.4370    7.4370    7.6081    7.6081    7.7087    7.7087    7.8902    7.8902    8.0275    8.0275
    8.2817    8.2817    8.4094    8.4094    8.4869    8.4869    8.5925    8.5925    8.6709    8.6709
    8.8083    8.8083    9.1281    9.1281    9.1464    9.1464    9.4654    9.4654    9.6944    9.6944
    9.7777    9.7777    9.8970    9.8970    9.9834    9.9834   10.0599   10.0599   10.0760   10.0760
   10.3554   10.3554   10.7004   10.7004   10.7891   10.7891   11.1232   11.1232   11.2374   11.2374
   11.4906   11.4906   11.6212   11.6212   11.7956   11.7956   11.8803   11.8803   11.9031   11.9031
   12.2681   12.2681   12.5414   12.5414   12.6313   12.6313   12.7372   12.7372   12.7545   12.7545
   13.0273   13.0273   13.2679   13.2679   13.3983   13.3983   13.5902   13.5902   13.7911   13.7911
   13.9956   13.9956   14.1297   14.1297   14.6002   14.6002   14.7511   14.7511   15.0038   15.0038
   15.2272   15.2272   15.5926   15.5926   15.9410   15.9410   16.1154   16.1154   16.4357   16.4357
   16.6979   16.6979   16.9262   16.9262   17.0713   17.0713   17.3649   17.3649   17.6446   17.6446
   18.0998   18.0998   18.1094   18.1094   18.6343   18.6343   18.7000   18.7000   19.0039   19.0039
   19.0291   19.0291   19.8073   19.8073   20.0690   20.0690   20.2749   20.2749   20.7784   20.7784
   21.0530   21.0530   21.3498   21.3498   21.6841   21.6841   22.3732   22.3732   22.6269   22.6269
   22.6889   22.6889   23.0724   23.0724   23.1794   23.1794   23.2138   23.2138   23.6031   23.6031
   24.7725   24.7725   25.0622   25.0622   25.2349   25.2349   25.7493   25.7493   26.1377   26.1377
   26.4959   26.4959   26.8227   26.8227   27.1903   27.1903   28.1117   28.1117   28.2281   28.2281
   28.4937   28.4937   28.9869   28.9869   29.6305   29.6305   30.7380   30.7380   30.8836   30.8836
   30.9640   30.9640   31.3616   31.3616   31.4875   31.4875   31.6829   31.6829   32.1389   32.1389
   32.2523   32.2523   32.5442   32.5442   33.4861   33.4861   33.7578   33.7578   34.3903   34.3903
   34.6457   34.6457   34.6648   34.6648   34.8374   34.8374   35.8816   35.8816   36.0594   36.0594
   36.5692   36.5692   37.2898   37.2898   37.4445   37.4445   38.3769   38.3769   38.4299   38.4299
   39.1154   39.1154   39.2471   39.2471   39.7433   39.7433   40.6910   40.6910   40.7827   40.7827
   41.2054   41.2054   41.3722   41.3722   41.3880   41.3880   41.8000   41.8000   42.6201   42.6201
   43.0162   43.0162   43.4572   43.4572   43.6093   43.6093   43.7445   43.7445   44.0343   44.0343
   44.7542   44.7542   44.9788   44.9788   45.3789   45.3789   45.4025   45.4025   46.3756   46.3756
   46.6961   46.6961   46.9722   46.9722   47.0460   47.0460   47.8259   47.8259   48.3576   48.3576
   48.5726   48.5726   49.0615   49.0615   49.2564   49.2564   49.5762   49.5762   50.3052   50.3052
   50.4023   50.4023   50.8221   50.8221   50.9394   50.9394   51.1562   51.1562   52.5277   52.5277
   52.8300   52.8300   53.5507   53.5507   54.2173   54.2173   55.4470   55.4470   55.4886   55.4886
   56.5378   56.5378   57.0255   57.0255   57.0950   57.0950   57.1733   57.1733   58.9610   58.9610
   59.0380   59.0380   59.6570   59.6570   59.8783   59.8783   61.1325   61.1325   61.1436   61.1436
   61.9977   61.9977   62.7052   62.7052   63.1076   63.1076   63.8822   63.8822   65.0366   65.0366
   66.3777   66.3777   66.7133   66.7133   67.5696   67.5696   67.7960   67.7960   68.6971   68.6971
   69.8284   69.8284   71.6092   71.6092   74.8607   74.8607   83.7168   83.7168   92.4803   92.4803
   93.1783   93.1783   94.0520   94.0520   96.3514   96.3514   99.3535   99.3535  100.7277  100.7277
  102.7209  102.7209  103.2595  103.2595  115.5041  115.5041  122.0765  122.0765  123.7889  123.7889
  138.5971  138.5971  143.6160  143.6160
siesta: Fermi energy =      -3.972537 eV

siesta: Program's energy decomposition (eV):
siesta: Ebs     =     -1115.290592
siesta: Eions   =      3553.971015
siesta: Ena     =       377.729581
siesta: Ekin    =      2751.681753
siesta: Enl     =     -2532.642380
siesta: Eso     =        -0.004720
siesta: Edftu   =         0.000000
siesta: DEna    =        37.334465
siesta: DUscf   =        13.973748
siesta: DUext   =         0.000000
siesta: Exc     =     -1093.247422
siesta: eta*DQ  =         0.000000
siesta: Emadel  =         0.000000
siesta: Emeta   =         0.000000
siesta: Emolmec =         0.000000
siesta: Ekinion =         0.000000
siesta: Eharris =     -3999.145990
siesta: Etot    =     -3999.145990
siesta: FreeEng =     -3999.146368

siesta: Final energy (eV):
siesta:  Band Struct. =   -1115.290592
siesta:       Kinetic =    2751.681753
siesta:       Hartree =    7697.456457
siesta:       Edftu   =       0.000000
siesta:       Eso     =      -0.004720
siesta:    Ext. field =       0.000000
siesta:   Exch.-corr. =   -1093.247422
siesta:  Ion-electron =  -17843.021508
siesta:       Ion-ion =    4487.989449
siesta:       Ekinion =       0.000000
siesta:         Total =   -3999.145990
siesta:         Fermi =      -3.972537

siesta: Atomic forces (eV/Ang):
siesta:      1   -0.056276    0.015092    0.000003
siesta:      2   -0.006325   -0.057952   -0.000004
siesta:      3    0.007603    0.046426   -0.000002
siesta:      4   -0.021980   -0.003488    0.000005
siesta:      5    0.005530   -0.041991   -0.000010
siesta:      6    0.078631    0.004386    0.000028
siesta:      7   -0.400610    0.175402    0.000030
siesta:      8    0.160893   -0.206980   -0.000155
siesta:      9    0.062175    0.271112    0.000258
siesta:     10    0.116036    0.056715    0.000024
siesta:     11    0.005202    0.148186   -0.000053
siesta:     12    0.266340    0.114085   -0.000016
siesta:     13   -0.149969   -0.127629   -0.000006
siesta:     14   -0.060938   -0.082705    0.000017
siesta:     15    0.002311    0.051756   -0.000010
siesta:     16    0.020677    0.093641    0.008009
siesta:     17    0.029246   -0.073048   -0.039878
siesta:     18   -0.081573    0.085586    0.008353
siesta:     19   -0.050236    0.017321   -0.041406
siesta:     20    0.041173   -0.041851    0.024300
siesta:     21   -0.168637    0.203900    0.066721
siesta:     22   -0.066716    0.005117    0.027042
siesta:     23    0.112680   -0.005499   -0.042974
siesta:     24    0.266066   -0.096532   -0.026444
siesta:     25   -1.072402   -0.586819    0.002999
siesta:     26   -0.087558    0.215738    0.006629
siesta:     27    0.015891   -0.437317    0.002846
siesta:     28   -0.131766   -0.155686   -0.000846
siesta:     29   -2.774754    1.720913   -0.001109
siesta:     30    0.105570    0.208917    0.008189
siesta: ----------------------------------------
siesta:    Tot   -3.833715    1.516795    0.002537

siesta: Stress tensor (static) (eV/Ang**3):
siesta:    -0.001080    0.000180    0.000033
siesta:     0.000180   -0.000121   -0.000029
siesta:     0.000033   -0.000029   -0.000142

siesta: Cell volume =       4145.688081 Ang**3

siesta: Pressure (static):
siesta:                Solid            Molecule  Units
siesta:           0.00000488          0.00000823  Ry/Bohr**3
siesta:           0.00044764          0.00075562  eV/Ang**3
siesta:           0.71721208          1.21065374  kBar
(Free)E+ p_basis*V_orbitals  =       -3978.018283
(Free)Eharris+ p_basis*V_orbitals  =       -3978.018283
     spin moment: S , {S} =    0.00000  -0.00000   0.00000  -0.00000

siesta: Electric dipole (a.u.)  =   -0.233491    2.785228   -0.012918
siesta: Electric dipole (Debye) =   -0.593475    7.079348   -0.032835

cite: Please see "AT.bib" for an exhaustive BiBTeX file.
cite: Please clearly indicate Siesta version in published work: v4.1.5-1-g384057250
cite: This calculation has made use of the following articles
cite: which are encouraged to be cited in a published work.
        Primary SIESTA paper
          DOI: www.doi.org/10.1088/0953-8984/14/11/302
        Spin-orbit coupling (on-site approximation)
          DOI: www.doi.org/10.1088/0953-8984/19/19/489001


WARNING: alloc-realloc-dealloc name mismatch
         Name: atomlist isa
         Size:              -120. Bytes
         Node:     0
         Subsequent mismatches will not be reported
>> End of run:  22-MAY-2023  10:01:50
Job completed
