Siesta Version  : v4.1.5-1-g384057250
Architecture    : gcc
Compiler version: GNU Fortran (Debian 10.2.1-6) 10.2.1 20210110
Compiler flags  : mpifort -O2 -fPIC -ftree-vectorize -fallow-argument-mismatch
PP flags        : -DFC_HAVE_ABORT -DMPI -DSIESTA__FLOOK -DSIESTA__METIS -DSIESTA__MUMPS -DCDF -DNCDF -DNCDF_4 -DNCDF_PARALLEL -DSIESTA__MRRR -DSIESTA__ELPA
Libraries       : libncdf.a libfdict.a  -lflookall -ldl -lnetcdff -lnetcdf -lhdf5_hl -lhdf5 -lhdf5_fortran -lz -lscalapack-openmpi -lopenblas -lmetis -lzmumps -lcmumps -ldmumps -lmumps_common -lpord -lsmumps -lesmumps -lscotch -lscotcherr -fopenmp -lelpa
PARALLEL version
NetCDF support
NetCDF-4 support
NetCDF-4 MPI-IO support
METIS ordering support
Lua support

* Running on 6 nodes in parallel
>> Start of run:  22-MAY-2023  10:12:14

                           ***********************       
                           *  WELCOME TO SIESTA  *       
                           ***********************       

reinit: Reading from standard input
reinit: Dumped input in INPUT_TMP.37493
************************** Dump of input data file ****************************
SystemLabel      AT
NumberOfAtoms    30
NumberOfSpecies  4
%block ChemicalSpeciesLabel
    1    1  H
    2    7  N
    3   14  Si
    4    8  O
%endblock ChemicalSpeciesLabel
# Single point calculation
MD.TypeOfRun                CG
MD.Steps                    0
SCF.MustConverge            F # In case it does not. There can be 2 very close atoms
AtomicCoordinatesFormat NotScaledCartesianAng
%block AtomicCoordinatesAndAtomicSpecies
2.582377650    -5.776830440   0.000000000       1
1.654759240    -5.269361980   0.000000000       2
0.063128840    -6.101704590   0.000000000       3
0.119223240    -7.596849500   0.000000000       1
-1.376892050   -5.182603740   0.000000000       2
-0.824371900   -3.460866440   0.000000000       3
-1.170571480   -1.270002100   0.000000000       3
-2.706933680   -0.417515780   0.000000000       2
-2.754569660   0.634858620    0.000000000       1
-3.637675640   -0.909967860   0.000000000       1
0.218091790    -0.234193970   0.000000000       2
1.872004100    -0.697162300   0.000000000       3
2.828001130    0.461464770    0.000000000       1
2.648150080    -2.255024470   0.000000000       2
1.391921380    -3.454727220   0.000000000       3
1.864448782    6.798572411    0.000000000       2
0.537077262    8.008776711    0.000000000       3
1.177078532    9.370094951    0.000000000       1
-1.548668678   7.338245361    0.000000000       3
-3.578231278   8.468361551    0.000000000       3
-3.423995508   9.628591761    0.940305280       1
-4.564165998   7.446440931    0.512613700       1
-3.994446238   8.944587401    -1.366678340      1
-1.482173258   5.064268741    0.000000000       3
-2.521221988   3.871209241    0.000000000       4
0.174818322    4.430293551    0.000000000       2
0.156800952    3.367848721    0.000000000       1
1.798421392    5.027363761    0.000000000       3
2.993437562    4.012938561    0.000000000       4
2.864486152    7.144079511    0.000000000       1
%endblock AtomicCoordinatesAndAtomicSpecies
%include ../../../Defaults.fdf
************************** End of input data file *****************************

reinit: -----------------------------------------------------------------------
reinit: System Name: 
reinit: -----------------------------------------------------------------------
reinit: System Label: AT
reinit: -----------------------------------------------------------------------

initatom: Reading input for the pseudopotentials and atomic orbitals ----------
Species number:   1 Atomic number:    1 Label: H
Species number:   2 Atomic number:    7 Label: N
Species number:   3 Atomic number:   14 Label: Si
Species number:   4 Atomic number:    8 Label: O

Ground state valence configuration:   1s01
Reading pseudopotential information in formatted form from H.psf

Pseudopotential generated from a relativistic atomic calculation

Valence configuration for pseudopotential generation:
1s( 1.00) rc: 0.01
2p( 0.00) rc: 0.60
3d( 0.00) rc: 1.99
4f( 0.00) rc: 2.49
Ground state valence configuration:   2s02  2p03
Reading pseudopotential information in formatted form from N.psf

Pseudopotential generated from a relativistic atomic calculation

Valence configuration for pseudopotential generation:
2s( 2.00) rc: 0.94
2p( 3.00) rc: 0.59
3d( 0.00) rc: 3.46
4f( 0.00) rc: 2.47
Ground state valence configuration:   3s02  3p02
Reading pseudopotential information in formatted form from Si.psf

Pseudopotential generated from a relativistic atomic calculation

Valence configuration for pseudopotential generation:
3s( 2.00) rc: 1.67
3p( 2.00) rc: 2.04
3d( 0.00) rc: 2.89
4f( 0.00) rc: 2.49
Ground state valence configuration:   2s02  2p04
Reading pseudopotential information in formatted form from O.psf

Pseudopotential generated from a relativistic atomic calculation

Valence configuration for pseudopotential generation:
2s( 2.00) rc: 0.45
2p( 4.00) rc: 0.92
3d( 0.00) rc: 2.24
4f( 0.00) rc: 0.25
For H, standard SIESTA heuristics set lmxkb to 2
 (one more than the basis l, including polarization orbitals).
Use PS.lmax or PS.KBprojectors blocks to override.
For N, standard SIESTA heuristics set lmxkb to 3
 (one more than the basis l, including polarization orbitals).
Use PS.lmax or PS.KBprojectors blocks to override.
For Si, standard SIESTA heuristics set lmxkb to 3
 (one more than the basis l, including polarization orbitals).
Use PS.lmax or PS.KBprojectors blocks to override.
For O, standard SIESTA heuristics set lmxkb to 3
 (one more than the basis l, including polarization orbitals).
Use PS.lmax or PS.KBprojectors blocks to override.

<basis_specs>
===============================================================================
H                    Z=   1    Mass=  1.0100        Charge= 0.17977+309
Lmxo=0 Lmxkb= 2    BasisType=split      Semic=F
L=0  Nsemic=0  Cnfigmx=1
          i=1  nzeta=2  polorb=1  (1s)
            splnorm:   0.62000    
               vcte:    0.0000    
               rinn:    0.0000    
               qcoe:    0.0000    
               qyuk:    0.0000    
               qwid:   0.10000E-01
                rcs:    0.0000      0.0000    
            lambdas:    1.0000      1.0000    
-------------------------------------------------------------------------------
L=0  Nkbl=1  erefs: 0.17977+309
L=1  Nkbl=1  erefs: 0.17977+309
L=2  Nkbl=1  erefs: 0.17977+309
===============================================================================
</basis_specs>

atom: Called for H                     (Z =   1)

read_vps: Pseudopotential generation method:
read_vps: ATM4.2.7  Troullier-Martins                       
Valence charge for ps generation:    1.00000

xc_check: Exchange-correlation functional:
xc_check: GGA Perdew, Burke & Ernzerhof 1996
V l=0 = -2*Zval/r beyond r=  0.0098
V l=1 = -2*Zval/r beyond r=  0.5817
V l=2 = -2*Zval/r beyond r=  1.9372
All V_l potentials equal beyond r=  1.9372
This should be close to max(r_c) in ps generation
All pots = -2*Zval/r beyond r=  1.9372

VLOCAL1: 99.0% of the norm of Vloc inside     11.567 Ry
VLOCAL1: 99.9% of the norm of Vloc inside     26.362 Ry
atom: Maximum radius for 4*pi*r*r*local-pseudopot. charge    2.25106
atom: Maximum radius for r*vlocal+2*Zval:    1.91306
GHOST: No ghost state for L =  0
GHOST: No ghost state for L =  1
GHOST: No ghost state for L =  2

KBgen: Kleinman-Bylander projectors: 
   l= 0   rc=  2.036604   el= -0.477180   Ekb= -6.081590   kbcos= -0.277285
   l= 1   rc=  2.195416   el=  0.001076   Ekb= -0.926943   kbcos= -0.034643
   l= 2   rc=  2.251056   el=  0.002010   Ekb= -0.130941   kbcos= -0.009788

KBgen: Total number of Kleinman-Bylander projectors:    9
atom: -------------------------------------------------------------------------

atom: SANKEY-TYPE ORBITALS:
atom: Selected multiple-zeta basis: split     

SPLIT: Orbitals with angular momentum L= 0

SPLIT: Basis orbitals for state 1s

SPLIT: PAO cut-off radius determined from an
SPLIT: energy shift=  0.002000 Ry

   izeta = 1
                 lambda =    1.000000
                     rc =    6.518340
                 energy =   -0.475305
                kinetic =    0.912139
    potential(screened) =   -1.387444
       potential(ionic) =   -1.907295

   izeta = 2
                 rmatch =    2.141150
              splitnorm =    0.620000
                 energy =    0.566467
                kinetic =    3.772856
    potential(screened) =   -3.206389
       potential(ionic) =   -3.759093

POLgen: Perturbative polarization orbital with L=  1

POLgen: Polarization orbital for state 1s

   izeta = 1
                     rc =    6.518340
                 energy =    0.533861
                kinetic =    1.121086
    potential(screened) =   -0.587225
       potential(ionic) =   -1.053027
atom: Total number of Sankey-type orbitals:  5

atm_pop: Valence configuration (for local Pseudopot. screening):
 1s( 1.00)                                                            
Vna: chval, zval:    1.00000   1.00000

Vna:  Cut-off radius for the neutral-atom potential:   6.518340

atom: _________________________________________________________________________

<basis_specs>
===============================================================================
N                    Z=   7    Mass=  14.010        Charge= 0.17977+309
Lmxo=1 Lmxkb= 3    BasisType=split      Semic=F
L=0  Nsemic=0  Cnfigmx=2
          i=1  nzeta=2  polorb=0  (2s)
            splnorm:   0.28000    
               vcte:    0.0000    
               rinn:    0.0000    
               qcoe:    0.0000    
               qyuk:    0.0000    
               qwid:   0.10000E-01
                rcs:    0.0000      0.0000    
            lambdas:    1.0000      1.0000    
L=1  Nsemic=0  Cnfigmx=2
          i=1  nzeta=2  polorb=1  (2p)
            splnorm:   0.28000    
               vcte:    0.0000    
               rinn:    0.0000    
               qcoe:    0.0000    
               qyuk:    0.0000    
               qwid:   0.10000E-01
                rcs:    0.0000      0.0000    
            lambdas:    1.0000      1.0000    
-------------------------------------------------------------------------------
L=0  Nkbl=1  erefs: 0.17977+309
L=1  Nkbl=1  erefs: 0.17977+309
L=2  Nkbl=1  erefs: 0.17977+309
L=3  Nkbl=1  erefs: 0.17977+309
===============================================================================
</basis_specs>

atom: Called for N                     (Z =   7)

read_vps: Pseudopotential generation method:
read_vps: ATM4.2.7  Troullier-Martins                       
Valence charge for ps generation:    5.00000

xc_check: Exchange-correlation functional:
xc_check: GGA Perdew, Burke & Ernzerhof 1996
V l=0 = -2*Zval/r beyond r=  1.2889
V l=1 = -2*Zval/r beyond r=  1.2889
V l=2 = -2*Zval/r beyond r=  3.4178
V l=3 = -2*Zval/r beyond r=  2.4084
All V_l potentials equal beyond r=  3.3753
This should be close to max(r_c) in ps generation
All pots = -2*Zval/r beyond r=  3.4178

VLOCAL1: 99.0% of the norm of Vloc inside      3.810 Ry
VLOCAL1: 99.9% of the norm of Vloc inside      8.683 Ry
atom: Maximum radius for 4*pi*r*r*local-pseudopot. charge    4.02088
atom: Maximum radius for r*vlocal+2*Zval:    3.54838
GHOST: No ghost state for L =  0
GHOST: No ghost state for L =  1
GHOST: No ghost state for L =  2
GHOST: No ghost state for L =  3

KBgen: Kleinman-Bylander projectors: 
   l= 0   rc=  3.417763   el= -1.365098   Ekb= -4.433130   kbcos= -0.707855
   l= 1   rc=  3.375302   el= -0.521201   Ekb=-13.264039   kbcos= -0.535594
   l= 2   rc=  3.872880   el=  0.001991   Ekb= -0.641094   kbcos= -0.062456
   l= 3   rc=  3.970931   el=  0.003093   Ekb= -0.474517   kbcos= -0.018236

KBgen: Total number of Kleinman-Bylander projectors:   16
atom: -------------------------------------------------------------------------

atom: SANKEY-TYPE ORBITALS:
atom: Selected multiple-zeta basis: split     

SPLIT: Orbitals with angular momentum L= 0

SPLIT: Basis orbitals for state 2s

SPLIT: PAO cut-off radius determined from an
SPLIT: energy shift=  0.002000 Ry

   izeta = 1
                 lambda =    1.000000
                     rc =    4.730425
                 energy =   -1.363399
                kinetic =    1.245246
    potential(screened) =   -2.608645
       potential(ionic) =   -8.121105

   izeta = 2
                 rmatch =    2.531849
              splitnorm =    0.280000
                 energy =   -0.959908
                kinetic =    2.409435
    potential(screened) =   -3.369343
       potential(ionic) =   -9.427975

SPLIT: Orbitals with angular momentum L= 1

SPLIT: Basis orbitals for state 2p

SPLIT: PAO cut-off radius determined from an
SPLIT: energy shift=  0.002000 Ry

   izeta = 1
                 lambda =    1.000000
                     rc =    5.924108
                 energy =   -0.519262
                kinetic =    3.672940
    potential(screened) =   -4.192202
       potential(ionic) =   -9.518354

   izeta = 2
                 rmatch =    2.531849
              splitnorm =    0.280000
                 energy =   -0.104258
                kinetic =    6.807538
    potential(screened) =   -6.911796
       potential(ionic) =  -13.149920

POLgen: Perturbative polarization orbital with L=  2

POLgen: Polarization orbital for state 2p

   izeta = 1
                     rc =    5.924108
                 energy =    1.427508
                kinetic =    2.872379
    potential(screened) =   -1.444871
       potential(ionic) =   -5.563644
atom: Total number of Sankey-type orbitals: 13

atm_pop: Valence configuration (for local Pseudopot. screening):
 2s( 2.00)                                                            
 2p( 3.00)                                                            
Vna: chval, zval:    5.00000   5.00000

Vna:  Cut-off radius for the neutral-atom potential:   5.924108

atom: _________________________________________________________________________

<basis_specs>
===============================================================================
Si                   Z=  14    Mass=  28.090        Charge= 0.17977+309
Lmxo=1 Lmxkb= 3    BasisType=split      Semic=F
L=0  Nsemic=0  Cnfigmx=3
          i=1  nzeta=2  polorb=0  (3s)
            splnorm:   0.28000    
               vcte:    0.0000    
               rinn:    0.0000    
               qcoe:    0.0000    
               qyuk:    0.0000    
               qwid:   0.10000E-01
                rcs:    0.0000      0.0000    
            lambdas:    1.0000      1.0000    
L=1  Nsemic=0  Cnfigmx=3
          i=1  nzeta=2  polorb=1  (3p)
            splnorm:   0.28000    
               vcte:    0.0000    
               rinn:    0.0000    
               qcoe:    0.0000    
               qyuk:    0.0000    
               qwid:   0.10000E-01
                rcs:    0.0000      0.0000    
            lambdas:    1.0000      1.0000    
-------------------------------------------------------------------------------
L=0  Nkbl=1  erefs: 0.17977+309
L=1  Nkbl=1  erefs: 0.17977+309
L=2  Nkbl=1  erefs: 0.17977+309
L=3  Nkbl=1  erefs: 0.17977+309
===============================================================================
</basis_specs>

atom: Called for Si                    (Z =  14)

read_vps: Pseudopotential generation method:
read_vps: ATM4.2.7  Troullier-Martins                       
Valence charge for ps generation:    4.00000

xc_check: Exchange-correlation functional:
xc_check: GGA Perdew, Burke & Ernzerhof 1996
V l=0 = -2*Zval/r beyond r=  2.7826
V l=1 = -2*Zval/r beyond r=  2.7826
V l=2 = -2*Zval/r beyond r=  2.9253
V l=3 = -2*Zval/r beyond r=  2.7826
All V_l potentials equal beyond r=  2.8530
This should be close to max(r_c) in ps generation
All pots = -2*Zval/r beyond r=  2.9253

VLOCAL1: 99.0% of the norm of Vloc inside      5.333 Ry
VLOCAL1: 99.9% of the norm of Vloc inside     12.154 Ry
atom: Maximum radius for 4*pi*r*r*local-pseudopot. charge    3.39869
atom: Maximum radius for r*vlocal+2*Zval:    2.96205
GHOST: No ghost state for L =  0
GHOST: No ghost state for L =  1
GHOST: No ghost state for L =  2
GHOST: No ghost state for L =  3

KBgen: Kleinman-Bylander projectors: 
   l= 0   rc=  3.075247   el= -0.794092   Ekb=  5.879390   kbcos=  0.167461
   l= 1   rc=  3.153101   el= -0.300068   Ekb=  2.642817   kbcos=  0.058301
   l= 2   rc=  3.273594   el=  0.001958   Ekb= -1.185135   kbcos= -0.104411
   l= 3   rc=  3.232927   el=  0.003046   Ekb= -0.497174   kbcos= -0.015889

KBgen: Total number of Kleinman-Bylander projectors:   16
atom: -------------------------------------------------------------------------

atom: SANKEY-TYPE ORBITALS:
atom: Selected multiple-zeta basis: split     

SPLIT: Orbitals with angular momentum L= 0

SPLIT: Basis orbitals for state 3s

SPLIT: PAO cut-off radius determined from an
SPLIT: energy shift=  0.002000 Ry

   izeta = 1
                 lambda =    1.000000
                     rc =    6.429618
                 energy =   -0.792283
                kinetic =    0.525293
    potential(screened) =   -1.317576
       potential(ionic) =   -3.744923

   izeta = 2
                 rmatch =    3.998416
              splitnorm =    0.280000
                 energy =   -0.583081
                kinetic =    1.069570
    potential(screened) =   -1.652651
       potential(ionic) =   -4.235185

SPLIT: Orbitals with angular momentum L= 1

SPLIT: Basis orbitals for state 3p

SPLIT: PAO cut-off radius determined from an
SPLIT: energy shift=  0.002000 Ry

   izeta = 1
                 lambda =    1.000000
                     rc =    8.464845
                 energy =   -0.298236
                kinetic =    0.785360
    potential(screened) =   -1.083596
       potential(ionic) =   -3.273779

   izeta = 2
                 rmatch =    4.587816
              splitnorm =    0.280000
                 energy =   -0.131871
                kinetic =    1.403687
    potential(screened) =   -1.535557
       potential(ionic) =   -4.015310

POLgen: Perturbative polarization orbital with L=  2

POLgen: Polarization orbital for state 3p

   izeta = 1
                     rc =    8.464845
                 energy =    0.321949
                kinetic =    1.055677
    potential(screened) =   -0.733728
       potential(ionic) =   -2.672950
atom: Total number of Sankey-type orbitals: 13

atm_pop: Valence configuration (for local Pseudopot. screening):
 3s( 2.00)                                                            
 3p( 2.00)                                                            
Vna: chval, zval:    4.00000   4.00000

Vna:  Cut-off radius for the neutral-atom potential:   8.464845

atom: _________________________________________________________________________

<basis_specs>
===============================================================================
O                    Z=   8    Mass=  16.000        Charge= 0.17977+309
Lmxo=1 Lmxkb= 3    BasisType=split      Semic=F
L=0  Nsemic=0  Cnfigmx=2
          i=1  nzeta=2  polorb=0  (2s)
            splnorm:   0.28000    
               vcte:    0.0000    
               rinn:    0.0000    
               qcoe:    0.0000    
               qyuk:    0.0000    
               qwid:   0.10000E-01
                rcs:    0.0000      0.0000    
            lambdas:    1.0000      1.0000    
L=1  Nsemic=0  Cnfigmx=2
          i=1  nzeta=2  polorb=1  (2p)
            splnorm:   0.28000    
               vcte:    0.0000    
               rinn:    0.0000    
               qcoe:    0.0000    
               qyuk:    0.0000    
               qwid:   0.10000E-01
                rcs:    0.0000      0.0000    
            lambdas:    1.0000      1.0000    
-------------------------------------------------------------------------------
L=0  Nkbl=1  erefs: 0.17977+309
L=1  Nkbl=1  erefs: 0.17977+309
L=2  Nkbl=1  erefs: 0.17977+309
L=3  Nkbl=1  erefs: 0.17977+309
===============================================================================
</basis_specs>

atom: Called for O                     (Z =   8)

read_vps: Pseudopotential generation method:
read_vps: ATM4.2.7  Troullier-Martins                       
Valence charge for ps generation:    6.00000

xc_check: Exchange-correlation functional:
xc_check: GGA Perdew, Burke & Ernzerhof 1996
V l=0 = -2*Zval/r beyond r=  1.1000
V l=1 = -2*Zval/r beyond r=  1.1000
V l=2 = -2*Zval/r beyond r=  2.2154
V l=3 = -2*Zval/r beyond r=  1.1000
All V_l potentials equal beyond r=  2.2154
This should be close to max(r_c) in ps generation
All pots = -2*Zval/r beyond r=  2.2154

VLOCAL1: 99.0% of the norm of Vloc inside      8.845 Ry
VLOCAL1: 99.9% of the norm of Vloc inside     20.157 Ry
atom: Maximum radius for 4*pi*r*r*local-pseudopot. charge    2.67231
atom: Maximum radius for r*vlocal+2*Zval:    2.32897
GHOST: No ghost state for L =  0
GHOST: No ghost state for L =  1
GHOST: No ghost state for L =  2
GHOST: No ghost state for L =  3

KBgen: Kleinman-Bylander projectors: 
   l= 0   rc=  2.243238   el= -1.759686   Ekb=**********   kbcos= -0.171774
   l= 1   rc=  2.328968   el= -0.663873   Ekb=-14.506792   kbcos= -0.519897
   l= 2   rc=  2.573941   el=  0.002031   Ekb= -1.137373   kbcos= -0.019581
   l= 3   rc=  2.606321   el=  0.003153   Ekb= -1.013546   kbcos= -0.003122

KBgen: Total number of Kleinman-Bylander projectors:   16
atom: -------------------------------------------------------------------------

atom: SANKEY-TYPE ORBITALS:
atom: Selected multiple-zeta basis: split     

SPLIT: Orbitals with angular momentum L= 0

SPLIT: Basis orbitals for state 2s

SPLIT: PAO cut-off radius determined from an
SPLIT: energy shift=  0.002000 Ry

   izeta = 1
                 lambda =    1.000000
                     rc =    4.243912
                 energy =   -1.758270
                kinetic =    3.286084
    potential(screened) =   -5.044353
       potential(ionic) =  -12.921184

   izeta = 2
                 rmatch =    2.187845
              splitnorm =    0.280000
                 energy =   -0.885018
                kinetic =    8.134434
    potential(screened) =   -9.019452
       potential(ionic) =  -17.710645

SPLIT: Orbitals with angular momentum L= 1

SPLIT: Basis orbitals for state 2p

SPLIT: PAO cut-off radius determined from an
SPLIT: energy shift=  0.002000 Ry

   izeta = 1
                 lambda =    1.000000
                     rc =    5.314825
                 energy =   -0.661986
                kinetic =    4.917472
    potential(screened) =   -5.579458
       potential(ionic) =  -13.236259

   izeta = 2
                 rmatch =    2.160663
              splitnorm =    0.280000
                 energy =   -0.068760
                kinetic =    9.183374
    potential(screened) =   -9.252135
       potential(ionic) =  -18.274251

POLgen: Perturbative polarization orbital with L=  2

POLgen: Polarization orbital for state 2p

   izeta = 1
                     rc =    5.314825
                 energy =    1.970580
                kinetic =    3.886128
    potential(screened) =   -1.915547
       potential(ionic) =   -7.749584
atom: Total number of Sankey-type orbitals: 13

atm_pop: Valence configuration (for local Pseudopot. screening):
 2s( 2.00)                                                            
 2p( 4.00)                                                            
Vna: chval, zval:    6.00000   6.00000

Vna:  Cut-off radius for the neutral-atom potential:   5.314825

atom: _________________________________________________________________________

prinput: Basis input ----------------------------------------------------------

PAO.BasisType split     

%block ChemicalSpeciesLabel
    1    1 H                       # Species index, atomic number, species label
    2    7 N                       # Species index, atomic number, species label
    3   14 Si                      # Species index, atomic number, species label
    4    8 O                       # Species index, atomic number, species label
%endblock ChemicalSpeciesLabel

%block PAO.Basis                 # Define Basis set
H                     1                    # Species label, number of l-shells
 n=1   0   2 P   1                   # n, l, Nzeta, Polarization, NzetaPol
   6.518      2.141   
   1.000      1.000   
N                     2                    # Species label, number of l-shells
 n=2   0   2                         # n, l, Nzeta 
   4.730      2.532   
   1.000      1.000   
 n=2   1   2 P   1                   # n, l, Nzeta, Polarization, NzetaPol
   5.924      2.532   
   1.000      1.000   
Si                    2                    # Species label, number of l-shells
 n=3   0   2                         # n, l, Nzeta 
   6.430      3.998   
   1.000      1.000   
 n=3   1   2 P   1                   # n, l, Nzeta, Polarization, NzetaPol
   8.465      4.588   
   1.000      1.000   
O                     2                    # Species label, number of l-shells
 n=2   0   2                         # n, l, Nzeta 
   4.244      2.188   
   1.000      1.000   
 n=2   1   2 P   1                   # n, l, Nzeta, Polarization, NzetaPol
   5.315      2.161   
   1.000      1.000   
%endblock PAO.Basis

prinput: ----------------------------------------------------------------------

Dumping basis to NetCDF file H.ion.nc
Dumping basis to NetCDF file N.ion.nc
Dumping basis to NetCDF file Si.ion.nc
Dumping basis to NetCDF file O.ion.nc
coor:   Atomic-coordinates input format  =     Cartesian coordinates
coor:                                          (in Angstroms)

siesta: Atomic coordinates (Bohr) and species
siesta:      4.87999 -10.91663   0.00000  1        1
siesta:      3.12704  -9.95765   0.00000  2        2
siesta:      0.11930 -11.53056   0.00000  3        3
siesta:      0.22530 -14.35597   0.00000  1        4
siesta:     -2.60195  -9.79371   0.00000  2        5
siesta:     -1.55784  -6.54009   0.00000  3        6
siesta:     -2.21206  -2.39996   0.00000  3        7
siesta:     -5.11537  -0.78899   0.00000  2        8
siesta:     -5.20538   1.19971   0.00000  1        9
siesta:     -6.87421  -1.71959   0.00000  1       10
siesta:      0.41213  -0.44256   0.00000  2       11
siesta:      3.53758  -1.31745   0.00000  3       12
siesta:      5.34415   0.87204   0.00000  1       13
siesta:      5.00428  -4.26138   0.00000  2       14
siesta:      2.63035  -6.52849   0.00000  3       15
siesta:      3.52330  12.84745   0.00000  2       16
siesta:      1.01493  15.13440   0.00000  3       17
siesta:      2.22436  17.70692   0.00000  1       18
siesta:     -2.92656  13.86728   0.00000  3       19
siesta:     -6.76188  16.00289   0.00000  3       20
siesta:     -6.47042  18.19541   1.77692  1       21
siesta:     -8.62503  14.07174   0.96870  1       22
siesta:     -7.54841  16.90283  -2.58265  1       23
siesta:     -2.80090   9.57008   0.00000  3       24
siesta:     -4.76442   7.31553   0.00000  4       25
siesta:      0.33036   8.37204   0.00000  2       26
siesta:      0.29631   6.36431   0.00000  1       27
siesta:      3.39853   9.50034   0.00000  3       28
siesta:      5.65678   7.58336   0.00000  4       29
siesta:      5.41310  13.50036   0.00000  1       30

siesta: Automatic unit cell vectors (Ang):
siesta:   15.849942    0.000000    0.000000
siesta:    0.000000   26.536568    0.000000
siesta:    0.000000    0.000000   10.224979

siesta: System type = molecule  

initatomlists: Number of atoms, orbitals, and projectors:     30   302   403

siesta: ******************** Simulation parameters ****************************
siesta:
siesta: The following are some of the parameters of the simulation.
siesta: A complete list of the parameters used, including default values,
siesta: can be found in file out.fdf
siesta:
redata: Spin configuration                          = spin-orbit
redata: Number of spin components                   = 8
redata: Time-Reversal Symmetry                      = F
redata: Spin spiral                                 = F
############################################################
This spin-orbit implementation uses a local approximation.
From 4.2 and onwards the full non-local approximation is implemented
You are strongly advised to use >=4.2 versions!
############################################################
redata: Long output                                 =   F
redata: Number of Atomic Species                    =        4
redata: Charge density info will appear in .RHO file
redata: Write Mulliken Pop.                         = Atomic and Orbital charges
redata: Matel table size (NRTAB)                    =     1024
redata: Mesh Cutoff                                 =   340.0000 Ry
redata: Net charge of the system                    =     0.0000 |e|
redata: Min. number of SCF Iter                     =        1
redata: Max. number of SCF Iter                     =      200
redata: SCF mix quantity                            = Hamiltonian
redata: Mix DM or H after convergence               =   F
redata: Recompute H after scf cycle                 =   F
redata: Mix DM in first SCF step                    =   T
redata: Write Pulay info on disk                    =   F
redata: New DM Occupancy tolerance                  = 0.000000000001
redata: No kicks to SCF
redata: DM Mixing Weight for Kicks                  =     0.5000
redata: Require Harris convergence for SCF          =   F
redata: Harris energy tolerance for SCF             =     0.000100 eV
redata: Require DM convergence for SCF              =   T
redata: DM tolerance for SCF                        =     0.000008
redata: Require EDM convergence for SCF             =   F
redata: EDM tolerance for SCF                       =     0.001000 eV
redata: Require H convergence for SCF               =   T
redata: Hamiltonian tolerance for SCF               =     0.000001 eV
redata: Require (free) Energy convergence for SCF   =   F
redata: (free) Energy tolerance for SCF             =     0.000100 eV
redata: Using Saved Data (generic)                  =   F
redata: Use continuation files for DM               =   F
redata: Neglect nonoverlap interactions             =   F
redata: Method of Calculation                       = Diagonalization
redata: Electronic Temperature                      =   299.9978 K
redata: Fix the spin of the system                  =   F
redata: Dynamics option                             = Single-point calculation
mix.SCF: Pulay mixing                            = Pulay
mix.SCF:    Variant                              = stable
mix.SCF:    History steps                        = 6
mix.SCF:    Linear mixing weight                 =     0.250000
mix.SCF:    Mixing weight                        =     0.250000
mix.SCF:    SVD condition                        = 0.1000E-07
mix.SCF:    Restart steps                        = 24
mix.SCF:    Restart save steps                   = 3
mix.SCF: Spin-component mixing                   all
redata: Save all siesta data in one NC              =   F
redata: ***********************************************************************

%block SCF.Mixers
  Pulay
%endblock SCF.Mixers

%block SCF.Mixer.Pulay
  # Mixing method
  method pulay
  variant stable

  # Mixing options
  weight 0.2500
  weight.linear 0.2500
  history 6
  restart 24
  restart.save 3
%endblock SCF.Mixer.Pulay

DM_history_depth set to one: no extrapolation allowed by default for geometry relaxation
Size of DM history Fstack: 1
Total number of electrons:    98.000000
Total ionic charge:    98.000000

* ProcessorY, Blocksize:    2  24


* Orbital distribution balance (max,min):    62    48


Time-reversal symmetry not used.

siesta: k-grid: Number of k-points =     1
siesta: k-grid: Cutoff (effective) =     5.112 Ang
siesta: k-grid: Supercell and displacements
siesta: k-grid:    1   0   0      0.000
siesta: k-grid:    0   1   0      0.000
siesta: k-grid:    0   0   1      0.000

diag: Algorithm                                     = ELPA-1stage
diag: Parallel over k                               =   F
diag: Use parallel 2D distribution                  =   T
diag: Parallel block-size                           = 24
diag: Parallel distribution                         =     2 x     3
diag: Used triangular part                          = Lower
diag: Absolute tolerance                            =  0.100E-15
diag: Orthogonalization factor                      =  0.100E-05
diag: Memory factor                                 =  1.0000


ts: **************************************************************
ts: Save H and S matrices                           =    F
ts: Save DM and EDM matrices                        =    F
ts: Only save the overlap matrix S                  =    F
ts: **************************************************************

************************ Begin: TS CHECKS AND WARNINGS ************************
************************ End: TS CHECKS AND WARNINGS **************************


                     ====================================
                        Single-point calculation
                     ====================================

outcoor: Atomic coordinates (Ang):                          
    2.58237765   -5.77683044    0.00000000   1       1  H
    1.65475924   -5.26936198    0.00000000   2       2  N
    0.06312884   -6.10170459    0.00000000   3       3  Si
    0.11922324   -7.59684950    0.00000000   1       4  H
   -1.37689205   -5.18260374    0.00000000   2       5  N
   -0.82437190   -3.46086644    0.00000000   3       6  Si
   -1.17057148   -1.27000210    0.00000000   3       7  Si
   -2.70693368   -0.41751578    0.00000000   2       8  N
   -2.75456966    0.63485862    0.00000000   1       9  H
   -3.63767564   -0.90996786    0.00000000   1      10  H
    0.21809179   -0.23419397    0.00000000   2      11  N
    1.87200410   -0.69716230    0.00000000   3      12  Si
    2.82800113    0.46146477    0.00000000   1      13  H
    2.64815008   -2.25502447    0.00000000   2      14  N
    1.39192138   -3.45472722    0.00000000   3      15  Si
    1.86444878    6.79857241    0.00000000   2      16  N
    0.53707726    8.00877671    0.00000000   3      17  Si
    1.17707853    9.37009495    0.00000000   1      18  H
   -1.54866868    7.33824536    0.00000000   3      19  Si
   -3.57823128    8.46836155    0.00000000   3      20  Si
   -3.42399551    9.62859176    0.94030528   1      21  H
   -4.56416600    7.44644093    0.51261370   1      22  H
   -3.99444624    8.94458740   -1.36667834   1      23  H
   -1.48217326    5.06426874    0.00000000   3      24  Si
   -2.52122199    3.87120924    0.00000000   4      25  O
    0.17481832    4.43029355    0.00000000   2      26  N
    0.15680095    3.36784872    0.00000000   1      27  H
    1.79842139    5.02736376    0.00000000   3      28  Si
    2.99343756    4.01293856    0.00000000   4      29  O
    2.86448615    7.14407951    0.00000000   1      30  H

outcell: Unit cell vectors (Ang):
       15.849942    0.000000    0.000000
        0.000000   26.536568    0.000000
        0.000000    0.000000   10.224979

outcell: Cell vector modules (Ang)   :   15.849942   26.536568   10.224979
outcell: Cell angles (23,13,12) (deg):     90.0000     90.0000     90.0000
outcell: Cell volume (Ang**3)        :   4300.6577
<dSpData1D:S at geom step 0
  <sparsity:sparsity for geom step 0
    nrows_g=302 nrows=62 sparsity=.1202 nnzs=10967, refcount: 8>
  <dData1D:(new from dSpData1D) n=10967, refcount: 1>
refcount: 1>
new_DM -- step:     1
Initializing Density Matrix...
DM filled with atomic data:
<dSpData2D:DM initialized from atoms
  <sparsity:sparsity for geom step 0
    nrows_g=302 nrows=62 sparsity=.1202 nnzs=10967, refcount: 9>
  <dData2D:DM n=10967 m=8, refcount: 1>
refcount: 1>
     spin moment: S , {S} =   56.00000   0.00000   0.00000  56.00000
No. of atoms with KB's overlaping orbs in proc 0. Max # of overlaps:      24     158

Initializing spin-orbit part of the Hamiltonian
  Adding spin-orbit effects for H 
  Adding spin-orbit effects for N 
  Adding spin-orbit effects for Si
  Adding spin-orbit effects for O 


New grid distribution:   1
           1       1:   90    1:   75    1:   20
           2       1:   90    1:   75   21:   40
           3       1:   90    1:   75   41:   60
           4       1:   90   76:  150    1:   20
           5       1:   90   76:  150   21:   40
           6       1:   90   76:  150   41:   60

InitMesh: MESH =   180 x   300 x   120 =     6480000
InitMesh: (bp) =    90 x   150 x    60 =      810000
InitMesh: Mesh cutoff (required, used) =   340.000   353.228 Ry
ExtMesh (bp) on 0 =   194 x   179 x   128 =     4444928
New grid distribution:   2
           1      14:   90   32:   51    1:   60
           2       1:   11   52:  150    1:   60
           3       1:   13    1:   51    1:   60
           4      12:   90   52:  130    1:   60
           5      14:   90    1:   31    1:   60
           6      12:   90  131:  150    1:   60
New grid distribution:   3
           1       1:   19   57:  150    1:   60
           2      23:   90   33:   56    1:   60
           3       1:   22    1:   56    1:   60
           4      20:   90   57:  122    1:   60
           5      23:   90    1:   32    1:   60
           6      20:   90  123:  150    1:   60
Setting up quadratic distribution...
ExtMesh (bp) on 0 =   181 x   124 x   168 =     3770592
PhiOnMesh: Number of (b)points on node 0 =                92400
PhiOnMesh: nlist on node 0 =              1736855

stepf: Fermi-Dirac step function

siesta: Program's energy decomposition (eV):
siesta: Ebs     =      -625.315926
siesta: Eions   =      3553.971015
siesta: Ena     =       377.799723
siesta: Ekin    =      3181.776191
siesta: Enl     =     -2996.934533
siesta: Eso     =        -0.003908
siesta: Edftu   =         0.000000
siesta: DEna    =       130.285916
siesta: DUscf   =        76.201112
siesta: DUext   =         0.000000
siesta: Exc     =     -1170.986166
siesta: eta*DQ  =         0.000000
siesta: Emadel  =         0.000000
siesta: Emeta   =         0.000000
siesta: Emolmec =         0.000000
siesta: Ekinion =         0.000000
siesta: Eharris =     -3883.813150
siesta: Etot    =     -3955.832681
siesta: FreeEng =     -3955.836887

        iscf     Eharris(eV)        E_KS(eV)     FreeEng(eV)     dDmax    Ef(eV) dHmax(eV)
   scf:    1    -3883.813150    -3955.832681    -3955.836887  0.971406 -4.940736 21.459911
     spin moment: S , {S} =    2.03175   0.00003   0.00001   2.03175
timer: Routine,Calls,Time,% = IterSCF        1       5.506  21.51
   scf:    2    -3998.930174    -3989.888288    -3989.888290  0.456915 -4.354298 10.486127
     spin moment: S , {S} =    2.00011  -0.00001   0.00004   2.00011
   scf:    3    -3987.257887    -3993.900122    -3993.932951  0.416484 -4.249194  8.156253
     spin moment: S , {S} =    0.62886   0.00001   0.00000   0.62886
   scf:    4    -4000.154224    -3997.600932    -3997.600932  0.104811 -3.945637  5.272862
     spin moment: S , {S} =    0.00010   0.00001  -0.00000   0.00010
   scf:    5    -3999.008099    -3998.352417    -3998.352417  0.030745 -3.875092  2.787418
     spin moment: S , {S} =    0.00005   0.00000  -0.00000   0.00005
   scf:    6    -3998.946398    -3998.657372    -3998.657372  0.024173 -3.891391  1.532640
     spin moment: S , {S} =    0.00003   0.00000  -0.00000   0.00003
   scf:    7    -3998.958982    -3998.802153    -3998.802154  0.020992 -3.939889  0.628248
     spin moment: S , {S} =    0.00001   0.00000  -0.00000   0.00001
   scf:    8    -3998.890869    -3998.844781    -3998.844783  0.009866 -3.971079  0.331729
     spin moment: S , {S} =    0.00000   0.00000  -0.00000   0.00000
   scf:    9    -3998.884893    -3998.863767    -3998.863776  0.007274 -3.984989  0.207705
     spin moment: S , {S} =    0.00002   0.00000  -0.00000  -0.00002
   scf:   10    -3998.897668    -3998.878156    -3998.878229  0.012611 -3.995368  0.106296
     spin moment: S , {S} =    0.00016   0.00000   0.00000  -0.00016
   scf:   11    -3998.881879    -3998.879897    -3998.879975  0.004510 -3.990064  0.037776
     spin moment: S , {S} =    0.00004   0.00000   0.00000  -0.00004
   scf:   12    -3998.880980    -3998.880411    -3998.880493  0.002143 -3.989211  0.030694
     spin moment: S , {S} =    0.00001   0.00000   0.00000  -0.00001
   scf:   13    -3998.881072    -3998.880721    -3998.880805  0.001812 -3.988288  0.024992
     spin moment: S , {S} =    0.00000   0.00000   0.00000  -0.00000
   scf:   14    -3998.881411    -3998.881022    -3998.881106  0.002640 -3.987477  0.015626
     spin moment: S , {S} =    0.00000   0.00000   0.00000  -0.00000
   scf:   15    -3998.881264    -3998.881126    -3998.881209  0.001730 -3.987174  0.009053
     spin moment: S , {S} =    0.00001   0.00000   0.00000  -0.00001
   scf:   16    -3998.881198    -3998.881157    -3998.881240  0.000988 -3.987338  0.004497
     spin moment: S , {S} =    0.00000   0.00000   0.00000  -0.00000
   scf:   17    -3998.881181    -3998.881166    -3998.881249  0.000670 -3.987482  0.002667
     spin moment: S , {S} =    0.00000   0.00000   0.00000  -0.00000
   scf:   18    -3998.881171    -3998.881168    -3998.881251  0.000272 -3.987582  0.001409
     spin moment: S , {S} =    0.00000   0.00000   0.00000  -0.00000
   scf:   19    -3998.881169    -3998.881169    -3998.881251  0.000119 -3.987586  0.000877
     spin moment: S , {S} =    0.00000   0.00000   0.00000  -0.00000
   scf:   20    -3998.881170    -3998.881169    -3998.881252  0.000093 -3.987582  0.000534
     spin moment: S , {S} =    0.00000   0.00000   0.00000   0.00000
   scf:   21    -3998.881170    -3998.881169    -3998.881252  0.000086 -3.987580  0.000337
     spin moment: S , {S} =    0.00000   0.00000   0.00000  -0.00000
   scf:   22    -3998.881170    -3998.881169    -3998.881252  0.000047 -3.987590  0.000221
     spin moment: S , {S} =    0.00000   0.00000   0.00000  -0.00000
   scf:   23    -3998.881169    -3998.881169    -3998.881252  0.000013 -3.987598  0.000158
     spin moment: S , {S} =    0.00000   0.00000   0.00000  -0.00000
   scf:   24    -3998.881169    -3998.881169    -3998.881252  0.000009 -3.987601  0.000116
     spin moment: S , {S} =    0.00000   0.00000   0.00000  -0.00000
mix: Pulay -- resetting history
   scf:   25    -3998.881169    -3998.881169    -3998.881252  0.000014 -3.987600  0.000046
     spin moment: S , {S} =    0.00000   0.00000   0.00000  -0.00000
   scf:   26    -3998.881169    -3998.881169    -3998.881252  0.000007 -3.987597  0.000016
     spin moment: S , {S} =    0.00000   0.00000   0.00000  -0.00000
   scf:   27    -3998.881169    -3998.881169    -3998.881252  0.000001 -3.987597  0.000008
     spin moment: S , {S} =    0.00000   0.00000   0.00000  -0.00000
   scf:   28    -3998.881169    -3998.881169    -3998.881252  0.000001 -3.987597  0.000005
     spin moment: S , {S} =    0.00000   0.00000   0.00000  -0.00000
   scf:   29    -3998.881169    -3998.881169    -3998.881252  0.000001 -3.987597  0.000003
     spin moment: S , {S} =    0.00000   0.00000  -0.00000  -0.00000
   scf:   30    -3998.881169    -3998.881169    -3998.881252  0.000000 -3.987597  0.000002
     spin moment: S , {S} =    0.00000   0.00000  -0.00000  -0.00000
   scf:   31    -3998.881169    -3998.881169    -3998.881252  0.000000 -3.987597  0.000001
     spin moment: S , {S} =    0.00000   0.00000  -0.00000  -0.00000
   scf:   32    -3998.881169    -3998.881169    -3998.881252  0.000000 -3.987597  0.000001
     spin moment: S , {S} =    0.00000   0.00000  -0.00000  -0.00000

SCF Convergence by DM+H criterion
max |DM_out - DM_in|         :     0.0000000851
max |H_out - H_in|      (eV) :     0.0000009666
SCF cycle converged after 32 iterations

Using DM_out to compute the final energy and forces
No. of atoms with KB's overlaping orbs in proc 0. Max # of overlaps:      24     158

siesta: E_KS(eV) =            -3998.8812

siesta: E_KS - E_eggbox =     -3998.8812
     spin moment: S , {S} =    0.00000   0.00000  -0.00000  -0.00000

siesta: Atomic forces (eV/Ang):
     1   -0.032358    0.055921    0.000002
     2   -0.007072   -0.048663   -0.000003
     3   -0.000261    0.043471    0.000004
     4   -0.051564   -0.040691    0.000001
     5    0.021572   -0.039429   -0.000003
     6    0.042305    0.005766    0.000002
     7   -0.179183    0.133129    0.000016
     8    0.098836   -0.085576   -0.000067
     9    0.044075    0.041114    0.000111
    10    0.104453    0.086606    0.000012
    11   -0.020840    0.026381   -0.000020
    12    0.117245    0.086095   -0.000002
    13   -0.120474   -0.146698   -0.000002
    14   -0.025759   -0.060486    0.000002
    15   -0.000882    0.063373   -0.000001
    16    0.019392    0.083003    0.008085
    17    0.006402   -0.055823   -0.039845
    18   -0.141681    0.082030    0.008302
    19   -0.013091    0.026366   -0.041175
    20    0.042689   -0.048706    0.026279
    21   -0.188767    0.250486    0.052530
    22   -0.089520   -0.026040    0.023585
    23    0.067877    0.007008   -0.050897
    24    0.118511   -0.111456   -0.026582
    25   -3.389796    3.829642    0.003000
    26   -0.075975    0.169326    0.006620
    27    0.111864   -0.198779    0.002809
    28   -0.042510   -0.131693   -0.000871
    29    0.742787   -2.222428   -0.001095
    30    0.046449    0.184253    0.008259
----------------------------------------
   Tot   -2.795277    1.957502   -0.020941
----------------------------------------
   Max    3.829642
   Res    0.597710    sqrt( Sum f_i^2 / 3N )
----------------------------------------
   Max    3.829642    constrained

Stress tensor Voigt[x,y,z,yz,xz,xy] (kbar):       -1.78       -0.18       -0.22       -0.04        0.05        0.29
(Free)E + p*V (eV/cell)    -3996.9329
Target enthalpy (eV/cell)    -3998.8813

mulliken: Atomic and Orbital Populations:

Species: H                   

Atom      Orb        Charge      Spin       Svec
----------------------------------------------------------------
    1  1 1s         0.50904   0.00000     -0.000  -0.000  -0.000
    1  2 1s         0.18797   0.00000      0.000  -0.000  -0.000
    1  3 2Ppy       0.02799   0.00000     -0.000  -0.000  -0.000
    1  4 2Ppz       0.04003   0.00000     -0.000   0.000  -0.000
    1  5 2Ppx       0.02510   0.00000     -0.000   0.000  -0.000
    1     Total     0.79014   0.00000     -0.000  -0.000  -0.000

    4  1 1s         1.02414   0.00000      0.000  -0.000   0.000
    4  2 1s         0.09512   0.00000     -0.000   0.000  -0.000
    4  3 2Ppy       0.03899   0.00000     -0.000   0.000   0.000
    4  4 2Ppz       0.01995   0.00000      0.000   0.000  -0.000
    4  5 2Ppx       0.01356   0.00000      0.000  -0.000   0.000
    4     Total     1.19177   0.00000      0.000   0.000   0.000

    9  1 1s         0.47232   0.00000      0.000  -0.000  -0.000
    9  2 1s         0.19597   0.00000     -0.000  -0.000  -0.000
    9  3 2Ppy       0.02770   0.00000      0.000  -0.000   0.000
    9  4 2Ppz       0.04696   0.00000     -0.000  -0.000  -0.000
    9  5 2Ppx       0.01159   0.00000      0.000   0.000  -0.000
    9     Total     0.75453   0.00000      0.000  -0.000  -0.000

   10  1 1s         0.48347   0.00000     -0.000   0.000  -0.000
   10  2 1s         0.19584   0.00000      0.000  -0.000  -0.000
   10  3 2Ppy       0.00697   0.00000      0.000   0.000  -0.000
   10  4 2Ppz       0.05302   0.00000      0.000   0.000  -0.000
   10  5 2Ppx       0.02925   0.00000     -0.000   0.000  -0.000
   10     Total     0.76855   0.00000     -0.000   0.000  -0.000

   13  1 1s         1.00211   0.00000     -0.000   0.000   0.000
   13  2 1s         0.10083   0.00000      0.000  -0.000  -0.000
   13  3 2Ppy       0.02735   0.00000      0.000   0.000   0.000
   13  4 2Ppz       0.01413   0.00000     -0.000  -0.000  -0.000
   13  5 2Ppx       0.01778   0.00000      0.000   0.000  -0.000
   13     Total     1.16221   0.00000     -0.000   0.000   0.000

   18  1 1s         1.04994   0.00000     -0.000  -0.000   0.000
   18  2 1s         0.08383   0.00000      0.000   0.000  -0.000
   18  3 2Ppy       0.02784   0.00000     -0.000  -0.000  -0.000
   18  4 2Ppz       0.01889   0.00000      0.000   0.000  -0.000
   18  5 2Ppx       0.01765   0.00000      0.000   0.000   0.000
   18     Total     1.19815   0.00000     -0.000  -0.000   0.000

   21  1 1s         1.06627   0.00000      0.000  -0.000   0.000
   21  2 1s         0.08278   0.00000     -0.000   0.000  -0.000
   21  3 2Ppy       0.02230   0.00000     -0.000  -0.000  -0.000
   21  4 2Ppz       0.02109   0.00000      0.000   0.000  -0.000
   21  5 2Ppx       0.01158   0.00000     -0.000   0.000  -0.000
   21     Total     1.20402   0.00000      0.000  -0.000   0.000

   22  1 1s         1.05230   0.00000     -0.000   0.000   0.000
   22  2 1s         0.08355   0.00000      0.000  -0.000   0.000
   22  3 2Ppy       0.02009   0.00000      0.000  -0.000  -0.000
   22  4 2Ppz       0.01769   0.00000      0.000  -0.000  -0.000
   22  5 2Ppx       0.01709   0.00000      0.000  -0.000  -0.000
   22     Total     1.19073   0.00000     -0.000   0.000   0.000

   23  1 1s         1.06487   0.00000      0.000   0.000   0.000
   23  2 1s         0.08213   0.00000     -0.000  -0.000  -0.000
   23  3 2Ppy       0.01685   0.00000     -0.000  -0.000  -0.000
   23  4 2Ppz       0.02463   0.00000     -0.000   0.000  -0.000
   23  5 2Ppx       0.01348   0.00000     -0.000   0.000  -0.000
   23     Total     1.20195   0.00000      0.000   0.000   0.000

   27  1 1s         0.46080   0.00000      0.000   0.000  -0.000
   27  2 1s         0.19088   0.00000     -0.000  -0.000  -0.000
   27  3 2Ppy       0.02276   0.00000     -0.000   0.000  -0.000
   27  4 2Ppz       0.02444   0.00000     -0.000  -0.000  -0.000
   27  5 2Ppx       0.02875   0.00000      0.000  -0.000  -0.000
   27     Total     0.72762   0.00000     -0.000   0.000  -0.000

   30  1 1s         0.48376   0.00000     -0.000  -0.000  -0.000
   30  2 1s         0.18898   0.00000     -0.000  -0.000  -0.000
   30  3 2Ppy       0.02669   0.00000      0.000  -0.000  -0.000
   30  4 2Ppz       0.03449   0.00000     -0.000  -0.000  -0.000
   30  5 2Ppx       0.02324   0.00000      0.000  -0.000  -0.000
   30     Total     0.75716   0.00000     -0.000  -0.000  -0.000

----------------------------------------------------------------
Total              10.94683   0.00000      0.000   0.000   0.000


Species: N                   

Atom      Orb        Charge      Spin       Svec
----------------------------------------------------------------
    2  1 2s         1.38079   0.00000      0.000   0.000   0.000
    2  2 2s         0.12677   0.00000     -0.000   0.000   0.000
    2  3 2py        1.06847   0.00000      0.000   0.000   0.000
    2  4 2pz        1.49525   0.00000      0.000   0.000   0.000
    2  5 2px        1.01718   0.00000      0.000   0.000   0.000
    2  6 2py        0.19588   0.00000     -0.000  -0.000  -0.000
    2  7 2pz        0.01436   0.00000     -0.000  -0.000  -0.000
    2  8 2px        0.21004   0.00000     -0.000   0.000  -0.000
    2  9 3Pdxy      0.00675   0.00000     -0.000   0.000  -0.000
    2 10 3Pdyz      0.00607   0.00000     -0.000  -0.000  -0.000
    2 11 3Pdz2      0.00152   0.00000     -0.000  -0.000  -0.000
    2 12 3Pdxz      0.00304   0.00000     -0.000  -0.000  -0.000
    2 13 3Pdx2-y2   0.00297   0.00000     -0.000  -0.000  -0.000
    2     Total     5.52909   0.00000      0.000   0.000   0.000

    5  1 2s         1.55797   0.00000     -0.000   0.000   0.000
    5  2 2s         0.08123   0.00000      0.000  -0.000  -0.000
    5  3 2py        0.90443   0.00000      0.000   0.000   0.000
    5  4 2pz        1.22246   0.00000     -0.000  -0.000   0.000
    5  5 2px        1.14231   0.00000     -0.000  -0.000   0.000
    5  6 2py        0.23004   0.00000     -0.000   0.000  -0.000
    5  7 2pz        0.05524   0.00000      0.000   0.000  -0.000
    5  8 2px        0.14621   0.00000     -0.000   0.000  -0.000
    5  9 3Pdxy      0.00854   0.00000     -0.000   0.000   0.000
    5 10 3Pdyz      0.00702   0.00000     -0.000  -0.000  -0.000
    5 11 3Pdz2      0.00189   0.00000     -0.000   0.000  -0.000
    5 12 3Pdxz      0.01128   0.00000      0.000   0.000  -0.000
    5 13 3Pdx2-y2   0.00920   0.00000      0.000   0.000   0.000
    5     Total     5.37782   0.00000     -0.000  -0.000   0.000

    8  1 2s         1.28271   0.00000      0.000  -0.000   0.000
    8  2 2s         0.17255   0.00000     -0.000   0.000   0.000
    8  3 2py        1.06824   0.00000     -0.000  -0.000   0.000
    8  4 2pz        1.56776   0.00000      0.000   0.000   0.000
    8  5 2px        1.00284   0.00000     -0.000  -0.000   0.000
    8  6 2py        0.19407   0.00000      0.000   0.000   0.000
    8  7 2pz        0.02719   0.00000     -0.000   0.000  -0.000
    8  8 2px        0.22875   0.00000     -0.000   0.000   0.000
    8  9 3Pdxy      0.00273   0.00000      0.000  -0.000   0.000
    8 10 3Pdyz      0.00084   0.00000      0.000   0.000  -0.000
    8 11 3Pdz2      0.00268   0.00000     -0.000  -0.000  -0.000
    8 12 3Pdxz      0.00242   0.00000     -0.000  -0.000  -0.000
    8 13 3Pdx2-y2   0.00417   0.00000      0.000  -0.000  -0.000
    8     Total     5.55694   0.00000     -0.000  -0.000   0.000

   11  1 2s         1.45836   0.00000      0.000   0.000   0.000
   11  2 2s         0.11359   0.00000     -0.000  -0.000   0.000
   11  3 2py        1.23276   0.00000     -0.000  -0.000   0.000
   11  4 2pz        1.29235   0.00000      0.000   0.000   0.000
   11  5 2px        0.80210   0.00000     -0.000   0.000   0.000
   11  6 2py        0.10662   0.00000     -0.000   0.000   0.000
   11  7 2pz        0.04500   0.00000     -0.000  -0.000  -0.000
   11  8 2px        0.31697   0.00000     -0.000  -0.000  -0.000
   11  9 3Pdxy      0.00737   0.00000      0.000  -0.000   0.000
   11 10 3Pdyz      0.00595   0.00000     -0.000  -0.000  -0.000
   11 11 3Pdz2      0.00049   0.00000      0.000  -0.000  -0.000
   11 12 3Pdxz      0.00497   0.00000      0.000  -0.000  -0.000
   11 13 3Pdx2-y2   0.00506   0.00000     -0.000  -0.000  -0.000
   11     Total     5.39160   0.00000      0.000   0.000   0.000

   14  1 2s         1.50521   0.00000     -0.000   0.000   0.000
   14  2 2s         0.10298   0.00000      0.000  -0.000   0.000
   14  3 2py        0.84496   0.00000      0.000  -0.000   0.000
   14  4 2pz        1.23749   0.00000     -0.000   0.000   0.000
   14  5 2px        1.17556   0.00000      0.000  -0.000   0.000
   14  6 2py        0.27705   0.00000     -0.000  -0.000  -0.000
   14  7 2pz        0.05445   0.00000     -0.000  -0.000  -0.000
   14  8 2px        0.13243   0.00000     -0.000   0.000  -0.000
   14  9 3Pdxy      0.00948   0.00000     -0.000   0.000  -0.000
   14 10 3Pdyz      0.00488   0.00000     -0.000   0.000   0.000
   14 11 3Pdz2      0.00148   0.00000      0.000  -0.000   0.000
   14 12 3Pdxz      0.01067   0.00000      0.000  -0.000  -0.000
   14 13 3Pdx2-y2   0.00793   0.00000      0.000   0.000   0.000
   14     Total     5.36458   0.00000      0.000   0.000   0.000

   16  1 2s         1.37757   0.00000     -0.000   0.000   0.000
   16  2 2s         0.12642   0.00000      0.000  -0.000   0.000
   16  3 2py        0.99172   0.00000      0.000  -0.000   0.000
   16  4 2pz        1.54733   0.00000     -0.000   0.000   0.000
   16  5 2px        1.08051   0.00000     -0.000   0.000   0.000
   16  6 2py        0.23933   0.00000     -0.000   0.000  -0.000
   16  7 2pz        0.00321   0.00000     -0.000  -0.000  -0.000
   16  8 2px        0.18039   0.00000      0.000  -0.000  -0.000
   16  9 3Pdxy      0.00156   0.00000     -0.000  -0.000   0.000
   16 10 3Pdyz      0.00476   0.00000     -0.000  -0.000  -0.000
   16 11 3Pdz2      0.00088   0.00000     -0.000   0.000   0.000
   16 12 3Pdxz      0.00236   0.00000     -0.000  -0.000  -0.000
   16 13 3Pdx2-y2   0.00609   0.00000      0.000  -0.000  -0.000
   16     Total     5.56212   0.00000     -0.000   0.000   0.000

   26  1 2s         1.36847   0.00000      0.000   0.000   0.000
   26  2 2s         0.12757   0.00000     -0.000   0.000  -0.000
   26  3 2py        1.11570   0.00000     -0.000  -0.000   0.000
   26  4 2pz        1.52886   0.00000     -0.000   0.000   0.000
   26  5 2px        0.94309   0.00000     -0.000   0.000   0.000
   26  6 2py        0.16949   0.00000      0.000   0.000   0.000
   26  7 2pz        0.00487   0.00000     -0.000   0.000  -0.000
   26  8 2px        0.26645   0.00000      0.000  -0.000  -0.000
   26  9 3Pdxy      0.00068   0.00000     -0.000  -0.000  -0.000
   26 10 3Pdyz      0.00081   0.00000      0.000  -0.000  -0.000
   26 11 3Pdz2     -0.00130   0.00000     -0.000  -0.000  -0.000
   26 12 3Pdxz      0.00465   0.00000     -0.000   0.000  -0.000
   26 13 3Pdx2-y2   0.00208   0.00000     -0.000   0.000  -0.000
   26     Total     5.53142   0.00000     -0.000   0.000   0.000

----------------------------------------------------------------
Total              49.26039   0.00000     -0.000   0.000   0.000


Species: Si                  

Atom      Orb        Charge      Spin       Svec
----------------------------------------------------------------
    3  1 3s         0.55094   0.00000      0.000  -0.000  -0.000
    3  2 3s         0.38739   0.00000     -0.000  -0.000  -0.000
    3  3 3py        0.08240   0.00000     -0.000   0.000  -0.000
    3  4 3pz        0.53715   0.00000     -0.000   0.000  -0.000
    3  5 3px        0.36866   0.00000     -0.000   0.000  -0.000
    3  6 3py        0.49842   0.00000      0.000  -0.000   0.000
    3  7 3pz        0.17568   0.00000      0.000   0.000  -0.000
    3  8 3px        0.23710   0.00000      0.000  -0.000  -0.000
    3  9 3Pdxy      0.10827   0.00000     -0.000  -0.000  -0.000
    3 10 3Pdyz      0.05220   0.00000      0.000   0.000  -0.000
    3 11 3Pdz2      0.01016   0.00000      0.000  -0.000  -0.000
    3 12 3Pdxz      0.13309   0.00000     -0.000  -0.000  -0.000
    3 13 3Pdx2-y2   0.32451   0.00000      0.000  -0.000  -0.000
    3     Total     3.46599   0.00000     -0.000   0.000  -0.000

    6  1 3s         0.66133   0.00000      0.000  -0.000  -0.000
    6  2 3s         0.37042   0.00000     -0.000   0.000  -0.000
    6  3 3py        0.13021   0.00000     -0.000  -0.000  -0.000
    6  4 3pz        0.69575   0.00000      0.000   0.000  -0.000
    6  5 3px        0.49074   0.00000     -0.000  -0.000  -0.000
    6  6 3py        0.46597   0.00000      0.000   0.000  -0.000
    6  7 3pz        0.24287   0.00000     -0.000  -0.000  -0.000
    6  8 3px        0.24554   0.00000      0.000   0.000  -0.000
    6  9 3Pdxy      0.18469   0.00000      0.000  -0.000  -0.000
    6 10 3Pdyz      0.14695   0.00000     -0.000  -0.000   0.000
    6 11 3Pdz2      0.01165   0.00000      0.000  -0.000  -0.000
    6 12 3Pdxz      0.03658   0.00000     -0.000  -0.000   0.000
    6 13 3Pdx2-y2   0.18836   0.00000     -0.000  -0.000   0.000
    6     Total     3.87106   0.00000      0.000   0.000  -0.000

    7  1 3s         0.62681   0.00000     -0.000   0.000  -0.000
    7  2 3s         0.36955   0.00000      0.000  -0.000   0.000
    7  3 3py        0.37347   0.00000      0.000  -0.000   0.000
    7  4 3pz        0.49329   0.00000     -0.000  -0.000  -0.000
    7  5 3px        0.07943   0.00000     -0.000  -0.000  -0.000
    7  6 3py        0.30289   0.00000      0.000   0.000   0.000
    7  7 3pz        0.20808   0.00000     -0.000   0.000  -0.000
    7  8 3px        0.42234   0.00000      0.000   0.000  -0.000
    7  9 3Pdxy      0.20439   0.00000     -0.000   0.000  -0.000
    7 10 3Pdyz      0.14282   0.00000     -0.000  -0.000  -0.000
    7 11 3Pdz2      0.01066   0.00000     -0.000  -0.000  -0.000
    7 12 3Pdxz      0.15116   0.00000      0.000  -0.000  -0.000
    7 13 3Pdx2-y2   0.24097   0.00000     -0.000  -0.000  -0.000
    7     Total     3.62586   0.00000     -0.000  -0.000  -0.000

   12  1 3s         0.53206   0.00000     -0.000  -0.000  -0.000
   12  2 3s         0.40097   0.00000      0.000  -0.000  -0.000
   12  3 3py        0.22448   0.00000     -0.000  -0.000  -0.000
   12  4 3pz        0.43734   0.00000      0.000  -0.000  -0.000
   12  5 3px        0.29206   0.00000     -0.000   0.000  -0.000
   12  6 3py        0.39963   0.00000      0.000   0.000   0.000
   12  7 3pz        0.16917   0.00000     -0.000   0.000  -0.000
   12  8 3px        0.34309   0.00000      0.000  -0.000  -0.000
   12  9 3Pdxy      0.38717   0.00000     -0.000  -0.000  -0.000
   12 10 3Pdyz      0.08056   0.00000     -0.000  -0.000  -0.000
   12 11 3Pdz2      0.01028   0.00000      0.000   0.000   0.000
   12 12 3Pdxz      0.09272   0.00000     -0.000  -0.000  -0.000
   12 13 3Pdx2-y2   0.16497   0.00000     -0.000  -0.000  -0.000
   12     Total     3.53452   0.00000     -0.000  -0.000  -0.000

   15  1 3s         0.66148   0.00000     -0.000   0.000   0.000
   15  2 3s         0.36710   0.00000     -0.000  -0.000   0.000
   15  3 3py       -0.03171   0.00000      0.000   0.000   0.000
   15  4 3pz        0.51110   0.00000      0.000  -0.000   0.000
   15  5 3px        0.38980   0.00000     -0.000  -0.000   0.000
   15  6 3py        0.47416   0.00000      0.000  -0.000  -0.000
   15  7 3pz        0.19989   0.00000     -0.000   0.000   0.000
   15  8 3px        0.33991   0.00000      0.000   0.000  -0.000
   15  9 3Pdxy      0.14153   0.00000      0.000   0.000  -0.000
   15 10 3Pdyz      0.12587   0.00000     -0.000  -0.000   0.000
   15 11 3Pdz2      0.01394   0.00000     -0.000  -0.000   0.000
   15 12 3Pdxz      0.12487   0.00000     -0.000  -0.000   0.000
   15 13 3Pdx2-y2   0.30246   0.00000      0.000   0.000   0.000
   15     Total     3.62040   0.00000     -0.000  -0.000   0.000

   17  1 3s         0.73150   0.00000      0.000  -0.000  -0.000
   17  2 3s         0.35639   0.00000     -0.000   0.000  -0.000
   17  3 3py        0.09595   0.00000      0.000  -0.000  -0.000
   17  4 3pz        0.62565   0.00000     -0.000  -0.000  -0.000
   17  5 3px        0.35572   0.00000     -0.000  -0.000  -0.000
   17  6 3py        0.45333   0.00000     -0.000   0.000   0.000
   17  7 3pz        0.15130   0.00000     -0.000   0.000  -0.000
   17  8 3px        0.33510   0.00000      0.000   0.000  -0.000
   17  9 3Pdxy      0.15095   0.00000      0.000  -0.000  -0.000
   17 10 3Pdyz      0.02343   0.00000      0.000  -0.000   0.000
   17 11 3Pdz2      0.00912   0.00000     -0.000   0.000   0.000
   17 12 3Pdxz      0.12878   0.00000     -0.000   0.000  -0.000
   17 13 3Pdx2-y2   0.12697   0.00000     -0.000  -0.000  -0.000
   17     Total     3.54419   0.00000      0.000  -0.000  -0.000

   19  1 3s         0.86228   0.00000      0.000  -0.000   0.000
   19  2 3s         0.31310   0.00000     -0.000   0.000   0.000
   19  3 3py        0.44318   0.00000      0.000   0.000   0.000
   19  4 3pz        0.66004   0.00000      0.000   0.000   0.000
   19  5 3px        0.35322   0.00000     -0.000   0.000   0.000
   19  6 3py        0.32338   0.00000     -0.000  -0.000  -0.000
   19  7 3pz        0.26862   0.00000     -0.000   0.000   0.000
   19  8 3px        0.35663   0.00000      0.000  -0.000   0.000
   19  9 3Pdxy      0.09332   0.00000     -0.000   0.000  -0.000
   19 10 3Pdyz      0.02930   0.00000      0.000  -0.000  -0.000
   19 11 3Pdz2      0.01452   0.00000     -0.000  -0.000  -0.000
   19 12 3Pdxz      0.05650   0.00000     -0.000   0.000  -0.000
   19 13 3Pdx2-y2   0.13137   0.00000      0.000  -0.000  -0.000
   19     Total     3.90545   0.00000      0.000   0.000   0.000

   20  1 3s         0.54063   0.00000     -0.000  -0.000  -0.000
   20  2 3s         0.44396   0.00000     -0.000   0.000  -0.000
   20  3 3py        0.31051   0.00000     -0.000   0.000  -0.000
   20  4 3pz        0.25485   0.00000     -0.000   0.000  -0.000
   20  5 3px        0.45507   0.00000     -0.000  -0.000  -0.000
   20  6 3py        0.38747   0.00000      0.000  -0.000  -0.000
   20  7 3pz        0.42322   0.00000      0.000  -0.000  -0.000
   20  8 3px        0.27754   0.00000      0.000  -0.000  -0.000
   20  9 3Pdxy      0.07000   0.00000     -0.000   0.000   0.000
   20 10 3Pdyz      0.08423   0.00000     -0.000   0.000   0.000
   20 11 3Pdz2      0.05094   0.00000     -0.000   0.000  -0.000
   20 12 3Pdxz      0.07241   0.00000     -0.000   0.000   0.000
   20 13 3Pdx2-y2   0.04581   0.00000      0.000  -0.000   0.000
   20     Total     3.41664   0.00000     -0.000  -0.000  -0.000

   24  1 3s         0.60422   0.00000     -0.000  -0.000  -0.000
   24  2 3s         0.37054   0.00000      0.000   0.000  -0.000
   24  3 3py        0.27100   0.00000     -0.000   0.000  -0.000
   24  4 3pz        0.40867   0.00000     -0.000  -0.000  -0.000
   24  5 3px        0.16921   0.00000      0.000   0.000  -0.000
   24  6 3py        0.39653   0.00000      0.000  -0.000  -0.000
   24  7 3pz        0.19326   0.00000     -0.000  -0.000  -0.000
   24  8 3px        0.35977   0.00000     -0.000  -0.000  -0.000
   24  9 3Pdxy      0.14241   0.00000      0.000  -0.000   0.000
   24 10 3Pdyz      0.14050   0.00000      0.000  -0.000   0.000
   24 11 3Pdz2      0.01494   0.00000     -0.000  -0.000  -0.000
   24 12 3Pdxz      0.12164   0.00000     -0.000   0.000  -0.000
   24 13 3Pdx2-y2   0.34791   0.00000     -0.000  -0.000  -0.000
   24     Total     3.54061   0.00000     -0.000  -0.000  -0.000

   28  1 3s         0.43288   0.00000      0.000  -0.000  -0.000
   28  2 3s         0.37815   0.00000     -0.000   0.000  -0.000
   28  3 3py        0.15684   0.00000     -0.000  -0.000  -0.000
   28  4 3pz        0.39898   0.00000      0.000  -0.000  -0.000
   28  5 3px        0.16941   0.00000      0.000  -0.000  -0.000
   28  6 3py        0.37057   0.00000      0.000  -0.000  -0.000
   28  7 3pz        0.20492   0.00000      0.000  -0.000  -0.000
   28  8 3px        0.38435   0.00000      0.000  -0.000  -0.000
   28  9 3Pdxy      0.14385   0.00000      0.000  -0.000  -0.000
   28 10 3Pdyz      0.12340   0.00000     -0.000   0.000  -0.000
   28 11 3Pdz2      0.01542   0.00000      0.000   0.000  -0.000
   28 12 3Pdxz      0.15679   0.00000      0.000  -0.000  -0.000
   28 13 3Pdx2-y2   0.35140   0.00000     -0.000  -0.000  -0.000
   28     Total     3.28697   0.00000      0.000  -0.000  -0.000

----------------------------------------------------------------
Total              85.07210   0.00000     -0.000  -0.000  -0.000


Species: O                   

Atom      Orb        Charge      Spin       Svec
----------------------------------------------------------------
   25  1 2s         1.74296   0.00000     -0.000   0.000   0.000
   25  2 2s         0.06642   0.00000      0.000  -0.000   0.000
   25  3 2py        1.46846   0.00000      0.000   0.000   0.000
   25  4 2pz        1.51535   0.00000      0.000   0.000   0.000
   25  5 2px        1.59365   0.00000     -0.000   0.000   0.000
   25  6 2py        0.03277   0.00000      0.000  -0.000   0.000
   25  7 2pz       -0.00146   0.00000      0.000  -0.000   0.000
   25  8 2px        0.02354   0.00000      0.000  -0.000   0.000
   25  9 3Pdxy      0.00710   0.00000     -0.000  -0.000  -0.000
   25 10 3Pdyz      0.00607   0.00000     -0.000  -0.000  -0.000
   25 11 3Pdz2      0.00128   0.00000     -0.000  -0.000  -0.000
   25 12 3Pdxz      0.00435   0.00000     -0.000  -0.000  -0.000
   25 13 3Pdx2-y2   0.00724   0.00000     -0.000   0.000  -0.000
   25     Total     6.46773   0.00000     -0.000   0.000   0.000

   29  1 2s         1.73572   0.00000     -0.000   0.000   0.000
   29  2 2s         0.07321   0.00000      0.000  -0.000   0.000
   29  3 2py        1.48354   0.00000      0.000   0.000   0.000
   29  4 2pz        1.52923   0.00000      0.000   0.000   0.000
   29  5 2px        1.52573   0.00000      0.000   0.000   0.000
   29  6 2py        0.04214   0.00000     -0.000  -0.000   0.000
   29  7 2pz        0.00510   0.00000     -0.000  -0.000   0.000
   29  8 2px        0.03704   0.00000      0.000  -0.000   0.000
   29  9 3Pdxy      0.00813   0.00000     -0.000  -0.000  -0.000
   29 10 3Pdyz      0.00484   0.00000     -0.000   0.000  -0.000
   29 11 3Pdz2      0.00136   0.00000     -0.000  -0.000  -0.000
   29 12 3Pdxz      0.00625   0.00000      0.000  -0.000  -0.000
   29 13 3Pdx2-y2   0.00788   0.00000      0.000  -0.000  -0.000
   29     Total     6.46016   0.00000      0.000   0.000   0.000

----------------------------------------------------------------
Total              98.00000   0.00000      0.000  -0.000  -0.000


siesta: Eigenvalues (eV):
ik =     1
  -22.9461  -22.9461  -22.5766  -22.5765  -21.9904  -21.9904  -21.2459  -21.2459  -21.0255  -21.0255
  -20.6871  -20.6871  -19.4314  -19.4314  -19.2469  -19.2469  -18.6444  -18.6444  -15.3283  -15.3283
  -14.3887  -14.3887  -13.6807  -13.6807  -13.6215  -13.6215  -13.3117  -13.3117  -12.9170  -12.9170
  -12.4902  -12.4902  -12.0370  -12.0370  -11.9576  -11.9576  -11.5034  -11.5034  -11.4858  -11.4858
  -10.9063  -10.9063  -10.7707  -10.7707  -10.2041  -10.2041   -9.8526   -9.8526   -9.5867   -9.5867
   -9.3576   -9.3576   -9.1863   -9.1863   -9.1270   -9.1270   -8.8401   -8.8401   -8.7397   -8.7397
   -8.4184   -8.4184   -8.1620   -8.1620   -8.1481   -8.1481   -8.1354   -8.1354   -7.9824   -7.9824
   -7.9317   -7.9317   -7.3444   -7.3444   -7.3397   -7.3397   -7.3341   -7.3341   -6.8417   -6.8417
   -6.7422   -6.7422   -6.6648   -6.6648   -6.4143   -6.4143   -6.3813   -6.3813   -6.1485   -6.1485
   -5.9628   -5.9628   -5.7486   -5.7486   -5.5704   -5.5704   -4.2327   -4.2327   -3.7425   -3.7425
   -2.8648   -2.8648   -2.4935   -2.4935   -2.2272   -2.2272   -2.1969   -2.1969   -2.0681   -2.0681
   -1.9698   -1.9698   -1.6611   -1.6611   -1.6072   -1.6072   -1.5823   -1.5823   -1.3545   -1.3545
   -1.0983   -1.0983   -0.6188   -0.6188   -0.4068   -0.4068   -0.2466   -0.2466   -0.2148   -0.2148
   -0.1717   -0.1717   -0.0816   -0.0816    0.2387    0.2387    0.3865    0.3865    0.5694    0.5694
    0.6243    0.6243    0.7233    0.7233    1.0499    1.0499    1.2234    1.2234    1.3092    1.3092
    1.3573    1.3573    1.5999    1.5999    1.8568    1.8568    2.0433    2.0433    2.2376    2.2376
    2.5099    2.5099    2.6239    2.6239    2.6614    2.6614    2.8662    2.8662    2.9642    2.9642
    3.0400    3.0400    3.1037    3.1037    3.1233    3.1233    3.4301    3.4301    3.5908    3.5908
    3.8108    3.8108    3.9151    3.9151    4.2299    4.2299    4.3266    4.3266    4.3705    4.3705
    4.4367    4.4367    4.5913    4.5913    4.7259    4.7259    4.9738    4.9738    5.0092    5.0092
    5.1208    5.1208    5.3533    5.3533    5.5320    5.5320    5.5694    5.5694    5.8762    5.8762
    5.8970    5.8970    6.0457    6.0457    6.1325    6.1325    6.3961    6.3961    6.5046    6.5046
    6.5632    6.5632    6.7325    6.7325    6.8036    6.8036    6.9961    6.9961    7.2601    7.2601
    7.2802    7.2802    7.5712    7.5712    7.7014    7.7014    7.8040    7.8040    7.8975    7.8975
    8.1185    8.1185    8.3330    8.3330    8.3664    8.3664    8.4864    8.4864    8.5128    8.5128
    8.5426    8.5426    9.0115    9.0116    9.0186    9.0186    9.3924    9.3924    9.6724    9.6724
    9.6858    9.6858    9.8897    9.8897    9.9099    9.9099    9.9881    9.9881   10.0076   10.0076
   10.0559   10.0559   10.5451   10.5451   10.6820   10.6820   11.0045   11.0045   11.1281   11.1281
   11.3631   11.3631   11.5206   11.5206   11.5529   11.5529   11.8072   11.8072   11.8374   11.8374
   12.0834   12.0834   12.2898   12.2898   12.5449   12.5449   12.6663   12.6663   12.7075   12.7075
   12.9025   12.9025   13.1882   13.1882   13.3378   13.3378   13.3884   13.3884   13.5257   13.5257
   13.7517   13.7517   14.0278   14.0278   14.4128   14.4128   14.5656   14.5656   14.8463   14.8463
   14.8989   14.8989   15.3963   15.3963   15.5653   15.5653   16.0473   16.0473   16.3230   16.3230
   16.4979   16.4979   16.8660   16.8660   16.9219   16.9219   17.1617   17.1617   17.4614   17.4614
   18.0035   18.0035   18.0665   18.0665   18.4051   18.4051   18.6499   18.6499   18.8300   18.8300
   18.8615   18.8615   19.7772   19.7772   19.9713   19.9713   20.2436   20.2436   20.4177   20.4177
   20.9198   20.9198   21.1454   21.1454   21.3219   21.3219   22.1063   22.1063   22.3134   22.3134
   22.5607   22.5607   22.9043   22.9043   23.0572   23.0572   23.0996   23.0996   23.1242   23.1242
   24.5167   24.5167   24.7900   24.7900   25.1398   25.1398   25.6868   25.6868   25.9131   25.9131
   26.1774   26.1774   26.6452   26.6452   27.0109   27.0109   28.0044   28.0044   28.1570   28.1570
   28.4652   28.4652   28.6534   28.6534   29.6759   29.6759   30.4133   30.4133   30.8158   30.8158
   30.8311   30.8311   31.0586   31.0586   31.3573   31.3573   31.4626   31.4626   31.9094   31.9094
   32.0621   32.0621   32.3348   32.3348   32.8462   32.8462   33.4947   33.4947   33.9585   33.9585
   34.2730   34.2730   34.3482   34.3482   34.8935   34.8935   35.0502   35.0502   35.5033   35.5033
   36.0645   36.0645   36.3858   36.3858   37.2374   37.2374   37.3082   37.3082   37.7209   37.7209
   37.9013   37.9013   38.6160   38.6160   38.9355   38.9355   38.9591   38.9591   39.0720   39.0720
   39.9684   39.9684   40.6199   40.6199   40.9401   40.9401   41.3410   41.3410   41.5791   41.5791
   42.1497   42.1497   42.2742   42.2742   42.9726   42.9726   43.2450   43.2450   43.6591   43.6591
   44.3412   44.3412   44.7080   44.7080   44.8352   44.8352   45.3135   45.3135   45.4845   45.4845
   45.9394   45.9394   46.1270   46.1270   46.6216   46.6216   46.6411   46.6411   47.2815   47.2815
   47.8845   47.8845   48.0988   48.0988   48.8836   48.8836   49.1529   49.1529   49.5119   49.5119
   50.1442   50.1442   50.3574   50.3574   50.4799   50.4799   50.7078   50.7078   51.5207   51.5207
   52.2721   52.2721   52.2891   52.2891   54.0736   54.0736   54.7167   54.7167   54.7631   54.7631
   55.3899   55.3899   56.0450   56.0450   56.3134   56.3134   56.6777   56.6777   56.9916   56.9916
   58.1953   58.1953   58.4522   58.4522   58.9691   58.9691   59.8601   59.8601   59.9453   59.9453
   60.7641   60.7641   61.8850   61.8850   61.9384   61.9384   62.4247   62.4247   63.2765   63.2765
   65.8015   65.8015   66.3721   66.3721   67.3015   67.3015   67.6341   67.6341   68.3313   68.3313
   69.2587   69.2587   71.4805   71.4805   73.9684   73.9684   80.7720   80.7720   92.2237   92.2237
   92.6696   92.6696   93.1460   93.1460   95.8055   95.8055   98.3237   98.3237  100.5089  100.5089
  101.5622  101.5622  103.1133  103.1133  114.0131  114.0131  120.8481  120.8481  123.2929  123.2929
  136.3466  136.3466  140.7642  140.7642
siesta: Fermi energy =      -3.987597 eV

siesta: Program's energy decomposition (eV):
siesta: Ebs     =     -1117.181421
siesta: Eions   =      3553.971015
siesta: Ena     =       377.799723
siesta: Ekin    =      2751.241824
siesta: Enl     =     -2532.193853
siesta: Eso     =        -0.004699
siesta: Edftu   =         0.000000
siesta: DEna    =        37.201303
siesta: DUscf   =        14.078101
siesta: DUext   =         0.000000
siesta: Exc     =     -1093.032552
siesta: eta*DQ  =         0.000000
siesta: Emadel  =         0.000000
siesta: Emeta   =         0.000000
siesta: Emolmec =         0.000000
siesta: Ekinion =         0.000000
siesta: Eharris =     -3998.881169
siesta: Etot    =     -3998.881169
siesta: FreeEng =     -3998.881252

siesta: Final energy (eV):
siesta:  Band Struct. =   -1117.181421
siesta:       Kinetic =    2751.241824
siesta:       Hartree =    7389.901297
siesta:       Edftu   =       0.000000
siesta:       Eso     =      -0.004699
siesta:    Ext. field =       0.000000
siesta:   Exch.-corr. =   -1093.032552
siesta:  Ion-electron =  -17229.653675
siesta:       Ion-ion =    4182.666636
siesta:       Ekinion =       0.000000
siesta:         Total =   -3998.881169
siesta:         Fermi =      -3.987597

siesta: Atomic forces (eV/Ang):
siesta:      1   -0.032358    0.055921    0.000002
siesta:      2   -0.007072   -0.048663   -0.000003
siesta:      3   -0.000261    0.043471    0.000004
siesta:      4   -0.051564   -0.040691    0.000001
siesta:      5    0.021572   -0.039429   -0.000003
siesta:      6    0.042305    0.005766    0.000002
siesta:      7   -0.179183    0.133129    0.000016
siesta:      8    0.098836   -0.085576   -0.000067
siesta:      9    0.044075    0.041114    0.000111
siesta:     10    0.104453    0.086606    0.000012
siesta:     11   -0.020840    0.026381   -0.000020
siesta:     12    0.117245    0.086095   -0.000002
siesta:     13   -0.120474   -0.146698   -0.000002
siesta:     14   -0.025759   -0.060486    0.000002
siesta:     15   -0.000882    0.063373   -0.000001
siesta:     16    0.019392    0.083003    0.008085
siesta:     17    0.006402   -0.055823   -0.039845
siesta:     18   -0.141681    0.082030    0.008302
siesta:     19   -0.013091    0.026366   -0.041175
siesta:     20    0.042689   -0.048706    0.026279
siesta:     21   -0.188767    0.250486    0.052530
siesta:     22   -0.089520   -0.026040    0.023585
siesta:     23    0.067877    0.007008   -0.050897
siesta:     24    0.118511   -0.111456   -0.026582
siesta:     25   -3.389796    3.829642    0.003000
siesta:     26   -0.075975    0.169326    0.006620
siesta:     27    0.111864   -0.198779    0.002809
siesta:     28   -0.042510   -0.131693   -0.000871
siesta:     29    0.742787   -2.222428   -0.001095
siesta:     30    0.046449    0.184253    0.008259
siesta: ----------------------------------------
siesta:    Tot   -2.795277    1.957502   -0.020941

siesta: Stress tensor (static) (eV/Ang**3):
siesta:    -0.001113    0.000179    0.000031
siesta:     0.000179   -0.000111   -0.000028
siesta:     0.000031   -0.000028   -0.000136

siesta: Cell volume =       4300.657667 Ang**3

siesta: Pressure (static):
siesta:                Solid            Molecule  Units
siesta:           0.00000493         -0.00000741  Ry/Bohr**3
siesta:           0.00045303         -0.00068046  eV/Ang**3
siesta:           0.72584319         -1.09022100  kBar
(Free)E+ p_basis*V_orbitals  =       -3977.753167
(Free)Eharris+ p_basis*V_orbitals  =       -3977.753167
     spin moment: S , {S} =    0.00000   0.00000  -0.00000  -0.00000

siesta: Electric dipole (a.u.)  =   -0.283495    2.649282   -0.012999
siesta: Electric dipole (Debye) =   -0.720572    6.733808   -0.033041

cite: Please see "AT.bib" for an exhaustive BiBTeX file.
cite: Please clearly indicate Siesta version in published work: v4.1.5-1-g384057250
cite: This calculation has made use of the following articles
cite: which are encouraged to be cited in a published work.
        Primary SIESTA paper
          DOI: www.doi.org/10.1088/0953-8984/14/11/302
        Spin-orbit coupling (on-site approximation)
          DOI: www.doi.org/10.1088/0953-8984/19/19/489001


WARNING: alloc-realloc-dealloc name mismatch
         Name: atomlist isa
         Size:              -120. Bytes
         Node:     0
         Subsequent mismatches will not be reported
>> End of run:  22-MAY-2023  10:14:12
Job completed
