Executable      : siesta-5
Version         : 5.1-MaX-41-g6ad11e234
Architecture    : x86_64
Compiler version: GNU-12.2.0
Compiler flags  : -DSIESTA__METIS -fallow-argument-mismatch -O3 -march=native
Parallelisations: MPI, OpenMP
* OpenMP version: 201511
NetCDF support
NetCDF-4 support
NetCDF-4 MPI-IO support
METIS ordering support
Lua support
Native ELPA support
DFT-D3 support
Wannier90 wrapper support

Runtime information:
* Directory : /home/cdelv/Si_DNA2/C/Base_Pairs/GC_VDW_OP
* Running on 32 nodes in parallel.
* Running 1 OpenMP threads.
* Running 32 processes.
* OpenMP NOT bound (please bind threads!)
* OpenMP runtime schedule DYNAMIC, chunks 1
** Changing chunk size:
** OpenMP runtime schedule DYNAMIC, chunks 32
** OpenMP (trying to FORCE nesting)
* OpenMP allows 255 nested levels.
>> Start of run:   3-SEP-2024  12:32:22

                           *********************** 
                           *  WELCOME TO SIESTA  * 
                           *********************** 

 NOTE: Siesta V5 introduces some new defaults for basis-set generation
 NOTE: which might lead to slightly different numerical results.
 NOTE: Please see the manual for full details and compatibility measures.


reinit: Reading from standard input
reinit: Dumping input in INPUT_TMP.31426
************************** Dump of input data file ****************************
# mpirun -np 8 siesta-5 < GC.fdf > GC.out
SystemLabel      GC
NumberOfAtoms    29
NumberOfSpecies  4
%block ChemicalSpeciesLabel
    1    1  H   ../../../Pseudos/VW/H/H.psf
    2    7  N   ../../../Pseudos/VW/N/N.psf
    3    6  C   ../../../Pseudos/VW/C/C.psf
    4    8  O   ../../../Pseudos/VW/O/O.psf
%endblock ChemicalSpeciesLabel
############################################
# This overrides Defaults.fdf configuration
############################################
XC.Functional               VDW
XC.Authors                  DRSLL
MD.Steps                    1000
%block Geometry.Constraints
    atom [6]
%endblock
AtomicCoordinatesFormat NotScaledCartesianAng
%block AtomicCoordinatesAndAtomicSpecies
    6.50885786   -4.92438854    1.99306368   1       1  H
    5.80119392   -4.26269794    1.65446614   2       2  N
    4.41228910   -4.62389972    1.64566041   3       3  C
    4.23260157   -5.62694863    1.99647891   1       4  H
    3.56108798   -3.63309879    1.19570387   2       5  N
    4.53000000   -2.55300000    0.90000000   3       6  C
    4.24135140   -1.23722625    0.42149528   3       7  C
    3.12891850   -0.71512705    0.15553114   4       8  O
    5.46577338   -0.43788816    0.24638518   2       9  N
    5.33913851    0.55427514   -0.12274931   1      10  H
    6.78957712   -0.89596172    0.52419879   3      11  C
    7.85657032    0.01886388    0.29421612   2      12  N
    7.67040815    0.97169625   -0.21095986   1      13  H
    8.76910666   -0.46684673    0.53347322   1      14  H
    7.08872425   -2.17612130    1.02254733   2      15  N
    5.87554508   -2.90668260    1.16984383   3      16  C
    6.78208240    4.90416825   -1.95040363   1      17  H
    5.88752324    4.40270534   -1.69466494   2      18  N
    4.52151622    4.87848206   -1.74654538   3      19  C
    4.19922442    5.87882635   -2.09835722   1      20  H
    3.50597226    4.05770580   -1.34302844   3      21  C
    2.47256346    4.41167819   -1.38773584   1      22  H
    3.76875493    2.72866696   -0.88058541   3      23  C
    2.72079036    1.87230997   -0.50110630   2      24  N
    2.98090668    0.80745066   -0.22279347   1      25  H
    1.75663959    2.29841988   -0.58363973   1      26  H
    5.08060047    2.20526210   -0.77514498   2      27  N
    6.18259307    3.03632083   -1.15899243   3      28  C
    7.36903453    2.67335139   -1.06894576   4      29  O
%endblock AtomicCoordinatesAndAtomicSpecies
#############
# Unit Cell
#############
LatticeConstant 1.0 Ang
%block LatticeVectors
    14.278344    0.000000    0.000000
    0.000000   19.152444    0.000000
    0.000000    0.000000   11.202686
%endblock LatticeVectors
%include ../../../Defaults.fdf
************************** End of input data file *****************************

reinit: -----------------------------------------------------------------------
reinit: System Name: 
reinit: -----------------------------------------------------------------------
reinit: System Label: GC
reinit: -----------------------------------------------------------------------

NOTE on units for spin output: 
{S} is the spin magnetic moment, in units of the Bohr magneton,
assuming a g-factor for the electron spin of exactly 2.
The spin magnetic moment is then numerically equal to the charge inbalance,
in units of electrons, between the spin-up and -down channels.


initatom: Reading input for the pseudopotentials and atomic orbitals ----------
Species number:   1 Atomic number:    1 Label: H
Species number:   2 Atomic number:    7 Label: N
Species number:   3 Atomic number:    6 Label: C
Species number:   4 Atomic number:    8 Label: O

Ground state valence configuration (from tables):   1s01  2p00  3d00  4f00
Ground state valence configuration (from tables):   2s02  2p03  3d00  4f00
Ground state valence configuration (from tables):   2s02  2p02  3d00  4f00
Ground state valence configuration (from tables):   2s02  2p04  3d00  4f00

---- Processing specs for species: H
Reading pseudopotential information in formatted form from:
  ../../../Pseudos/VW/H/H.psf

---- Processing specs for species: N
Reading pseudopotential information in formatted form from:
  ../../../Pseudos/VW/N/N.psf

---- Processing specs for species: C
Reading pseudopotential information in formatted form from:
  ../../../Pseudos/VW/C/C.psf

---- Processing specs for species: O
Reading pseudopotential information in formatted form from:
  ../../../Pseudos/VW/O/O.psf

---- Pseudopotential check for H 

Pseudopotential generated from a fully relativistic atomic calculation
There are spin-orbit semi-local pseudopotentials available

Pseudized shells:
1s( 1.00) rc: 0.04
Valence configuration for ps generation: (assumed as above)

---- Pseudopotential check for N 

Pseudopotential generated from a fully relativistic atomic calculation
There are spin-orbit semi-local pseudopotentials available

Pseudized shells:
2s( 2.00) rc: 1.00
2p( 3.00) rc: 1.04
3d( 0.00) rc: 2.87
Valence configuration for ps generation: (assumed as above)

---- Pseudopotential check for C 

Pseudopotential generated from a fully relativistic atomic calculation
There are spin-orbit semi-local pseudopotentials available

Pseudized shells:
2s( 2.00) rc: 1.09
2p( 2.00) rc: 0.72
3d( 0.00) rc: 1.84
Valence configuration for ps generation: (assumed as above)

---- Pseudopotential check for O 

Pseudopotential generated from a fully relativistic atomic calculation
There are spin-orbit semi-local pseudopotentials available

Pseudized shells:
2s( 2.00) rc: 0.89
2p( 4.00) rc: 1.03
3d( 0.00) rc: 1.64
Valence configuration for ps generation: (assumed as above)
For H, standard SIESTA heuristics set lmxkb to 2
 (one more than the basis l, including polarization orbitals).
Use PS.lmax or PS.KBprojectors blocks to override.
For N, standard SIESTA heuristics set lmxkb to 3
 (one more than the basis l, including polarization orbitals).
Use PS.lmax or PS.KBprojectors blocks to override.
For C, standard SIESTA heuristics set lmxkb to 3
 (one more than the basis l, including polarization orbitals).
Use PS.lmax or PS.KBprojectors blocks to override.
For O, standard SIESTA heuristics set lmxkb to 3
 (one more than the basis l, including polarization orbitals).
Use PS.lmax or PS.KBprojectors blocks to override.
../../../Pseudos/VW/H/H.psf pseudopotential only contains V_ls up to l=0 -- lmxkb reset.
../../../Pseudos/VW/N/N.psf pseudopotential only contains V_ls up to l=2 -- lmxkb reset.
../../../Pseudos/VW/C/C.psf pseudopotential only contains V_ls up to l=2 -- lmxkb reset.
../../../Pseudos/VW/O/O.psf pseudopotential only contains V_ls up to l=2 -- lmxkb reset.

<basis_specs>
===============================================================================
H                    Z=   1    Mass=  1.0080        Charge= 0.17977+309
Lmxo=1 Lmxkb= 0    BasisType=split      Semic=F
L=0  Nsemic=0  Cnfigmx=1
          i=1  nzeta=2  polorb=1  (1s)  (to be polarized perturbatively)
            splnorm:   0.62000    
               vcte:    40.000    
               rinn:  -0.90000    
               qcoe:    0.0000    
               qyuk:    0.0000    
               qwid:   0.10000E-01
                rcs:    0.0000      0.0000    
            lambdas:    1.0000      1.0000    
L=1  Nsemic=0  Cnfigmx=2
          i=1  nzeta=0  polorb=0  (2p)  (perturbative polarization orbital) (from 1s)
===============================================================================
</basis_specs>

Filter: Requested cutoff:  290.000000 Ry
Using PAO.SplitTailNorm
atom: Called for H                     (Z =   1)
NOTE: H pseudopotential has channels up to l= 0
NOTE: PAOs with higher l will be generated with V_local
Maximum radius (at nrval) set to   50.00000 8518

read_vps: Pseudopotential generation method:
read_vps: ATM4.2.7  Troullier-Martins                       
Valence charge in pseudo generation:    1.00000

xc_check: Exchange-correlation functional:
xc_check: VDW Dion-Rydberg-Schroeder-Langreth-Lundqvist
V l=0 = -2*Zval/r beyond r=  0.0399
All V_l potentials equal beyond r=  0.0399
This should be close to max(r_c) in ps generation
All pots = -2*Zval/r beyond r=  0.0399
Using small-core scheme (local charge) for Vlocal

VLOCAL_FROM_CHLOCAL: 99.0% of the norm of Vloc inside  27227.515 Ry
VLOCAL_FROM_CHLOCAL: 99.9% of the norm of Vloc inside  62052.012 Ry
atom: Maximum radius for chlocal:    0.04942
atom: Maximum radius for r*vlocal+2*Zval:    0.04228

KBgen: Kleinman-Bylander projectors: 
GHOST: No ghost state for L =  0
KBproj: WARNING: Rc(0)=      0.3608
KBproj: WARNING: Cut off radius for the KB projector too small
   l= 0   rc=  0.360771   el= -0.503243   Ekb=-43.540856   kbcos= -0.003669

KBgen: Total number of Kleinman-Bylander projectors:   1
atom: -------------------------------------------------------------------------

atom: SANKEY-TYPE ORBITALS:
atom: Selected multiple-zeta basis: split     

SPLIT: Orbitals with angular momentum L= 0

SPLIT: Basis orbitals for state 1s

SPLIT: PAO cut-off radius determined from an
SPLIT: energy shift=  0.005000 Ry
Split based on tail norm

   izeta = 1
                 lambda =    1.000000
                     rc =    5.772464
                 energy =   -0.497573
                kinetic =    0.983085
    potential(screened) =   -1.480658
       potential(ionic) =   -1.978266
PAO Filter: Cutoff used:  142.10 Ry
PAO Filter: diagnostic kin energy tol:    0.003000 Ry
PAO Filter: Nominal cutoff (before filtering):  117.93 Ry
Filter:    Number of eigenfunctions  of the
           filtering kernel (total, used)= 55 20

   izeta = 2
                 rmatch =    1.631860
              splitnorm =    0.620000
                 energy =    1.774382
                kinetic =    6.071357
    potential(screened) =   -4.296974
       potential(ionic) =   -4.727849
PAO Filter: Cutoff used:  142.10 Ry
PAO Filter: diagnostic kin energy tol:    0.003000 Ry
PAO Filter: Nominal cutoff (before filtering):  901.83 Ry
Filter:    Number of eigenfunctions  of the
           filtering kernel (total, used)= 23  5
*Note: V_local used for l= 1

** Using vlocal for PAOs with L= 1

POLgen: Perturbative polarization orbital with L=  1

POLgen: Polarization orbital for state 1s
*Note: V_local used for lpol= 1

** Using vlocal for PAOs with L= 1
Split based on tail norm

   izeta = 1
                     rc =    5.772464
                 energy =    0.609532
                kinetic =    1.250628
    potential(screened) =   -0.641096
       potential(ionic) =   -1.109550
PAO Filter: diagnostic kin energy tol:    0.003000 Ry
PAO Filter: Nominal cutoff (before filtering):   54.19 Ry
Filter:    Number of eigenfunctions  of the
           filtering kernel (total, used)= 55 20
atom: Total number of Sankey-type orbitals:  5

atm_pop: Valence configuration (for local Pseudopot. screening):
 1s( 1.00)                                                            
 2p( 0.00)                                                            
Vna: chval, zval:    1.00000   1.00000

Vna:  Cut-off radius for the neutral-atom potential:   5.772464
VNA Filter: diagnostic kinetic energy tol:    0.003000 Ry
VNA Filter: Nominal cutoff (before filtering):31865.46 Ry
VNA Filter: Cutoff used:   290.00 Ry
Filter:    Number of eigenfunctions  of the
           filtering kernel (total, used)= 74 30

atom: _________________________________________________________________________

<basis_specs>
===============================================================================
N                    Z=   7    Mass=  14.007        Charge= 0.17977+309
Lmxo=2 Lmxkb= 2    BasisType=split      Semic=F
L=0  Nsemic=0  Cnfigmx=2
          i=1  nzeta=2  polorb=0  (2s)
            splnorm:   0.28000    
               vcte:    40.000    
               rinn:  -0.90000    
               qcoe:    0.0000    
               qyuk:    0.0000    
               qwid:   0.10000E-01
                rcs:    0.0000      0.0000    
            lambdas:    1.0000      1.0000    
L=1  Nsemic=0  Cnfigmx=2
          i=1  nzeta=2  polorb=1  (2p)  (to be polarized perturbatively)
            splnorm:   0.28000    
               vcte:    40.000    
               rinn:  -0.90000    
               qcoe:    0.0000    
               qyuk:    0.0000    
               qwid:   0.10000E-01
                rcs:    0.0000      0.0000    
            lambdas:    1.0000      1.0000    
L=2  Nsemic=0  Cnfigmx=3
          i=1  nzeta=0  polorb=0  (3d)  (perturbative polarization orbital) (from 2p)
-------------------------------------------------------------------------------
L=0  Nkbl=1  erefs: 0.17977+309
L=1  Nkbl=1  erefs: 0.17977+309
L=2  Nkbl=1  erefs: 0.17977+309
===============================================================================
</basis_specs>

Filter: Requested cutoff:  290.000000 Ry
Using PAO.SplitTailNorm
atom: Called for N                     (Z =   7)
Maximum radius (at nrval) set to   50.00000 8518

read_vps: Pseudopotential generation method:
read_vps: ATM4.2.7  Troullier-Martins                       
Valence charge in pseudo generation:    5.00000

xc_check: Exchange-correlation functional:
xc_check: VDW Dion-Rydberg-Schroeder-Langreth-Lundqvist
V l=0 = -2*Zval/r beyond r=  1.6351
V l=1 = -2*Zval/r beyond r=  1.6351
V l=2 = -2*Zval/r beyond r=  3.0728
All V_l potentials equal beyond r=  2.8817
This should be close to max(r_c) in ps generation
All pots = -2*Zval/r beyond r=  3.0728
Using small-core scheme (local charge) for Vlocal

VLOCAL_FROM_CHLOCAL: 99.0% of the norm of Vloc inside      5.227 Ry
VLOCAL_FROM_CHLOCAL: 99.9% of the norm of Vloc inside     11.913 Ry
atom: Maximum radius for chlocal:    3.41750
atom: Maximum radius for r*vlocal+2*Zval:    3.16984

KBgen: Kleinman-Bylander projectors: 
GHOST: No ghost state for L =  0
   l= 0   rc=  2.978674   el= -1.380579   Ekb= -3.918497   kbcos= -0.639583
GHOST: No ghost state for L =  1
j- l= 1   rc=  2.945979   el= -0.537631   Ekb=-10.726195   kbcos= -0.541225
GHOST: No ghost state for L =  1
j+ l= 1   rc=  2.945979   el= -0.536259   Ekb=-10.704119   kbcos= -0.540979
GHOST: No ghost state for L =  2
j- l= 2   rc=  3.869979   el=  0.013287   Ekb= -0.791795   kbcos= -0.046021
GHOST: No ghost state for L =  2
j+ l= 2   rc=  3.869979   el=  0.013287   Ekb= -0.790042   kbcos= -0.046052

KBgen: Total number of Kleinman-Bylander projectors:  17
atom: -------------------------------------------------------------------------

atom: SANKEY-TYPE ORBITALS:
atom: Selected multiple-zeta basis: split     

SPLIT: Orbitals with angular momentum L= 0

SPLIT: Basis orbitals for state 2s

SPLIT: PAO cut-off radius determined from an
SPLIT: energy shift=  0.005000 Ry
Split based on tail norm

   izeta = 1
                 lambda =    1.000000
                     rc =    4.265195
                 energy =   -1.374896
                kinetic =    1.265116
    potential(screened) =   -2.640012
       potential(ionic) =   -8.160676
PAO Filter: Cutoff used:  142.10 Ry
PAO Filter: diagnostic kin energy tol:    0.003000 Ry
PAO Filter: Nominal cutoff (before filtering):   71.53 Ry
Filter:    Number of eigenfunctions  of the
           filtering kernel (total, used)= 43 15

   izeta = 2
                 rmatch =    2.173283
              splitnorm =    0.280000
                 energy =   -0.503777
                kinetic =    3.173825
    potential(screened) =   -3.677602
       potential(ionic) =   -9.854287
PAO Filter: Cutoff used:  142.10 Ry
PAO Filter: diagnostic kin energy tol:    0.003000 Ry
PAO Filter: Nominal cutoff (before filtering):  129.00 Ry
Filter:    Number of eigenfunctions  of the
           filtering kernel (total, used)= 27  7

SPLIT: Orbitals with angular momentum L= 1

SPLIT: Basis orbitals for state 2p

SPLIT: PAO cut-off radius determined from an
SPLIT: energy shift=  0.005000 Ry
Split based on tail norm

   izeta = 1
                 lambda =    1.000000
                     rc =    5.317222
                 energy =   -0.531068
                kinetic =    3.641750
    potential(screened) =   -4.172818
       potential(ionic) =   -9.515546
PAO Filter: Cutoff used:  142.10 Ry
PAO Filter: diagnostic kin energy tol:    0.003000 Ry
PAO Filter: Nominal cutoff (before filtering):   83.42 Ry
Filter:    Number of eigenfunctions  of the
           filtering kernel (total, used)= 51 18

   izeta = 2
                 rmatch =    2.624859
              splitnorm =    0.280000
                 energy =   -0.159696
                kinetic =    6.395910
    potential(screened) =   -6.555607
       potential(ionic) =  -12.720241
PAO Filter: Cutoff used:  142.10 Ry
PAO Filter: diagnostic kin energy tol:    0.003000 Ry
PAO Filter: Nominal cutoff (before filtering):   94.45 Ry
Filter:    Number of eigenfunctions  of the
           filtering kernel (total, used)= 30  8

POLgen: Perturbative polarization orbital with L=  2

POLgen: Polarization orbital for state 2p
Split based on tail norm

   izeta = 1
                     rc =    5.317222
                 energy =    1.517402
                kinetic =    2.627978
    potential(screened) =   -1.110576
       potential(ionic) =   -5.200503
PAO Filter: diagnostic kin energy tol:    0.003000 Ry
PAO Filter: Nominal cutoff (before filtering):   71.63 Ry
Filter:    Number of eigenfunctions  of the
           filtering kernel (total, used)= 51 17
atom: Total number of Sankey-type orbitals: 13

atm_pop: Valence configuration (for local Pseudopot. screening):
 2s( 2.00)                                                            
 2p( 3.00)                                                            
 3d( 0.00)                                                            
Vna: chval, zval:    5.00000   5.00000

Vna:  Cut-off radius for the neutral-atom potential:   5.317222
VNA Filter: diagnostic kinetic energy tol:    0.003000 Ry
VNA Filter: Nominal cutoff (before filtering):   72.95 Ry
VNA Filter: Cutoff used:   290.00 Ry
Filter:    Number of eigenfunctions  of the
           filtering kernel (total, used)= 69 27

atom: _________________________________________________________________________

<basis_specs>
===============================================================================
C                    Z=   6    Mass=  12.011        Charge= 0.17977+309
Lmxo=2 Lmxkb= 2    BasisType=split      Semic=F
L=0  Nsemic=0  Cnfigmx=2
          i=1  nzeta=2  polorb=0  (2s)
            splnorm:   0.28000    
               vcte:    40.000    
               rinn:  -0.90000    
               qcoe:    0.0000    
               qyuk:    0.0000    
               qwid:   0.10000E-01
                rcs:    0.0000      0.0000    
            lambdas:    1.0000      1.0000    
L=1  Nsemic=0  Cnfigmx=2
          i=1  nzeta=2  polorb=1  (2p)  (to be polarized perturbatively)
            splnorm:   0.28000    
               vcte:    40.000    
               rinn:  -0.90000    
               qcoe:    0.0000    
               qyuk:    0.0000    
               qwid:   0.10000E-01
                rcs:    0.0000      0.0000    
            lambdas:    1.0000      1.0000    
L=2  Nsemic=0  Cnfigmx=3
          i=1  nzeta=0  polorb=0  (3d)  (perturbative polarization orbital) (from 2p)
-------------------------------------------------------------------------------
L=0  Nkbl=1  erefs: 0.17977+309
L=1  Nkbl=1  erefs: 0.17977+309
L=2  Nkbl=1  erefs: 0.17977+309
===============================================================================
</basis_specs>

Filter: Requested cutoff:  290.000000 Ry
Using PAO.SplitTailNorm
atom: Called for C                     (Z =   6)
Maximum radius (at nrval) set to   50.00000 8518

read_vps: Pseudopotential generation method:
read_vps: ATM4.2.7  Troullier-Martins                       
Valence charge in pseudo generation:    4.00000

xc_check: Exchange-correlation functional:
xc_check: VDW Dion-Rydberg-Schroeder-Langreth-Lundqvist
V l=0 = -2*Zval/r beyond r=  1.9934
V l=1 = -2*Zval/r beyond r=  1.9934
V l=2 = -2*Zval/r beyond r=  2.0034
All V_l potentials equal beyond r=  1.8100
This should be close to max(r_c) in ps generation
All pots = -2*Zval/r beyond r=  2.0034
Using small-core scheme (local charge) for Vlocal

VLOCAL_FROM_CHLOCAL: 99.0% of the norm of Vloc inside     13.250 Ry
VLOCAL_FROM_CHLOCAL: 99.9% of the norm of Vloc inside     30.197 Ry
atom: Maximum radius for chlocal:    2.15589
atom: Maximum radius for r*vlocal+2*Zval:    1.98138

KBgen: Kleinman-Bylander projectors: 
GHOST: No ghost state for L =  0
   l= 0   rc=  2.121508   el= -1.023920   Ekb= 10.038813   kbcos=  0.152890
GHOST: No ghost state for L =  1
j- l= 1   rc=  2.096083   el= -0.402300   Ekb=-10.262579   kbcos= -0.289480
GHOST: No ghost state for L =  1
j+ l= 1   rc=  2.096083   el= -0.401748   Ekb=-10.222488   kbcos= -0.289553
GHOST: No ghost state for L =  2
j- l= 2   rc=  3.176203   el=  0.013239   Ekb= -0.822453   kbcos= -0.016490
GHOST: No ghost state for L =  2
j+ l= 2   rc=  3.176203   el=  0.013239   Ekb= -0.814183   kbcos= -0.016551

KBgen: Total number of Kleinman-Bylander projectors:  17
atom: -------------------------------------------------------------------------

atom: SANKEY-TYPE ORBITALS:
atom: Selected multiple-zeta basis: split     

SPLIT: Orbitals with angular momentum L= 0

SPLIT: Basis orbitals for state 2s

SPLIT: PAO cut-off radius determined from an
SPLIT: energy shift=  0.005000 Ry
Split based on tail norm

   izeta = 1
                 lambda =    1.000000
                     rc =    4.858714
                 energy =   -1.018167
                kinetic =    0.913396
    potential(screened) =   -1.931562
       potential(ionic) =   -5.489494
PAO Filter: Cutoff used:  142.10 Ry
PAO Filter: diagnostic kin energy tol:    0.003000 Ry
PAO Filter: Nominal cutoff (before filtering):   37.67 Ry
Filter:    Number of eigenfunctions  of the
           filtering kernel (total, used)= 48 17

   izeta = 2
                 rmatch =    2.559804
              splitnorm =    0.280000
                 energy =   -0.353711
                kinetic =    2.349616
    potential(screened) =   -2.703327
       potential(ionic) =   -6.655149
PAO Filter: Cutoff used:  142.10 Ry
PAO Filter: diagnostic kin energy tol:    0.003000 Ry
PAO Filter: Nominal cutoff (before filtering):   92.93 Ry
Filter:    Number of eigenfunctions  of the
           filtering kernel (total, used)= 30  8

SPLIT: Orbitals with angular momentum L= 1

SPLIT: Basis orbitals for state 2p

SPLIT: PAO cut-off radius determined from an
SPLIT: energy shift=  0.005000 Ry
Split based on tail norm

   izeta = 1
                 lambda =    1.000000
                     rc =    6.081107
                 energy =   -0.396227
                kinetic =    2.544259
    potential(screened) =   -2.940486
       potential(ionic) =   -6.367627
PAO Filter: Cutoff used:  142.10 Ry
PAO Filter: diagnostic kin energy tol:    0.003000 Ry
PAO Filter: Nominal cutoff (before filtering):  112.97 Ry
Filter:    Number of eigenfunctions  of the
           filtering kernel (total, used)= 57 21

   izeta = 2
                 rmatch =    3.125629
              splitnorm =    0.280000
                 energy =   -0.123054
                kinetic =    4.553527
    potential(screened) =   -4.676580
       potential(ionic) =   -8.623266
PAO Filter: Cutoff used:  142.10 Ry
PAO Filter: diagnostic kin energy tol:    0.003000 Ry
PAO Filter: Nominal cutoff (before filtering):  128.46 Ry
Filter:    Number of eigenfunctions  of the
           filtering kernel (total, used)= 34 10

POLgen: Perturbative polarization orbital with L=  2

POLgen: Polarization orbital for state 2p
Split based on tail norm

   izeta = 1
                     rc =    6.081107
                 energy =    1.044183
                kinetic =    2.125190
    potential(screened) =   -1.081007
       potential(ionic) =   -3.836752
PAO Filter: diagnostic kin energy tol:    0.003000 Ry
PAO Filter: Nominal cutoff (before filtering):   45.79 Ry
Filter:    Number of eigenfunctions  of the
           filtering kernel (total, used)= 57 20
atom: Total number of Sankey-type orbitals: 13

atm_pop: Valence configuration (for local Pseudopot. screening):
 2s( 2.00)                                                            
 2p( 2.00)                                                            
 3d( 0.00)                                                            
Vna: chval, zval:    4.00000   4.00000

Vna:  Cut-off radius for the neutral-atom potential:   6.081107
VNA Filter: diagnostic kinetic energy tol:    0.003000 Ry
VNA Filter: Nominal cutoff (before filtering):   16.67 Ry
VNA Filter: Cutoff used:   290.00 Ry
Filter:    Number of eigenfunctions  of the
           filtering kernel (total, used)= 77 31

atom: _________________________________________________________________________

<basis_specs>
===============================================================================
O                    Z=   8    Mass=  15.999        Charge= 0.17977+309
Lmxo=2 Lmxkb= 2    BasisType=split      Semic=F
L=0  Nsemic=0  Cnfigmx=2
          i=1  nzeta=2  polorb=0  (2s)
            splnorm:   0.28000    
               vcte:    40.000    
               rinn:  -0.90000    
               qcoe:    0.0000    
               qyuk:    0.0000    
               qwid:   0.10000E-01
                rcs:    0.0000      0.0000    
            lambdas:    1.0000      1.0000    
L=1  Nsemic=0  Cnfigmx=2
          i=1  nzeta=2  polorb=1  (2p)  (to be polarized perturbatively)
            splnorm:   0.28000    
               vcte:    40.000    
               rinn:  -0.90000    
               qcoe:    0.0000    
               qyuk:    0.0000    
               qwid:   0.10000E-01
                rcs:    0.0000      0.0000    
            lambdas:    1.0000      1.0000    
L=2  Nsemic=0  Cnfigmx=3
          i=1  nzeta=0  polorb=0  (3d)  (perturbative polarization orbital) (from 2p)
-------------------------------------------------------------------------------
L=0  Nkbl=1  erefs: 0.17977+309
L=1  Nkbl=1  erefs: 0.17977+309
L=2  Nkbl=1  erefs: 0.17977+309
===============================================================================
</basis_specs>

Filter: Requested cutoff:  290.000000 Ry
Using PAO.SplitTailNorm
atom: Called for O                     (Z =   8)
Maximum radius (at nrval) set to   50.00000 8518

read_vps: Pseudopotential generation method:
read_vps: ATM4.2.7  Troullier-Martins                       
Valence charge in pseudo generation:    6.00000

xc_check: Exchange-correlation functional:
xc_check: VDW Dion-Rydberg-Schroeder-Langreth-Lundqvist
V l=0 = -2*Zval/r beyond r=  1.3024
V l=1 = -2*Zval/r beyond r=  1.3024
V l=2 = -2*Zval/r beyond r=  1.7668
All V_l potentials equal beyond r=  1.6269
This should be close to max(r_c) in ps generation
All pots = -2*Zval/r beyond r=  1.7668
Using small-core scheme (local charge) for Vlocal

VLOCAL_FROM_CHLOCAL: 99.0% of the norm of Vloc inside     16.399 Ry
VLOCAL_FROM_CHLOCAL: 99.9% of the norm of Vloc inside     37.374 Ry
atom: Maximum radius for chlocal:    1.95370
atom: Maximum radius for r*vlocal+2*Zval:    1.79729

KBgen: Kleinman-Bylander projectors: 
GHOST: No ghost state for L =  0
   l= 0   rc=  1.770385   el= -1.777146   Ekb=-20.483406   kbcos= -0.111991
GHOST: No ghost state for L =  1
j- l= 1   rc=  1.745634   el= -0.683129   Ekb=-12.195034   kbcos= -0.452315
GHOST: No ghost state for L =  1
j+ l= 1   rc=  1.745634   el= -0.680470   Ekb=-12.162909   kbcos= -0.451770
GHOST: No ghost state for L =  2
j- l= 2   rc=  2.784994   el=  0.013305   Ekb= -1.481537   kbcos= -0.010110
GHOST: No ghost state for L =  2
j+ l= 2   rc=  2.784994   el=  0.013305   Ekb= -1.467492   kbcos= -0.010143

KBgen: Total number of Kleinman-Bylander projectors:  17
atom: -------------------------------------------------------------------------

atom: SANKEY-TYPE ORBITALS:
atom: Selected multiple-zeta basis: split     

SPLIT: Orbitals with angular momentum L= 0

SPLIT: Basis orbitals for state 2s

SPLIT: PAO cut-off radius determined from an
SPLIT: energy shift=  0.005000 Ry
Split based on tail norm

   izeta = 1
                 lambda =    1.000000
                     rc =    3.812214
                 energy =   -1.771504
                kinetic =    1.675963
    potential(screened) =   -3.447467
       potential(ionic) =  -11.343845
PAO Filter: Cutoff used:  142.10 Ry
PAO Filter: diagnostic kin energy tol:    0.003000 Ry
PAO Filter: Nominal cutoff (before filtering):  117.95 Ry
Filter:    Number of eigenfunctions  of the
           filtering kernel (total, used)= 40 13

   izeta = 2
                 rmatch =    1.891855
              splitnorm =    0.280000
                 energy =   -0.658411
                kinetic =    4.147017
    potential(screened) =   -4.805428
       potential(ionic) =  -13.682672
PAO Filter: Cutoff used:  142.10 Ry
PAO Filter: diagnostic kin energy tol:    0.003000 Ry
PAO Filter: Nominal cutoff (before filtering):  173.72 Ry
Filter:    Number of eigenfunctions  of the
           filtering kernel (total, used)= 25  6

SPLIT: Orbitals with angular momentum L= 1

SPLIT: Basis orbitals for state 2p

SPLIT: PAO cut-off radius determined from an
SPLIT: energy shift=  0.005000 Ry
Split based on tail norm

   izeta = 1
                 lambda =    1.000000
                     rc =    4.762307
                 energy =   -0.675736
                kinetic =    4.938110
    potential(screened) =   -5.613846
       potential(ionic) =  -13.284802
PAO Filter: Cutoff used:  142.10 Ry
PAO Filter: diagnostic kin energy tol:    0.003000 Ry
PAO Filter: Nominal cutoff (before filtering):   95.70 Ry
Filter:    Number of eigenfunctions  of the
           filtering kernel (total, used)= 47 16

   izeta = 2
                 rmatch =    2.271492
              splitnorm =    0.280000
                 energy =   -0.195975
                kinetic =    8.556899
    potential(screened) =   -8.752874
       potential(ionic) =  -17.616199
PAO Filter: Cutoff used:  142.10 Ry
PAO Filter: diagnostic kin energy tol:    0.003000 Ry
PAO Filter: Nominal cutoff (before filtering):  102.30 Ry
Filter:    Number of eigenfunctions  of the
           filtering kernel (total, used)= 28  7

POLgen: Perturbative polarization orbital with L=  2

POLgen: Polarization orbital for state 2p
Split based on tail norm

   izeta = 1
                     rc =    4.762307
                 energy =    2.062551
                kinetic =    3.839367
    potential(screened) =   -1.776815
       potential(ionic) =   -7.691384
PAO Filter: diagnostic kin energy tol:    0.003000 Ry
PAO Filter: Nominal cutoff (before filtering):   97.50 Ry
Filter:    Number of eigenfunctions  of the
           filtering kernel (total, used)= 47 15
atom: Total number of Sankey-type orbitals: 13

atm_pop: Valence configuration (for local Pseudopot. screening):
 2s( 2.00)                                                            
 2p( 4.00)                                                            
 3d( 0.00)                                                            
Vna: chval, zval:    6.00000   6.00000

Vna:  Cut-off radius for the neutral-atom potential:   4.762307
VNA Filter: diagnostic kinetic energy tol:    0.003000 Ry
VNA Filter: Nominal cutoff (before filtering):   68.40 Ry
VNA Filter: Cutoff used:   290.00 Ry
Filter:    Number of eigenfunctions  of the
           filtering kernel (total, used)= 63 24

atom: _________________________________________________________________________

prinput: Basis input 

PAO.BasisType split     

%block ChemicalSpeciesLabel
    1    1 H                       # Species index, atomic number, species label
    2    7 N                       # Species index, atomic number, species label
    3    6 C                       # Species index, atomic number, species label
    4    8 O                       # Species index, atomic number, species label
%endblock ChemicalSpeciesLabel

%block PAO.Basis                 # Define Basis set
# WARNING: This information might be incomplete!
H                     1                    # Species label, number of l-shells
 n=1   0   2 P   1                   # n, l, Nzeta, Polarization, NzetaPol
   5.772      1.632   
   1.000      1.000   
N                     2                    # Species label, number of l-shells
 n=2   0   2                         # n, l, Nzeta 
   4.265      2.173   
   1.000      1.000   
 n=2   1   2 P   1                   # n, l, Nzeta, Polarization, NzetaPol
   5.317      2.625   
   1.000      1.000   
C                     2                    # Species label, number of l-shells
 n=2   0   2                         # n, l, Nzeta 
   4.859      2.560   
   1.000      1.000   
 n=2   1   2 P   1                   # n, l, Nzeta, Polarization, NzetaPol
   6.081      3.126   
   1.000      1.000   
O                     2                    # Species label, number of l-shells
 n=2   0   2                         # n, l, Nzeta 
   3.812      1.892   
   1.000      1.000   
 n=2   1   2 P   1                   # n, l, Nzeta, Polarization, NzetaPol
   4.762      2.271   
   1.000      1.000   
%endblock PAO.Basis

prinput: ----------------------------------------------------------------------

Dumping basis to NetCDF file H.ion.nc
Dumping basis to NetCDF file N.ion.nc
Dumping basis to NetCDF file C.ion.nc
Dumping basis to NetCDF file O.ion.nc
coor:   Atomic-coordinates input format  =     Cartesian coordinates
coor:                                          (in Angstroms)

siesta: Atomic coordinates (Bohr) and species
siesta:     12.29996  -9.30575   3.76634  1        1
siesta:     10.96267  -8.05533   3.12649  2        2
siesta:      8.33802  -8.73790   3.10985  3        3
siesta:      7.99846 -10.63339   3.77280  1        4
siesta:      6.72948  -6.86556   2.25955  2        5
siesta:      8.56046  -4.82447   1.70075  3        6
siesta:      8.01499  -2.33802   0.79651  3        7
siesta:      5.91280  -1.35139   0.29391  4        8
siesta:     10.32881  -0.82749   0.46560  2        9
siesta:     10.08951   1.04743  -0.23196  1       10
siesta:     12.83044  -1.69312   0.99059  3       11
siesta:     14.84677   0.03565   0.55599  2       12
siesta:     14.49497   1.83624  -0.39866  1       13
siesta:     16.57121  -0.88221   1.00812  1       14
siesta:     13.39575  -4.11227   1.93233  2       15
siesta:     11.10317  -5.49283   2.21068  3       16
siesta:     12.81628   9.26753  -3.68573  1       17
siesta:     11.12581   8.31991  -3.20245  2       18
siesta:      8.54443   9.21899  -3.30049  3       19
siesta:      7.93538  11.10937  -3.96532  1       20
siesta:      6.62533   7.66795  -2.53796  3       21
siesta:      4.67247   8.33686  -2.62244  1       22
siesta:      7.12191   5.15643  -1.66407  3       23
siesta:      5.14155   3.53815  -0.94695  2       24
siesta:      5.63310   1.52586  -0.42102  1       25
siesta:      3.31957   4.34338  -1.10292  1       26
siesta:      9.60094   4.16734  -1.46481  2       27
siesta:     11.68341   5.73781  -2.19018  3       28
siesta:     13.92546   5.05190  -2.02001  4       29

siesta: System type = molecule  

initatomlists: Number of atoms, orbitals, and projectors:     29   297   333

siesta: ******************** Simulation parameters ****************************
siesta:
siesta: The following are some of the parameters of the simulation.
siesta: A complete list of the parameters used, including default values,
siesta: can be found in file out.fdf
siesta:
redata: Spin configuration                          = spin-orbit+offsite
redata: Number of spin components                   = 8
redata: Time-Reversal Symmetry                      = F
redata: Spin spiral                                 = F
redata: Long output                                 =   F
redata: Number of Atomic Species                    =        4
redata: Charge density info will appear in .RHO file
redata: Write Mulliken Pop.                         = NO
redata: Matel table size (NRTAB)                    =     1024
redata: Mesh Cutoff                                 =   300.0000 Ry
redata: Net charge of the system                    =     0.0000 |e|
redata: Min. number of SCF Iter                     =        1
redata: Max. number of SCF Iter                     =      200
redata: SCF convergence failure will abort job
redata: SCF mix quantity                            = Hamiltonian
redata: Mix DM or H after convergence               =   F
redata: Recompute H after scf cycle                 =   F
redata: Mix DM in first SCF step                    =   T
redata: Write Pulay info on disk                    =   F
redata: New DM Occupancy tolerance                  = 0.000000000001
redata: No kicks to SCF
redata: DM Mixing Weight for Kicks                  =     0.5000
redata: Require Harris convergence for SCF          =   F
redata: Harris energy tolerance for SCF             =     0.000100 eV
redata: Require DM convergence for SCF              =   T
redata: DM tolerance for SCF                        =     0.000008
redata: Require EDM convergence for SCF             =   F
redata: EDM tolerance for SCF                       =     0.001000 eV
redata: Require H convergence for SCF               =   T
redata: Hamiltonian tolerance for SCF               =     0.000001 eV
redata: Require (free) Energy convergence for SCF   =   F
redata: (free) Energy tolerance for SCF             =     0.000100 eV
redata: Using DFT-D3 dispersion                     =   F
redata: Using Saved Data (generic)                  =   F
redata: Use continuation files for DM               =   T
redata: Neglect nonoverlap interactions             =   F
redata: Method of Calculation                       = Diagonalization
redata: Electronic Temperature                      =     0.0000 K
redata: Fix the spin of the system                  =   F
redata: Split SR and SO contributions               =   F
redata: Max. number of TDED Iter                    =        1
redata: Number of TDED substeps                     =        3
redata: Dynamics option                             = Broyden coord. optimization
redata: Variable cell                               =   F
redata: Maximum number of optimization moves        =     1000
redata: Force tolerance                             =     0.0080 eV/Ang
mix.SCF: Pulay mixing                            = Pulay
mix.SCF:    Variant                              = stable
mix.SCF:    History steps                        = 6
mix.SCF:    Linear mixing weight                 =     0.250000
mix.SCF:    Mixing weight                        =     0.250000
mix.SCF:    SVD condition                        = 0.1000E-07
mix.SCF:    Restart steps                        = 24
mix.SCF:    Restart save steps                   = 3
mix.SCF: Spin-component mixing                   all
redata: Save all siesta data in one NC              =   F
redata: ***********************************************************************

%block SCF.Mixers
  Pulay
%endblock SCF.Mixers

%block SCF.Mixer.Pulay
  # Mixing method
  method pulay
  variant stable

  # Mixing options
  weight 0.2500
  weight.linear 0.2500
  history 6
  restart 24
  restart.save 3
%endblock SCF.Mixer.Pulay

DM_history_depth set to one: no extrapolation allowed by default for geometry relaxation
Size of DM history Fstack: 1
Total number of electrons:    98.000000
Total ionic charge:    98.000000

* ProcessorY, Blocksize:    8   9


* Orbital distribution balance (max,min):    18     9


siesta: k-grid: Number of k-points = 1
siesta: k-point is Gamma-only

diag: Algorithm                                     = ELPA-2stage
diag: ELPA GPU string key                           = nvidia-gpu
diag: Parallel over k                               =   F
diag: Use parallel 2D distribution                  =   T
diag: Parallel block-size                           = 9
diag: Parallel distribution                         =     4 x     8
diag: Used triangular part                          = Lower
diag: Absolute tolerance                            =  0.100E-15
diag: Orthogonalization factor                      =  0.100E-05
diag: Memory factor                                 =  1.0000

siesta: Constraint (1): pos
  [ 6 ]


ts: **************************************************************
ts: Save H and S matrices                           =    F
ts: Save DM and EDM matrices                        =    F
ts: Only save the overlap matrix S                  =    F
ts: **************************************************************

************************ Begin: TS CHECKS AND WARNINGS ************************
************************ End: TS CHECKS AND WARNINGS **************************


                     ====================================
                        Begin Broyden opt. move =      0
                     ====================================

outcell: Unit cell vectors (Ang):
       14.278344    0.000000    0.000000
        0.000000   19.152444    0.000000
        0.000000    0.000000   11.202686

outcell: Cell vector modules (Ang)   :   14.278344   19.152444   11.202686
outcell: Cell angles (23,13,12) (deg):     90.0000     90.0000     90.0000
outcell: Cell volume (Ang**3)        :   3063.5446
<dSpData1D:S at geom step 0
  <sparsity:sparsity for geom step 0
    nrows_g=297 nrows=18 sparsity=.0492 nnzs=4338, refcount: 8>
  <dData1D:(new from dSpData1D) n=4338, refcount: 1>
refcount: 1>
new_DM -- step:     1
Initializing Density Matrix...

Attempting to read DM from file... Failed...
DM filled with atomic data:
<dSpData2D:DM initialized from atoms
  <sparsity:sparsity for geom step 0
    nrows_g=297 nrows=18 sparsity=.0492 nnzs=4338, refcount: 9>
  <dData2D:DM n=4338 m=8, refcount: 1>
refcount: 1>
     spin moment: {S} , |S| = {    0.00000    0.00000   56.00000 }    56.00000

InitMesh: MESH = 150 x 200 x 120 = 3600000
InitMesh: Mesh cutoff (required, used) =   300.000   301.379 Ry
New grid distribution [1]: sub = 2
New grid distribution [2]: sub = 2
New grid distribution [3]: sub = 2
Setting up quadratic distribution...

stepf: Fermi-Dirac step function

siesta: Program's energy decomposition (eV):
siesta: Ebs     =     -1135.185098
siesta: Eions   =     10791.909033
siesta: Ena     =      1663.377010
siesta: Ekin    =      3620.565207
siesta: Enl(+so)=     -2417.957437
siesta: Eso(nil)=         0.000000
siesta: Edftu   =         0.000000
siesta: DEna    =       -20.484614
siesta: DUscf   =        30.905619
siesta: DUext   =         0.000000
siesta: Ex      =     -1188.612093
siesta: Ec      =      -129.331187
siesta: Exc     =     -1317.943279
siesta: EbV     =         0.000000
siesta: eta*DQ  =         0.000000
siesta: Emadel  =         0.000000
siesta: Emeta   =         0.000000
siesta: Emolmec =         0.000000
siesta: Ekinion =         0.000000
siesta: Eharris =     -9215.611028
siesta: Etot    =     -9233.446527
siesta: FreeEng =     -9233.446527

        iscf     Eharris(eV)        E_KS(eV)     FreeEng(eV)     dDmax    Ef(eV) dHmax(eV)
   scf:    1    -9215.611028    -9233.446527    -9233.446527  0.915560 -5.340800 14.801309
     spin moment: {S} , |S| = {   -0.03475   -0.03474    1.99950 }     2.00011
timer: Routine,Calls,Time,% = IterSCF        1       3.753   9.80
   scf:    2    -9215.870149    -9237.416173    -9237.416173  0.406844 -4.519230 12.647096
     spin moment: {S} , |S| = {   -0.04398   -0.04397    1.99910 }     2.00007
   scf:    3    -9255.201212    -9249.527609    -9249.527609  0.398023 -4.425196  6.457112
     spin moment: {S} , |S| = {   -0.00117   -0.00116    0.00004 }     0.00165
   scf:    4    -9251.952091    -9251.064380    -9251.064380  0.037642 -4.375615  3.916839
     spin moment: {S} , |S| = {   -0.00068   -0.00068    0.00002 }     0.00096
   scf:    5    -9251.777920    -9251.455949    -9251.455949  0.035205 -3.825715  2.271120
     spin moment: {S} , |S| = {   -0.00032   -0.00031    0.00001 }     0.00044
   scf:    6    -9251.848575    -9251.676880    -9251.676880  0.018714 -3.702570  0.830277
     spin moment: {S} , |S| = {   -0.00013   -0.00013    0.00000 }     0.00018
   scf:    7    -9251.771621    -9251.723068    -9251.723068  0.012596 -4.848286  0.261190
     spin moment: {S} , |S| = {   -0.00005   -0.00005    0.00000 }     0.00007
   scf:    8    -9251.740271    -9251.731844    -9251.731844  0.004078 -4.862972  0.098791
     spin moment: {S} , |S| = {   -0.00003   -0.00003   -0.00000 }     0.00004
   scf:    9    -9251.738732    -9251.735140    -9251.735140  0.002606 -3.680221  0.058707
     spin moment: {S} , |S| = {   -0.00001   -0.00001   -0.00000 }     0.00002
   scf:   10    -9251.738144    -9251.736533    -9251.736533  0.002071 -3.686012  0.030050
     spin moment: {S} , |S| = {   -0.00001   -0.00001   -0.00000 }     0.00001
   scf:   11    -9251.737314    -9251.736900    -9251.736900  0.001016 -3.686296  0.018598
     spin moment: {S} , |S| = {   -0.00000   -0.00000   -0.00000 }     0.00000
   scf:   12    -9251.737323    -9251.737093    -9251.737093  0.000949 -3.685816  0.013329
     spin moment: {S} , |S| = {   -0.00000   -0.00000   -0.00000 }     0.00000
   scf:   13    -9251.737287    -9251.737177    -9251.737177  0.000890 -3.685439  0.007211
     spin moment: {S} , |S| = {   -0.00000   -0.00000   -0.00000 }     0.00000
   scf:   14    -9251.737222    -9251.737196    -9251.737196  0.000519 -3.685562  0.003462
     spin moment: {S} , |S| = {   -0.00000   -0.00000   -0.00000 }     0.00000
   scf:   15    -9251.737204    -9251.737200    -9251.737200  0.000258 -3.685529  0.001782
     spin moment: {S} , |S| = {   -0.00000   -0.00000   -0.00000 }     0.00000
   scf:   16    -9251.737201    -9251.737200    -9251.737200  0.000098 -3.685507  0.001231
     spin moment: {S} , |S| = {   -0.00000   -0.00000   -0.00000 }     0.00000
   scf:   17    -9251.737201    -9251.737200    -9251.737200  0.000095 -3.685506  0.000556
     spin moment: {S} , |S| = {   -0.00000   -0.00000   -0.00000 }     0.00000
   scf:   18    -9251.737200    -9251.737200    -9251.737200  0.000035 -3.685519  0.000262
     spin moment: {S} , |S| = {   -0.00000   -0.00000   -0.00000 }     0.00000
   scf:   19    -9251.737200    -9251.737200    -9251.737200  0.000020 -3.685527  0.000122
     spin moment: {S} , |S| = {   -0.00000   -0.00000   -0.00000 }     0.00000
   scf:   20    -9251.737200    -9251.737200    -9251.737200  0.000009 -3.685528  0.000057
     spin moment: {S} , |S| = {   -0.00000   -0.00000   -0.00000 }     0.00000
   scf:   21    -9251.737200    -9251.737200    -9251.737200  0.000004 -3.685527  0.000033
     spin moment: {S} , |S| = {   -0.00000   -0.00000   -0.00000 }     0.00000
   scf:   22    -9251.737200    -9251.737200    -9251.737200  0.000002 -3.685525  0.000020
     spin moment: {S} , |S| = {   -0.00000   -0.00000   -0.00000 }     0.00000
   scf:   23    -9251.737200    -9251.737200    -9251.737200  0.000001 -3.685525  0.000013
     spin moment: {S} , |S| = {   -0.00000   -0.00000   -0.00000 }     0.00000
   scf:   24    -9251.737200    -9251.737200    -9251.737200  0.000001 -3.685525  0.000007
     spin moment: {S} , |S| = {   -0.00000   -0.00000   -0.00000 }     0.00000
mix: Pulay -- resetting history
   scf:   25    -9251.737200    -9251.737200    -9251.737200  0.000001 -3.685525  0.000004
     spin moment: {S} , |S| = {   -0.00000   -0.00000   -0.00000 }     0.00000
   scf:   26    -9251.737200    -9251.737200    -9251.737200  0.000000 -3.685525  0.000003
     spin moment: {S} , |S| = {   -0.00000   -0.00000   -0.00000 }     0.00000
   scf:   27    -9251.737200    -9251.737200    -9251.737200  0.000000 -3.685525  0.000001
     spin moment: {S} , |S| = {   -0.00000   -0.00000   -0.00000 }     0.00000

SCF Convergence by DM+H criterion
max |DM_out - DM_in|         :     0.0000002772
max |H_out - H_in|      (eV) :     0.0000008634
SCF cycle converged after 27 iterations

Using DM_out to compute the final energy and forces

siesta: E_KS(eV) =            -9251.7372

siesta: E_KS - E_eggbox =     -9251.7372
     spin moment: {S} , |S| = {   -0.00000   -0.00000   -0.00000 }     0.00000

siesta: Atomic forces (eV/Ang):
     1   -0.269385    0.119755   -0.080954
     2   -0.459372    0.288457   -0.161935
     3   -0.000941    0.729764   -0.268258
     4    0.030221   -0.045757    0.022045
     5    1.122610   -0.331720    0.240075
     6   -0.434276   -0.510087    0.170348
     7    0.910426    0.137106    0.020560
     8   -0.722355    0.182821   -0.155159
     9    0.246286   -0.236044    0.090397
    10    0.062520   -0.217894    0.093590
    11    0.026346   -0.107126    0.035903
    12   -0.402693   -0.440872    0.137329
    13   -0.012129   -0.071318    0.027990
    14   -0.100322    0.067539   -0.042408
    15   -0.770091    0.453511   -0.252904
    16    0.728007   -0.243372    0.157362
    17   -0.245195   -0.142448    0.074816
    18   -0.103593   -0.127758    0.027267
    19    0.568269    0.292368   -0.161720
    20    0.033990   -0.137347    0.040359
    21   -0.325463    0.044523    0.007550
    22    0.029297    0.012345   -0.019048
    23    0.310350   -1.061609    0.360402
    24    0.346299    0.355704   -0.171492
    25   -0.069843    0.355218   -0.101899
    26    0.270753   -0.095865    0.002548
    27   -0.289182    0.704129   -0.250650
    28   -1.229019    0.190323   -0.010399
    29    0.733575   -0.166809    0.016958
----------------------------------------
   Tot   -0.014912   -0.002464   -0.151325
----------------------------------------
   Max    1.229019
   Res    0.366960    sqrt( Sum f_i^2 / 3N )
----------------------------------------
   Max    1.229019    constrained

Stress tensor Voigt[x,y,z,yz,xz,xy] (kbar):        3.29        2.14        0.39       -0.68       -0.09        0.56
(Free)E + p*V (eV/cell)    -9255.4488
Target enthalpy (eV/cell)    -9251.7372

Broyden_optim: max_history for broyden:   5
Broyden_optim: cycle on maxit: T
Broyden_optim: initial inverse jacobian:   1.0000

Broyden_optim: No of elements:     87

                     ====================================
                        Begin Broyden opt. move =      1
                     ====================================

outcell: Unit cell vectors (Ang):
       14.278344    0.000000    0.000000
        0.000000   19.152444    0.000000
        0.000000    0.000000   11.202686

outcell: Cell vector modules (Ang)   :   14.278344   19.152444   11.202686
outcell: Cell angles (23,13,12) (deg):     90.0000     90.0000     90.0000
outcell: Cell volume (Ang**3)        :   3063.5446
<dSpData1D:S at geom step 1
  <sparsity:sparsity for geom step 1
    nrows_g=297 nrows=18 sparsity=.0492 nnzs=4338, refcount: 8>
  <dData1D:(new from dSpData1D) n=4338, refcount: 1>
refcount: 1>
new_DM -- step:     2
Re-using DM from previous geometries...
Number of DMs in history: 1
 DM extrapolation coefficients: 
1   1.00000
New DM after history re-use:
<dSpData2D:SpM extrapolated using coords
  <sparsity:sparsity for geom step 1
    nrows_g=297 nrows=18 sparsity=.0492 nnzs=4338, refcount: 10>
  <dData2D:(temp array for extrapolation) n=4338 m=8, refcount: 1>
refcount: 1>
     spin moment: {S} , |S| = {    0.00000    0.00000   -0.00000 }     0.00001

InitMesh: MESH = 150 x 200 x 120 = 3600000
InitMesh: Mesh cutoff (required, used) =   300.000   301.379 Ry
New grid distribution [1]: sub = 2
New grid distribution [2]: sub = 2
New grid distribution [3]: sub = 2
Setting up quadratic distribution...

        iscf     Eharris(eV)        E_KS(eV)     FreeEng(eV)     dDmax    Ef(eV) dHmax(eV)
   scf:    1    -9250.332773    -9251.434538    -9251.434538  0.052408 -4.527308  2.692796
     spin moment: {S} , |S| = {   -0.00000   -0.00000   -0.00000 }     0.00000
   scf:    2    -9242.375434    -9248.832635    -9248.832635  0.117529 -3.710363  7.968221
     spin moment: {S} , |S| = {   -0.00000   -0.00000   -0.00000 }     0.00000
   scf:    3    -9252.397434    -9251.758701    -9251.758701  0.093065 -4.174200  0.213604
     spin moment: {S} , |S| = {   -0.00000   -0.00000   -0.00000 }     0.00000
   scf:    4    -9251.762104    -9251.760901    -9251.760901  0.003030 -4.136343  0.052200
     spin moment: {S} , |S| = {   -0.00000   -0.00000   -0.00000 }     0.00000
   scf:    5    -9251.761621    -9251.761301    -9251.761301  0.001188 -4.119643  0.017520
     spin moment: {S} , |S| = {   -0.00000   -0.00000   -0.00000 }     0.00000
   scf:    6    -9251.761413    -9251.761362    -9251.761362  0.000496 -4.114875  0.009595
     spin moment: {S} , |S| = {   -0.00000   -0.00000   -0.00000 }     0.00000
   scf:    7    -9251.761385    -9251.761374    -9251.761374  0.000380 -4.111856  0.002811
     spin moment: {S} , |S| = {   -0.00000   -0.00000   -0.00000 }     0.00000
   scf:    8    -9251.761377    -9251.761376    -9251.761376  0.000122 -4.111185  0.001370
     spin moment: {S} , |S| = {   -0.00000   -0.00000   -0.00000 }     0.00000
   scf:    9    -9251.761376    -9251.761376    -9251.761376  0.000042 -4.111090  0.000435
     spin moment: {S} , |S| = {   -0.00000   -0.00000   -0.00000 }     0.00000
   scf:   10    -9251.761376    -9251.761376    -9251.761376  0.000011 -4.111127  0.000109
     spin moment: {S} , |S| = {   -0.00000   -0.00000   -0.00000 }     0.00000
   scf:   11    -9251.761376    -9251.761376    -9251.761376  0.000005 -4.111124  0.000068
     spin moment: {S} , |S| = {   -0.00000   -0.00000   -0.00000 }     0.00000
   scf:   12    -9251.761376    -9251.761376    -9251.761376  0.000003 -4.111121  0.000023
     spin moment: {S} , |S| = {   -0.00000   -0.00000   -0.00000 }     0.00000
   scf:   13    -9251.761376    -9251.761376    -9251.761376  0.000001 -4.111122  0.000011
     spin moment: {S} , |S| = {   -0.00000   -0.00000   -0.00000 }     0.00000
   scf:   14    -9251.761376    -9251.761376    -9251.761376  0.000000 -4.111123  0.000005
     spin moment: {S} , |S| = {   -0.00000   -0.00000   -0.00000 }     0.00000
   scf:   15    -9251.761376    -9251.761376    -9251.761376  0.000000 -4.111123  0.000003
     spin moment: {S} , |S| = {   -0.00000   -0.00000   -0.00000 }     0.00000
   scf:   16    -9251.761376    -9251.761376    -9251.761376  0.000000 -4.111124  0.000001
     spin moment: {S} , |S| = {   -0.00000   -0.00000   -0.00000 }     0.00000

SCF Convergence by DM+H criterion
max |DM_out - DM_in|         :     0.0000001236
max |H_out - H_in|      (eV) :     0.0000006057
SCF cycle converged after 16 iterations

Using DM_out to compute the final energy and forces

siesta: E_KS(eV) =            -9251.7614
     spin moment: {S} , |S| = {   -0.00000   -0.00000   -0.00000 }     0.00000

siesta: Atomic forces (eV/Ang):
     1   -0.050088    0.293402   -0.124561
     2    0.558951   -0.044696    0.072580
     3    0.330052   -0.741023    0.306030
     4   -0.263867    0.276169   -0.129336
     5   -0.137670    0.621951   -0.246012
     6    0.223857   -0.413839    0.202954
     7   -0.871249    0.434872   -0.224208
     8    0.786784   -0.339552    0.149274
     9    0.048694    0.132327   -0.056905
    10   -0.340439   -0.191032    0.075677
    11   -0.203676    0.007513   -0.032747
    12   -0.013406   -0.024148   -0.010231
    13   -0.175923    0.109650   -0.059070
    14    0.059373   -0.232771    0.112143
    15    0.010577   -0.007332   -0.009823
    16   -0.406962    0.104005   -0.088387
    17    0.286508   -0.321620    0.098364
    18    0.009398   -0.084017    0.009841
    19   -0.468958   -0.466752    0.216060
    20   -0.203886    0.392060   -0.140677
    21    0.671343   -0.133824   -0.017766
    22   -0.263742   -0.061129    0.037306
    23   -0.302362    0.870963   -0.296211
    24   -0.053892   -0.339085    0.103049
    25    0.924381   -0.724197    0.183526
    26   -0.374857    0.838858   -0.238041
    27    0.187505   -0.171946    0.057195
    28    1.377769   -0.183376    0.009270
    29   -1.458765    0.373725   -0.096661
----------------------------------------
   Tot   -0.114550   -0.024842   -0.137368
----------------------------------------
   Max    1.458765
   Res    0.393194    sqrt( Sum f_i^2 / 3N )
----------------------------------------
   Max    1.458765    constrained

Stress tensor Voigt[x,y,z,yz,xz,xy] (kbar):        1.76        0.45        0.20       -0.16       -0.22        0.84
(Free)E + p*V (eV/cell)    -9253.2963
Target enthalpy (eV/cell)    -9251.7614

                     ====================================
                        Begin Broyden opt. move =      2
                     ====================================

outcell: Unit cell vectors (Ang):
       14.278344    0.000000    0.000000
        0.000000   19.152444    0.000000
        0.000000    0.000000   11.202686

outcell: Cell vector modules (Ang)   :   14.278344   19.152444   11.202686
outcell: Cell angles (23,13,12) (deg):     90.0000     90.0000     90.0000
outcell: Cell volume (Ang**3)        :   3063.5446
<dSpData1D:S at geom step 2
  <sparsity:sparsity for geom step 2
    nrows_g=297 nrows=18 sparsity=.0492 nnzs=4338, refcount: 8>
  <dData1D:(new from dSpData1D) n=4338, refcount: 1>
refcount: 1>
new_DM -- step:     3
Re-using DM from previous geometries...
Number of DMs in history: 1
 DM extrapolation coefficients: 
1   1.00000
New DM after history re-use:
<dSpData2D:SpM extrapolated using coords
  <sparsity:sparsity for geom step 2
    nrows_g=297 nrows=18 sparsity=.0492 nnzs=4338, refcount: 10>
  <dData2D:(temp array for extrapolation) n=4338 m=8, refcount: 1>
refcount: 1>
     spin moment: {S} , |S| = {    0.00001    0.00001   -0.00000 }     0.00001

InitMesh: MESH = 150 x 200 x 120 = 3600000
InitMesh: Mesh cutoff (required, used) =   300.000   301.379 Ry
New grid distribution [1]: sub = 2
New grid distribution [2]: sub = 2
New grid distribution [3]: sub = 2
Setting up quadratic distribution...

        iscf     Eharris(eV)        E_KS(eV)     FreeEng(eV)     dDmax    Ef(eV) dHmax(eV)
   scf:    1    -9251.385152    -9251.723511    -9251.723511  0.032889 -4.137156  1.615400
     spin moment: {S} , |S| = {   -0.00000   -0.00000   -0.00000 }     0.00000
   scf:    2    -9249.794738    -9251.182245    -9251.182245  0.062935 -2.573470  4.441720
     spin moment: {S} , |S| = {   -0.00000   -0.00000   -0.00000 }     0.00000
   scf:    3    -9251.966715    -9251.805157    -9251.805157  0.046501 -4.371031  0.060634
     spin moment: {S} , |S| = {   -0.00000   -0.00000   -0.00000 }     0.00000
   scf:    4    -9251.805887    -9251.805604    -9251.805604  0.000650 -4.387389  0.028475
     spin moment: {S} , |S| = {   -0.00000   -0.00000   -0.00000 }     0.00000
   scf:    5    -9251.805722    -9251.805667    -9251.805667  0.000560 -4.392891  0.013948
     spin moment: {S} , |S| = {   -0.00000   -0.00000   -0.00000 }     0.00000
   scf:    6    -9251.805724    -9251.805698    -9251.805698  0.000575 -4.397516  0.003556
     spin moment: {S} , |S| = {   -0.00000   -0.00000   -0.00000 }     0.00000
   scf:    7    -9251.805702    -9251.805700    -9251.805700  0.000177 -4.398284  0.001718
     spin moment: {S} , |S| = {   -0.00000   -0.00000   -0.00000 }     0.00000
   scf:    8    -9251.805701    -9251.805701    -9251.805701  0.000064 -4.398518  0.000654
     spin moment: {S} , |S| = {   -0.00000   -0.00000   -0.00000 }     0.00000
   scf:    9    -9251.805701    -9251.805701    -9251.805701  0.000029 -4.398572  0.000219
     spin moment: {S} , |S| = {   -0.00000   -0.00000   -0.00000 }     0.00000
   scf:   10    -9251.805701    -9251.805701    -9251.805701  0.000014 -4.398605  0.000086
     spin moment: {S} , |S| = {   -0.00000   -0.00000   -0.00000 }     0.00000
   scf:   11    -9251.805701    -9251.805701    -9251.805701  0.000003 -4.398603  0.000037
     spin moment: {S} , |S| = {   -0.00000   -0.00000   -0.00000 }     0.00000
   scf:   12    -9251.805701    -9251.805701    -9251.805701  0.000002 -4.398600  0.000016
     spin moment: {S} , |S| = {   -0.00000   -0.00000   -0.00000 }     0.00000
   scf:   13    -9251.805701    -9251.805701    -9251.805701  0.000001 -4.398598  0.000005
     spin moment: {S} , |S| = {   -0.00000   -0.00000   -0.00000 }     0.00000
   scf:   14    -9251.805701    -9251.805701    -9251.805701  0.000000 -4.398598  0.000002
     spin moment: {S} , |S| = {   -0.00000   -0.00000   -0.00000 }     0.00000
   scf:   15    -9251.805701    -9251.805701    -9251.805701  0.000000 -4.398598  0.000001
     spin moment: {S} , |S| = {   -0.00000   -0.00000   -0.00000 }     0.00000
   scf:   16    -9251.805701    -9251.805701    -9251.805701  0.000000 -4.398598  0.000001
     spin moment: {S} , |S| = {   -0.00000   -0.00000   -0.00000 }     0.00000

SCF Convergence by DM+H criterion
max |DM_out - DM_in|         :     0.0000000261
max |H_out - H_in|      (eV) :     0.0000006490
SCF cycle converged after 16 iterations

Using DM_out to compute the final energy and forces

siesta: E_KS(eV) =            -9251.8057
     spin moment: {S} , |S| = {   -0.00000   -0.00000   -0.00000 }     0.00000

siesta: Atomic forces (eV/Ang):
     1   -0.017586    0.117968   -0.052151
     2    0.094468    0.065487   -0.021366
     3    0.141052   -0.015865    0.018961
     4   -0.109512    0.149728   -0.065137
     5    0.190117    0.108730   -0.020854
     6    0.081322   -0.294238    0.147523
     7    0.145076   -0.095195    0.035756
     8   -0.035853    0.058157   -0.048467
     9   -0.111109    0.071805   -0.047971
    10    0.885077   -0.186485    0.090229
    11   -0.128491   -0.028635   -0.012359
    12   -0.032994    0.057048   -0.049390
    13   -0.139764   -0.340084    0.160802
    14   -0.185632    0.071371   -0.046536
    15   -0.081847    0.031300   -0.034195
    16   -0.147199    0.070101   -0.046582
    17   -0.317114   -0.051598    0.043754
    18    0.048469   -0.050321   -0.005382
    19   -0.014876    0.128340   -0.051918
    20    0.157718   -0.283147    0.085668
    21   -0.051445   -0.073908    0.025813
    22    0.357873    0.616325   -0.260052
    23    0.065788    0.157130   -0.064246
    24    0.005292   -0.163060    0.030441
    25   -1.315222    1.077453   -0.284977
    26    0.687636   -1.321116    0.375513
    27    0.016665    0.022084   -0.004015
    28   -0.312261    0.130313   -0.036403
    29    0.050111   -0.023982    0.000306
----------------------------------------
   Tot   -0.074244    0.005704   -0.137237
----------------------------------------
   Max    1.321116
   Res    0.298269    sqrt( Sum f_i^2 / 3N )
----------------------------------------
   Max    1.321116    constrained

Stress tensor Voigt[x,y,z,yz,xz,xy] (kbar):        1.89        1.47        0.26       -0.38        0.06       -0.31
(Free)E + p*V (eV/cell)    -9254.1097
Target enthalpy (eV/cell)    -9251.8057

                     ====================================
                        Begin Broyden opt. move =      3
                     ====================================

outcell: Unit cell vectors (Ang):
       14.278344    0.000000    0.000000
        0.000000   19.152444    0.000000
        0.000000    0.000000   11.202686

outcell: Cell vector modules (Ang)   :   14.278344   19.152444   11.202686
outcell: Cell angles (23,13,12) (deg):     90.0000     90.0000     90.0000
outcell: Cell volume (Ang**3)        :   3063.5446
<dSpData1D:S at geom step 3
  <sparsity:sparsity for geom step 3
    nrows_g=297 nrows=18 sparsity=.0492 nnzs=4338, refcount: 8>
  <dData1D:(new from dSpData1D) n=4338, refcount: 1>
refcount: 1>
new_DM -- step:     4
Re-using DM from previous geometries...
Number of DMs in history: 1
 DM extrapolation coefficients: 
1   1.00000
New DM after history re-use:
<dSpData2D:SpM extrapolated using coords
  <sparsity:sparsity for geom step 3
    nrows_g=297 nrows=18 sparsity=.0492 nnzs=4338, refcount: 10>
  <dData2D:(temp array for extrapolation) n=4338 m=8, refcount: 1>
refcount: 1>
     spin moment: {S} , |S| = {    0.00000    0.00000   -0.00000 }     0.00001

InitMesh: MESH = 150 x 200 x 120 = 3600000
InitMesh: Mesh cutoff (required, used) =   300.000   301.379 Ry
New grid distribution [1]: sub = 2
New grid distribution [2]: sub = 2
New grid distribution [3]: sub = 2
Setting up quadratic distribution...

        iscf     Eharris(eV)        E_KS(eV)     FreeEng(eV)     dDmax    Ef(eV) dHmax(eV)
   scf:    1    -9251.765884    -9251.817293    -9251.817293  0.003005 -4.411682  0.086725
     spin moment: {S} , |S| = {   -0.00000   -0.00000   -0.00000 }     0.00000
   scf:    2    -9251.806260    -9251.814311    -9251.814311  0.004623 -4.365081  0.239572
     spin moment: {S} , |S| = {   -0.00000   -0.00000   -0.00000 }     0.00000
   scf:    3    -9251.818887    -9251.817946    -9251.817946  0.003321 -4.399318  0.014876
     spin moment: {S} , |S| = {   -0.00000   -0.00000   -0.00000 }     0.00000
   scf:    4    -9251.817962    -9251.817956    -9251.817956  0.000139 -4.399457  0.003688
     spin moment: {S} , |S| = {   -0.00000   -0.00000   -0.00000 }     0.00000
   scf:    5    -9251.817958    -9251.817957    -9251.817957  0.000030 -4.399947  0.001656
     spin moment: {S} , |S| = {   -0.00000   -0.00000   -0.00000 }     0.00000
   scf:    6    -9251.817957    -9251.817957    -9251.817957  0.000025 -4.400289  0.000236
     spin moment: {S} , |S| = {   -0.00000   -0.00000   -0.00000 }     0.00000
   scf:    7    -9251.817957    -9251.817957    -9251.817957  0.000005 -4.400345  0.000129
     spin moment: {S} , |S| = {   -0.00000   -0.00000   -0.00000 }     0.00000
   scf:    8    -9251.817957    -9251.817957    -9251.817957  0.000003 -4.400358  0.000058
     spin moment: {S} , |S| = {   -0.00000   -0.00000   -0.00000 }     0.00000
   scf:    9    -9251.817957    -9251.817957    -9251.817957  0.000002 -4.400361  0.000037
     spin moment: {S} , |S| = {   -0.00000   -0.00000   -0.00000 }     0.00000
   scf:   10    -9251.817957    -9251.817957    -9251.817957  0.000001 -4.400362  0.000023
     spin moment: {S} , |S| = {   -0.00000   -0.00000   -0.00000 }     0.00000
   scf:   11    -9251.817957    -9251.817957    -9251.817957  0.000001 -4.400363  0.000009
     spin moment: {S} , |S| = {   -0.00000   -0.00000   -0.00000 }     0.00000
   scf:   12    -9251.817957    -9251.817957    -9251.817957  0.000000 -4.400363  0.000003
     spin moment: {S} , |S| = {   -0.00000   -0.00000   -0.00000 }     0.00000
   scf:   13    -9251.817957    -9251.817957    -9251.817957  0.000000 -4.400363  0.000001
     spin moment: {S} , |S| = {   -0.00000   -0.00000   -0.00000 }     0.00000
   scf:   14    -9251.817957    -9251.817957    -9251.817957  0.000000 -4.400363  0.000000
     spin moment: {S} , |S| = {   -0.00000   -0.00000   -0.00000 }     0.00000

SCF Convergence by DM+H criterion
max |DM_out - DM_in|         :     0.0000000223
max |H_out - H_in|      (eV) :     0.0000004373
SCF cycle converged after 14 iterations

Using DM_out to compute the final energy and forces

siesta: E_KS(eV) =            -9251.8180
     spin moment: {S} , |S| = {   -0.00000   -0.00000   -0.00000 }     0.00000

siesta: Atomic forces (eV/Ang):
     1   -0.011194    0.064868   -0.030736
     2    0.013216    0.095013   -0.042500
     3    0.116709    0.089558   -0.022621
     4   -0.063003    0.119276   -0.048729
     5    0.191486    0.039472    0.004076
     6    0.081093   -0.289624    0.145607
     7    0.091301   -0.046519    0.013373
     8   -0.029006    0.018007   -0.036267
     9   -0.055783    0.041939   -0.033153
    10   -0.611290   -0.131376    0.048834
    11   -0.097461   -0.018135   -0.013315
    12   -0.052705   -0.031243   -0.006797
    13    0.229951   -0.055247    0.038396
    14   -0.043451   -0.059743    0.022979
    15   -0.092971    0.036005   -0.036713
    16   -0.077459    0.053983   -0.033206
    17   -0.060482   -0.096288    0.039630
    18   -0.048737   -0.042173   -0.001518
    19    0.054022    0.048466   -0.028036
    20    0.202327    0.038690   -0.041089
    21   -0.071731    0.003275   -0.000296
    22   -0.149123   -0.298061    0.112761
    23    0.065566    0.004021   -0.010642
    24    0.026192    0.069640   -0.037824
    25    0.678478   -0.392793    0.091391
    26   -0.106878    0.592909   -0.184648
    27   -0.032032    0.057338   -0.013921
    28   -0.284182    0.113207   -0.031791
    29    0.064169   -0.020941   -0.000639
----------------------------------------
   Tot   -0.072978    0.003525   -0.137392
----------------------------------------
   Max    0.678478
   Res    0.153605    sqrt( Sum f_i^2 / 3N )
----------------------------------------
   Max    0.678478    constrained

Stress tensor Voigt[x,y,z,yz,xz,xy] (kbar):        1.25        0.78        0.22       -0.24       -0.14        0.54
(Free)E + p*V (eV/cell)    -9253.2557
Target enthalpy (eV/cell)    -9251.8180

                     ====================================
                        Begin Broyden opt. move =      4
                     ====================================

outcell: Unit cell vectors (Ang):
       14.278344    0.000000    0.000000
        0.000000   19.152444    0.000000
        0.000000    0.000000   11.202686

outcell: Cell vector modules (Ang)   :   14.278344   19.152444   11.202686
outcell: Cell angles (23,13,12) (deg):     90.0000     90.0000     90.0000
outcell: Cell volume (Ang**3)        :   3063.5446
<dSpData1D:S at geom step 4
  <sparsity:sparsity for geom step 4
    nrows_g=297 nrows=18 sparsity=.0492 nnzs=4338, refcount: 8>
  <dData1D:(new from dSpData1D) n=4338, refcount: 1>
refcount: 1>
new_DM -- step:     5
Re-using DM from previous geometries...
Number of DMs in history: 1
 DM extrapolation coefficients: 
1   1.00000
New DM after history re-use:
<dSpData2D:SpM extrapolated using coords
  <sparsity:sparsity for geom step 4
    nrows_g=297 nrows=18 sparsity=.0492 nnzs=4338, refcount: 10>
  <dData2D:(temp array for extrapolation) n=4338 m=8, refcount: 1>
refcount: 1>
     spin moment: {S} , |S| = {   -0.00000   -0.00000   -0.00000 }     0.00000

InitMesh: MESH = 150 x 200 x 120 = 3600000
InitMesh: Mesh cutoff (required, used) =   300.000   301.379 Ry
New grid distribution [1]: sub = 2
New grid distribution [2]: sub = 2
New grid distribution [3]: sub = 2
Setting up quadratic distribution...

        iscf     Eharris(eV)        E_KS(eV)     FreeEng(eV)     dDmax    Ef(eV) dHmax(eV)
   scf:    1    -9251.770478    -9251.820257    -9251.820257  0.005898 -4.389928  0.319767
     spin moment: {S} , |S| = {   -0.00000   -0.00000   -0.00000 }     0.00000
   scf:    2    -9251.751230    -9251.800540    -9251.800540  0.011721 -4.248454  0.853186
     spin moment: {S} , |S| = {   -0.00000   -0.00000   -0.00000 }     0.00000
   scf:    3    -9251.828085    -9251.822794    -9251.822794  0.008804 -4.344954  0.017944
     spin moment: {S} , |S| = {   -0.00000   -0.00000   -0.00000 }     0.00000
   scf:    4    -9251.822819    -9251.822809    -9251.822809  0.000214 -4.338074  0.005419
     spin moment: {S} , |S| = {   -0.00000   -0.00000   -0.00000 }     0.00000
   scf:    5    -9251.822812    -9251.822811    -9251.822811  0.000107 -4.336195  0.002212
     spin moment: {S} , |S| = {   -0.00000   -0.00000   -0.00000 }     0.00000
   scf:    6    -9251.822811    -9251.822811    -9251.822811  0.000068 -4.335582  0.000583
     spin moment: {S} , |S| = {   -0.00000   -0.00000   -0.00000 }     0.00000
   scf:    7    -9251.822811    -9251.822811    -9251.822811  0.000023 -4.335467  0.000294
     spin moment: {S} , |S| = {   -0.00000   -0.00000   -0.00000 }     0.00000
   scf:    8    -9251.822811    -9251.822811    -9251.822811  0.000006 -4.335471  0.000115
     spin moment: {S} , |S| = {   -0.00000   -0.00000   -0.00000 }     0.00000
   scf:    9    -9251.822811    -9251.822811    -9251.822811  0.000002 -4.335489  0.000041
     spin moment: {S} , |S| = {   -0.00000   -0.00000   -0.00000 }     0.00000
   scf:   10    -9251.822811    -9251.822811    -9251.822811  0.000001 -4.335493  0.000020
     spin moment: {S} , |S| = {   -0.00000   -0.00000   -0.00000 }     0.00000
   scf:   11    -9251.822811    -9251.822811    -9251.822811  0.000000 -4.335494  0.000006
     spin moment: {S} , |S| = {   -0.00000   -0.00000   -0.00000 }     0.00000
   scf:   12    -9251.822811    -9251.822811    -9251.822811  0.000000 -4.335494  0.000003
     spin moment: {S} , |S| = {   -0.00000   -0.00000   -0.00000 }     0.00000
   scf:   13    -9251.822811    -9251.822811    -9251.822811  0.000000 -4.335494  0.000002
     spin moment: {S} , |S| = {   -0.00000   -0.00000   -0.00000 }     0.00000
   scf:   14    -9251.822811    -9251.822811    -9251.822811  0.000000 -4.335494  0.000001
     spin moment: {S} , |S| = {   -0.00000   -0.00000   -0.00000 }     0.00000

SCF Convergence by DM+H criterion
max |DM_out - DM_in|         :     0.0000000358
max |H_out - H_in|      (eV) :     0.0000006554
SCF cycle converged after 14 iterations

Using DM_out to compute the final energy and forces

siesta: E_KS(eV) =            -9251.8228
     spin moment: {S} , |S| = {   -0.00000   -0.00000   -0.00000 }     0.00000

siesta: Atomic forces (eV/Ang):
     1   -0.032666    0.025281   -0.017801
     2   -0.003331    0.091874   -0.043066
     3    0.083738    0.119248   -0.037488
     4    0.000611    0.102580   -0.035735
     5    0.108291    0.005439    0.005177
     6    0.078231   -0.266095    0.135694
     7   -0.014868    0.033154   -0.023391
     8    0.037967   -0.019234   -0.016216
     9   -0.066209   -0.021383   -0.009350
    10    0.432232   -0.095013    0.049350
    11   -0.041086    0.047136   -0.032729
    12   -0.046870   -0.115878    0.034876
    13   -0.393292    0.124602   -0.081104
    14    0.082385   -0.238007    0.115382
    15   -0.100494    0.030164   -0.036017
    16    0.016751    0.041065   -0.018586
    17    0.284764   -0.176134    0.042768
    18   -0.130648   -0.032492    0.003453
    19    0.015352   -0.059231    0.015347
    20   -0.264319    0.063506   -0.010312
    21   -0.004458    0.082595   -0.035581
    22    0.098492    0.129978   -0.063728
    23   -0.008073   -0.056877    0.016559
    24    0.074053    0.077348   -0.043864
    25   -0.088171   -0.062396    0.001674
    26   -0.024655    0.056118   -0.014266
    27   -0.053587    0.061360   -0.014710
    28    0.036918    0.001899   -0.004495
    29   -0.156936    0.053189   -0.019001
----------------------------------------
   Tot   -0.079878    0.003795   -0.137161
----------------------------------------
   Max    0.432232
   Res    0.105509    sqrt( Sum f_i^2 / 3N )
----------------------------------------
   Max    0.432232    constrained

Stress tensor Voigt[x,y,z,yz,xz,xy] (kbar):        0.91        0.42        0.15       -0.08       -0.24        0.80
(Free)E + p*V (eV/cell)    -9252.7673
Target enthalpy (eV/cell)    -9251.8228

                     ====================================
                        Begin Broyden opt. move =      5
                     ====================================

outcell: Unit cell vectors (Ang):
       14.278344    0.000000    0.000000
        0.000000   19.152444    0.000000
        0.000000    0.000000   11.202686

outcell: Cell vector modules (Ang)   :   14.278344   19.152444   11.202686
outcell: Cell angles (23,13,12) (deg):     90.0000     90.0000     90.0000
outcell: Cell volume (Ang**3)        :   3063.5446
<dSpData1D:S at geom step 5
  <sparsity:sparsity for geom step 5
    nrows_g=297 nrows=18 sparsity=.0492 nnzs=4338, refcount: 8>
  <dData1D:(new from dSpData1D) n=4338, refcount: 1>
refcount: 1>
new_DM -- step:     6
Re-using DM from previous geometries...
Number of DMs in history: 1
 DM extrapolation coefficients: 
1   1.00000
New DM after history re-use:
<dSpData2D:SpM extrapolated using coords
  <sparsity:sparsity for geom step 5
    nrows_g=297 nrows=18 sparsity=.0492 nnzs=4338, refcount: 10>
  <dData2D:(temp array for extrapolation) n=4338 m=8, refcount: 1>
refcount: 1>
     spin moment: {S} , |S| = {    0.00000   -0.00000   -0.00000 }     0.00000

InitMesh: MESH = 150 x 200 x 120 = 3600000
InitMesh: Mesh cutoff (required, used) =   300.000   301.379 Ry
New grid distribution [1]: sub = 2
New grid distribution [2]: sub = 2
New grid distribution [3]: sub = 2
Setting up quadratic distribution...

        iscf     Eharris(eV)        E_KS(eV)     FreeEng(eV)     dDmax    Ef(eV) dHmax(eV)
   scf:    1    -9251.763702    -9251.825824    -9251.825824  0.001472 -4.319411  0.057287
     spin moment: {S} , |S| = {   -0.00000   -0.00000   -0.00000 }     0.00000
   scf:    2    -9251.822072    -9251.824807    -9251.824807  0.002391 -4.311534  0.123657
     spin moment: {S} , |S| = {   -0.00000   -0.00000   -0.00000 }     0.00000
   scf:    3    -9251.826369    -9251.826038    -9251.826038  0.001678 -4.316851  0.009924
     spin moment: {S} , |S| = {   -0.00000   -0.00000   -0.00000 }     0.00000
   scf:    4    -9251.826043    -9251.826041    -9251.826041  0.000056 -4.316240  0.003484
     spin moment: {S} , |S| = {   -0.00000   -0.00000   -0.00000 }     0.00000
   scf:    5    -9251.826042    -9251.826041    -9251.826041  0.000017 -4.315846  0.000890
     spin moment: {S} , |S| = {   -0.00000   -0.00000   -0.00000 }     0.00000
   scf:    6    -9251.826041    -9251.826041    -9251.826041  0.000010 -4.315665  0.000268
     spin moment: {S} , |S| = {   -0.00000   -0.00000   -0.00000 }     0.00000
   scf:    7    -9251.826041    -9251.826041    -9251.826041  0.000004 -4.315626  0.000098
     spin moment: {S} , |S| = {   -0.00000   -0.00000   -0.00000 }     0.00000
   scf:    8    -9251.826041    -9251.826041    -9251.826041  0.000001 -4.315625  0.000050
     spin moment: {S} , |S| = {   -0.00000   -0.00000   -0.00000 }     0.00000
   scf:    9    -9251.826041    -9251.826041    -9251.826041  0.000001 -4.315627  0.000017
     spin moment: {S} , |S| = {   -0.00000   -0.00000   -0.00000 }     0.00000
   scf:   10    -9251.826041    -9251.826041    -9251.826041  0.000000 -4.315627  0.000010
     spin moment: {S} , |S| = {   -0.00000   -0.00000   -0.00000 }     0.00000
   scf:   11    -9251.826041    -9251.826041    -9251.826041  0.000000 -4.315627  0.000005
     spin moment: {S} , |S| = {   -0.00000   -0.00000   -0.00000 }     0.00000
   scf:   12    -9251.826041    -9251.826041    -9251.826041  0.000000 -4.315627  0.000002
     spin moment: {S} , |S| = {   -0.00000   -0.00000   -0.00000 }     0.00000
   scf:   13    -9251.826041    -9251.826041    -9251.826041  0.000000 -4.315627  0.000001
     spin moment: {S} , |S| = {   -0.00000   -0.00000   -0.00000 }     0.00000

SCF Convergence by DM+H criterion
max |DM_out - DM_in|         :     0.0000000491
max |H_out - H_in|      (eV) :     0.0000006142
SCF cycle converged after 13 iterations

Using DM_out to compute the final energy and forces

[...]

InitMesh: MESH = 150 x 200 x 120 = 3600000
InitMesh: Mesh cutoff (required, used) =   300.000   301.379 Ry
New grid distribution [1]: sub = 2
New grid distribution [2]: sub = 2
New grid distribution [3]: sub = 2
Setting up quadratic distribution...

        iscf     Eharris(eV)        E_KS(eV)     FreeEng(eV)     dDmax    Ef(eV) dHmax(eV)
   scf:    1    -9251.834872    -9251.836308    -9251.836308  0.000084 -4.227387  0.001658
     spin moment: {S} , |S| = {   -0.00000   -0.00000   -0.00000 }     0.00000
   scf:    2    -9251.836303    -9251.836306    -9251.836306  0.000066 -4.226963  0.004179
     spin moment: {S} , |S| = {   -0.00000   -0.00000   -0.00000 }     0.00000
   scf:    3    -9251.836308    -9251.836308    -9251.836308  0.000050 -4.227275  0.000289
     spin moment: {S} , |S| = {   -0.00000   -0.00000   -0.00000 }     0.00000
   scf:    4    -9251.836308    -9251.836308    -9251.836308  0.000002 -4.227260  0.000115
     spin moment: {S} , |S| = {   -0.00000   -0.00000   -0.00000 }     0.00000
   scf:    5    -9251.836308    -9251.836308    -9251.836308  0.000001 -4.227249  0.000014
     spin moment: {S} , |S| = {   -0.00000   -0.00000   -0.00000 }     0.00000
   scf:    6    -9251.836308    -9251.836308    -9251.836308  0.000000 -4.227249  0.000005
     spin moment: {S} , |S| = {   -0.00000   -0.00000   -0.00000 }     0.00000
   scf:    7    -9251.836308    -9251.836308    -9251.836308  0.000000 -4.227249  0.000002
     spin moment: {S} , |S| = {   -0.00000   -0.00000   -0.00000 }     0.00000
   scf:    8    -9251.836308    -9251.836308    -9251.836308  0.000000 -4.227249  0.000001
     spin moment: {S} , |S| = {   -0.00000   -0.00000   -0.00000 }     0.00000

SCF Convergence by DM+H criterion
max |DM_out - DM_in|         :     0.0000000651
max |H_out - H_in|      (eV) :     0.0000007474
SCF cycle converged after 8 iterations

Using DM_out to compute the final energy and forces

siesta: E_KS(eV) =            -9251.8363
     spin moment: {S} , |S| = {   -0.00000   -0.00000   -0.00000 }     0.00000

siesta: Atomic forces (eV/Ang):
     1    0.003099    0.000164   -0.004782
     2    0.002699    0.000368   -0.001829
     3    0.001742    0.001095    0.000957
     4    0.004220    0.001507    0.001891
     5    0.000799    0.000876    0.003094
     6   -0.078104   -0.024907    0.001362
     7   -0.002077    0.000913    0.001308
     8   -0.002678    0.001094    0.002370
     9   -0.002674    0.002358    0.000391
    10   -0.000284    0.001870   -0.000872
    11   -0.001744    0.003417    0.000608
    12   -0.002896    0.006431    0.004314
    13   -0.004324    0.006823   -0.000265
    14   -0.000191    0.002099    0.000237
    15    0.001068    0.006311   -0.003446
    16    0.000425    0.000995   -0.001999
    17   -0.000755    0.004739   -0.005073
    18    0.001093    0.003831   -0.003097
    19    0.000163    0.004128   -0.006471
    20    0.001814   -0.000448   -0.005419
    21   -0.000249    0.001696   -0.005663
    22   -0.001484    0.000739   -0.007030
    23    0.001225    0.002178   -0.004081
    24    0.001813    0.003035   -0.001792
    25    0.000639    0.001540    0.001910
    26    0.000340    0.007084   -0.006965
    27    0.001326    0.002366   -0.003675
    28    0.001880    0.004876   -0.001906
    29    0.000991    0.009674    0.000778
----------------------------------------
   Tot   -0.072120    0.056850   -0.045148
----------------------------------------
   Max    0.078104
   Res    0.009346    sqrt( Sum f_i^2 / 3N )
----------------------------------------
   Max    0.009674    constrained

Stress tensor Voigt[x,y,z,yz,xz,xy] (kbar):        0.27       -0.01        0.09        0.07        0.00       -0.00
(Free)E + p*V (eV/cell)    -9252.0595
Target enthalpy (eV/cell)    -9251.8363

                     ====================================
                        Begin Broyden opt. move =     73
                     ====================================

outcell: Unit cell vectors (Ang):
       14.278344    0.000000    0.000000
        0.000000   19.152444    0.000000
        0.000000    0.000000   11.202686

outcell: Cell vector modules (Ang)   :   14.278344   19.152444   11.202686
outcell: Cell angles (23,13,12) (deg):     90.0000     90.0000     90.0000
outcell: Cell volume (Ang**3)        :   3063.5446
<dSpData1D:S at geom step 73
  <sparsity:sparsity for geom step 73
    nrows_g=297 nrows=18 sparsity=.0492 nnzs=4338, refcount: 8>
  <dData1D:(new from dSpData1D) n=4338, refcount: 1>
refcount: 1>
new_DM -- step:    74
Re-using DM from previous geometries...
Number of DMs in history: 1
 DM extrapolation coefficients: 
1   1.00000
New DM after history re-use:
<dSpData2D:SpM extrapolated using coords
  <sparsity:sparsity for geom step 73
    nrows_g=297 nrows=18 sparsity=.0492 nnzs=4338, refcount: 10>
  <dData2D:(temp array for extrapolation) n=4338 m=8, refcount: 1>
refcount: 1>
     spin moment: {S} , |S| = {   -0.00000   -0.00000   -0.00000 }     0.00000

InitMesh: MESH = 150 x 200 x 120 = 3600000
InitMesh: Mesh cutoff (required, used) =   300.000   301.379 Ry
New grid distribution [1]: sub = 2
New grid distribution [2]: sub = 2
New grid distribution [3]: sub = 2
Setting up quadratic distribution...

        iscf     Eharris(eV)        E_KS(eV)     FreeEng(eV)     dDmax    Ef(eV) dHmax(eV)
   scf:    1    -9251.834418    -9251.836253    -9251.836253  0.000113 -4.226667  0.001706
     spin moment: {S} , |S| = {   -0.00000   -0.00000   -0.00000 }     0.00000
   scf:    2    -9251.836248    -9251.836252    -9251.836252  0.000067 -4.227017  0.004059
     spin moment: {S} , |S| = {   -0.00000   -0.00000   -0.00000 }     0.00000
   scf:    3    -9251.836254    -9251.836253    -9251.836253  0.000049 -4.226786  0.000244
     spin moment: {S} , |S| = {   -0.00000   -0.00000   -0.00000 }     0.00000
   scf:    4    -9251.836253    -9251.836253    -9251.836253  0.000002 -4.226792  0.000099
     spin moment: {S} , |S| = {   -0.00000   -0.00000   -0.00000 }     0.00000
   scf:    5    -9251.836253    -9251.836253    -9251.836253  0.000001 -4.226792  0.000018
     spin moment: {S} , |S| = {   -0.00000   -0.00000   -0.00000 }     0.00000
   scf:    6    -9251.836253    -9251.836253    -9251.836253  0.000001 -4.226793  0.000008
     spin moment: {S} , |S| = {   -0.00000   -0.00000   -0.00000 }     0.00000
   scf:    7    -9251.836253    -9251.836253    -9251.836253  0.000000 -4.226793  0.000003
     spin moment: {S} , |S| = {   -0.00000   -0.00000   -0.00000 }     0.00000
   scf:    8    -9251.836253    -9251.836253    -9251.836253  0.000000 -4.226794  0.000001
     spin moment: {S} , |S| = {   -0.00000   -0.00000   -0.00000 }     0.00000
   scf:    9    -9251.836253    -9251.836253    -9251.836253  0.000000 -4.226794  0.000001
     spin moment: {S} , |S| = {   -0.00000   -0.00000   -0.00000 }     0.00000

SCF Convergence by DM+H criterion
max |DM_out - DM_in|         :     0.0000000378
max |H_out - H_in|      (eV) :     0.0000005975
SCF cycle converged after 9 iterations

Using DM_out to compute the final energy and forces

siesta: E_KS(eV) =            -9251.8363
     spin moment: {S} , |S| = {   -0.00000   -0.00000   -0.00000 }     0.00000

siesta: Atomic forces (eV/Ang):
     1    0.001074   -0.000331   -0.005200
     2    0.004356   -0.000032   -0.001767
     3    0.001111    0.001355    0.000876
     4    0.005628    0.002052    0.001984
     5    0.001274    0.000860    0.003252
     6   -0.078245   -0.027544    0.001910
     7   -0.002638    0.001251    0.001282
     8   -0.001519    0.000556    0.002599
     9   -0.002740    0.002273    0.000558
    10   -0.002389    0.001217   -0.000739
    11   -0.001961    0.003720    0.000593
    12   -0.002947    0.007569    0.003869
    13    0.002207    0.001420    0.002594
    14   -0.003468    0.006352   -0.001810
    15    0.001423    0.005697   -0.003010
    16    0.000355    0.001125   -0.002096
    17    0.001874    0.003514   -0.004873
    18    0.001114    0.004133   -0.003678
    19   -0.000105    0.002554   -0.005801
    20   -0.005149   -0.002667   -0.004164
    21   -0.000148    0.002139   -0.005811
    22    0.002839    0.008657   -0.010541
    23    0.000756    0.002544   -0.004242
    24    0.001454    0.003075   -0.001734
    25   -0.002664    0.005410    0.001296
    26    0.002368   -0.000667   -0.004305
    27    0.002466    0.002409   -0.004013
    28    0.001154    0.004183   -0.001916
    29    0.002200    0.007991    0.000651
----------------------------------------
   Tot   -0.070318    0.050817   -0.044233
----------------------------------------
   Max    0.078245
   Res    0.009509    sqrt( Sum f_i^2 / 3N )
----------------------------------------
   Max    0.010541    constrained

Stress tensor Voigt[x,y,z,yz,xz,xy] (kbar):        0.27       -0.01        0.09        0.08        0.01       -0.00
(Free)E + p*V (eV/cell)    -9252.0571
Target enthalpy (eV/cell)    -9251.8363

                     ====================================
                        Begin Broyden opt. move =     74
                     ====================================

outcell: Unit cell vectors (Ang):
       14.278344    0.000000    0.000000
        0.000000   19.152444    0.000000
        0.000000    0.000000   11.202686

outcell: Cell vector modules (Ang)   :   14.278344   19.152444   11.202686
outcell: Cell angles (23,13,12) (deg):     90.0000     90.0000     90.0000
outcell: Cell volume (Ang**3)        :   3063.5446
<dSpData1D:S at geom step 74
  <sparsity:sparsity for geom step 74
    nrows_g=297 nrows=18 sparsity=.0492 nnzs=4338, refcount: 8>
  <dData1D:(new from dSpData1D) n=4338, refcount: 1>
refcount: 1>
new_DM -- step:    75
Re-using DM from previous geometries...
Number of DMs in history: 1
 DM extrapolation coefficients: 
1   1.00000
New DM after history re-use:
<dSpData2D:SpM extrapolated using coords
  <sparsity:sparsity for geom step 74
    nrows_g=297 nrows=18 sparsity=.0492 nnzs=4338, refcount: 10>
  <dData2D:(temp array for extrapolation) n=4338 m=8, refcount: 1>
refcount: 1>
     spin moment: {S} , |S| = {   -0.00000   -0.00000   -0.00000 }     0.00000

InitMesh: MESH = 150 x 200 x 120 = 3600000
InitMesh: Mesh cutoff (required, used) =   300.000   301.379 Ry
New grid distribution [1]: sub = 2
New grid distribution [2]: sub = 2
New grid distribution [3]: sub = 2
Setting up quadratic distribution...

        iscf     Eharris(eV)        E_KS(eV)     FreeEng(eV)     dDmax    Ef(eV) dHmax(eV)
   scf:    1    -9251.835752    -9251.836246    -9251.836246  0.000037 -4.226752  0.001378
     spin moment: {S} , |S| = {   -0.00000   -0.00000   -0.00000 }     0.00000
   scf:    2    -9251.836243    -9251.836245    -9251.836245  0.000052 -4.227314  0.003721
     spin moment: {S} , |S| = {   -0.00000   -0.00000   -0.00000 }     0.00000
   scf:    3    -9251.836247    -9251.836247    -9251.836247  0.000038 -4.226913  0.000225
     spin moment: {S} , |S| = {   -0.00000   -0.00000   -0.00000 }     0.00000
   scf:    4    -9251.836247    -9251.836247    -9251.836247  0.000001 -4.226919  0.000116
     spin moment: {S} , |S| = {   -0.00000   -0.00000   -0.00000 }     0.00000
   scf:    5    -9251.836247    -9251.836247    -9251.836247  0.000001 -4.226920  0.000017
     spin moment: {S} , |S| = {   -0.00000   -0.00000   -0.00000 }     0.00000
   scf:    6    -9251.836247    -9251.836247    -9251.836247  0.000000 -4.226919  0.000004
     spin moment: {S} , |S| = {   -0.00000   -0.00000   -0.00000 }     0.00000
   scf:    7    -9251.836247    -9251.836247    -9251.836247  0.000000 -4.226919  0.000001
     spin moment: {S} , |S| = {   -0.00000   -0.00000   -0.00000 }     0.00000

SCF Convergence by DM+H criterion
max |DM_out - DM_in|         :     0.0000000986
max |H_out - H_in|      (eV) :     0.0000009778
SCF cycle converged after 7 iterations

Using DM_out to compute the final energy and forces

siesta: E_KS(eV) =            -9251.8362
     spin moment: {S} , |S| = {   -0.00000   -0.00000   -0.00000 }     0.00000

siesta: Atomic forces (eV/Ang):
     1    0.006149   -0.000535   -0.004573
     2    0.002195    0.002131   -0.002839
     3    0.002123    0.001727    0.000853
     4    0.001624    0.000243    0.002251
     5    0.001170    0.000875    0.003213
     6   -0.078176   -0.027921    0.002089
     7   -0.001627    0.000763    0.001513
     8   -0.002379    0.000797    0.002429
     9   -0.002921    0.002413    0.000513
    10    0.004904    0.001125   -0.000227
    11   -0.001999    0.004984    0.000043
    12   -0.003059    0.007550    0.003898
    13   -0.002089    0.001846    0.002216
    14   -0.002992    0.005455   -0.001356
    15    0.000302    0.003249   -0.002241
    16    0.001712    0.001634   -0.002172
    17   -0.004352    0.004106   -0.004644
    18    0.002854    0.005543   -0.004381
    19   -0.000329    0.000556   -0.005015
    20    0.005774    0.002676   -0.007126
    21    0.000543    0.002645   -0.006056
    22   -0.004963   -0.000932   -0.006424
    23    0.000864    0.002857   -0.004307
    24    0.001259    0.002553   -0.001497
    25   -0.005905    0.006963    0.000792
    26    0.003408    0.002583   -0.005596
    27    0.002849    0.002585   -0.004136
    28   -0.000479    0.004345   -0.001966
    29    0.003619    0.007389    0.000756
----------------------------------------
   Tot   -0.069921    0.050203   -0.043989
----------------------------------------
   Max    0.078176
   Res    0.009520    sqrt( Sum f_i^2 / 3N )
----------------------------------------
   Max    0.007550    constrained

Stress tensor Voigt[x,y,z,yz,xz,xy] (kbar):        0.27       -0.02        0.09        0.08        0.01       -0.01
(Free)E + p*V (eV/cell)    -9252.0532
Target enthalpy (eV/cell)    -9251.8362

outcoor: Relaxed atomic coordinates (Ang):                  
    6.50278492   -4.91500136    1.98004353   1       1  H
    5.80354574   -4.25181881    1.63775497   2       2  N
    4.42435427   -4.60824882    1.63913676   3       3  C
    4.22597257   -5.60926830    1.99205672   1       4  H
    3.59035905   -3.62617140    1.19982835   2       5  N
    4.53000000   -2.55300000    0.90000000   3       6  C
    4.24201085   -1.23345745    0.41246845   3       7  C
    3.11289781   -0.71698476    0.14247171   4       8  O
    5.45524791   -0.44123907    0.23727566   2       9  N
    5.32306778    0.54271968   -0.11812669   1      10  H
    6.77004691   -0.89684850    0.51320473   3      11  C
    7.83175894    0.00799846    0.29899452   2      12  N
    7.65232196    0.96316977   -0.20661210   1      13  H
    8.74622421   -0.47708245    0.53811200   1      14  H
    7.06305989   -2.16338698    0.99673200   2      15  N
    5.88339624   -2.90670693    1.16026650   3      16  C
    6.78526881    4.88574029   -1.95081415   1      17  H
    5.88359401    4.40320812   -1.70227581   2      18  N
    4.53312634    4.89369988   -1.76381626   3      19  C
    4.21654524    5.89142098   -2.12059190   1      20  H
    3.50480089    4.07664674   -1.36012082   3      21  C
    2.47666949    4.43848100   -1.41442847   1      22  H
    3.76589004    2.73709789   -0.88959299   3      23  C
    2.71888062    1.89680994   -0.52174446   2      24  N
    2.97252244    0.83350929   -0.24670356   1      25  H
    1.75960338    2.33100829   -0.59970076   1      26  H
    5.06315074    2.23313321   -0.78258948   2      27  N
    6.15494481    3.04903212   -1.16326100   3      28  C
    7.35466209    2.68064583   -1.06981838   4      29  O

siesta: Program's energy decomposition (eV):
siesta: Ebs     =     -1316.049555
siesta: Eions   =     10791.909033
siesta: Ena     =      1666.494677
siesta: Ekin    =      3452.891543
siesta: Enl(+so)=     -2266.309117
siesta: Eso(nil)=         0.000000
siesta: Edftu   =         0.000000
siesta: DEna    =       -33.762182
siesta: DUscf   =         9.463076
siesta: DUext   =         0.000000
siesta: Ex      =     -1160.009631
siesta: Ec      =      -128.695580
siesta: Exc     =     -1288.705211
siesta: EbV     =         0.000000
siesta: eta*DQ  =         0.000000
siesta: Emadel  =         0.000000
siesta: Emeta   =         0.000000
siesta: Emolmec =         0.000000
siesta: Ekinion =         0.000000
siesta: Eharris =     -9251.836247
siesta: Etot    =     -9251.836247
siesta: FreeEng =     -9251.836247

siesta: Final energy (eV):
siesta:  Band Struct. =   -1316.049555
siesta:       Kinetic =    3452.891543
siesta:       Hartree =   10628.687935
siesta:         Edftu =       0.000000
siesta:      Eso(nil) =       0.000000
siesta:    Ext. field =       0.000000
siesta:         Exch. =   -1160.009631
siesta:         Corr. =    -128.695580
siesta:     Bulk bias =       0.000000
siesta:   Exch.-corr. =   -1288.705211
siesta:  Ion-electron =  -24367.627227
siesta:       Ion-ion =    2322.916713
siesta:       Ekinion =       0.000000
siesta: D3 dispersion =       0.000000
siesta:         Total =   -9251.836247
siesta:         Fermi =      -4.226919

siesta: Atomic forces (eV/Ang):
siesta:      1    0.006149   -0.000535   -0.004573
siesta:      2    0.002195    0.002131   -0.002839
siesta:      3    0.002123    0.001727    0.000853
siesta:      4    0.001624    0.000243    0.002251
siesta:      5    0.001170    0.000875    0.003213
siesta:      6   -0.078176   -0.027921    0.002089
siesta:      7   -0.001627    0.000763    0.001513
siesta:      8   -0.002379    0.000797    0.002429
siesta:      9   -0.002921    0.002413    0.000513
siesta:     10    0.004904    0.001125   -0.000227
siesta:     11   -0.001999    0.004984    0.000043
siesta:     12   -0.003059    0.007550    0.003898
siesta:     13   -0.002089    0.001846    0.002216
siesta:     14   -0.002992    0.005455   -0.001356
siesta:     15    0.000302    0.003249   -0.002241
siesta:     16    0.001712    0.001634   -0.002172
siesta:     17   -0.004352    0.004106   -0.004644
siesta:     18    0.002854    0.005543   -0.004381
siesta:     19   -0.000329    0.000556   -0.005015
siesta:     20    0.005774    0.002676   -0.007126
siesta:     21    0.000543    0.002645   -0.006056
siesta:     22   -0.004963   -0.000932   -0.006424
siesta:     23    0.000864    0.002857   -0.004307
siesta:     24    0.001259    0.002553   -0.001497
siesta:     25   -0.005905    0.006963    0.000792
siesta:     26    0.003408    0.002583   -0.005596
siesta:     27    0.002849    0.002585   -0.004136
siesta:     28   -0.000479    0.004345   -0.001966
siesta:     29    0.003619    0.007389    0.000756
siesta: ----------------------------------------
siesta:    Tot   -0.069921    0.050203   -0.043989

siesta: Stress tensor (static) (eV/Ang**3):
siesta:     0.000166   -0.000006    0.000005
siesta:    -0.000006   -0.000010    0.000048
siesta:     0.000005    0.000048    0.000056

siesta: Cell volume =       3063.544587 Ang**3

siesta: Pressure (static):
siesta:                Solid            Molecule  Units
siesta:          -0.00000077         -0.00000106  Ry/Bohr**3
siesta:          -0.00007083         -0.00009756  eV/Ang**3
siesta:          -0.11348599         -0.15631214  kBar
(Free)E+ p_basis*V_orbitals  =       -9241.585932
(Free)Eharris+ p_basis*V_orbitals  =       -9241.585932
     spin moment: {S} , |S| = {   -0.00000   -0.00000   -0.00000 }     0.00000

siesta: Electric dipole (a.u.)  =    0.348004    1.711632   -0.432929
siesta: Electric dipole (Debye) =    0.884537    4.350534   -1.100395

cite: Please see "GC.bib" for an exhaustive BiBTeX file.
cite: Please clearly indicate Siesta version in published work: 5.1-MaX-41-g6ad11e234
cite: This calculation has made use of the following articles
cite: which are encouraged to be cited in a published work.
        Primary SIESTA paper
          DOI: www.doi.org/10.1088/0953-8984/14/11/302
        Spin-orbit coupling (off-site approximation)
          DOI: www.doi.org/10.1088/0953-8984/24/8/086005
        ELPA library
          DOI: www.doi.org/10.1088/0953-8984/26/21/213201


>> End of run:   3-SEP-2024  13:26:52
Job completed
