Siesta Version  : v4.1.5-1-g384057250
Architecture    : gcc
Compiler version: GNU Fortran (Ubuntu 11.3.0-1ubuntu1~22.04) 11.3.0
Compiler flags  : mpifort -O2 -fPIC -ftree-vectorize -fallow-argument-mismatch
PP flags        : -DFC_HAVE_ABORT -DMPI -DSIESTA__FLOOK -DSIESTA__METIS -DSIESTA__MUMPS -DCDF -DNCDF -DNCDF_4 -DNCDF_PARALLEL -DSIESTA__MRRR -DSIESTA__ELPA
Libraries       : libncdf.a libfdict.a  -lflookall -ldl -lnetcdff -lnetcdf -lhdf5_hl -lhdf5 -lhdf5_fortran -lz -lscalapack-openmpi -lopenblas -lmetis -lzmumps -lcmumps -ldmumps -lmumps_common -lpord -lsmumps -lesmumps -lscotch -lscotcherr -fopenmp -lelpa
PARALLEL version
NetCDF support
NetCDF-4 support
NetCDF-4 MPI-IO support
METIS ordering support
Lua support

* Running on 4 nodes in parallel
>> Start of run:   4-JUL-2023  11:11:26

                           ***********************       
                           *  WELCOME TO SIESTA  *       
                           ***********************       

reinit: Reading from standard input
reinit: Dumped input in INPUT_TMP.13250
************************** Dump of input data file ****************************
SystemLabel      GC
NumberOfAtoms    29
NumberOfSpecies  4
%block ChemicalSpeciesLabel
    1    8  O
    2    7  N
    3   14  Si
    4    1  H
%endblock ChemicalSpeciesLabel
# Single point calculation
MD.TypeOfRun                CG
MD.Steps                    0
SCF.MustConverge            F # In case it does not. There can be 2 very close atoms
AtomicCoordinatesFormat NotScaledCartesianAng
%block AtomicCoordinatesAndAtomicSpecies
0.958671510    3.803529300    0.000000000       1
-3.038688210   0.998073330    0.000000000       2
2.066567750    1.099065770    0.000000000       2
1.029569860    -1.834680850   0.000000000       2
-2.108567660   -1.881798240   0.000000000       2
3.912411070    -1.180894430   0.000000000       2
-1.235636790   1.044983000    0.000000000       3
-0.501909240   -1.031832280   0.000000000       3
0.629463280    2.232755840    0.000000000       3
2.280054370    -0.658293540   0.000000000       3
-3.424812990   -0.662324160   0.000000000       3
2.965974160    1.682263990    0.000000000       4
-4.796229390   -1.238728480   0.000000000       4
4.096559410    -2.214148760   0.000000000       4
4.792108680    -0.529147250   0.000000000       4
-2.266861300   -2.922393730   0.000000000       4
5.218123121    5.431781466    0.000000000       3
7.143600871    6.623410796    0.000000000       3
6.678794481    2.697227096    0.000000000       3
8.749974401    5.144273686    0.000000000       3
5.320407661    3.722426776    0.000000000       2
3.638745031    6.102010956    0.000000000       2
8.331864381    3.412390776    0.000000000       2
7.452091691    8.088072156    0.000000000       4
10.241647311   5.344253146    0.000000000       4
3.454118591    7.136884686    0.000000000       4
2.746653241    5.430722226    0.000000000       4
6.668663881    1.098998576    0.000000000       1
9.108462761    2.690560576    0.000000000       4
%endblock AtomicCoordinatesAndAtomicSpecies
%include ../../../Defaults.fdf
************************** End of input data file *****************************

reinit: -----------------------------------------------------------------------
reinit: System Name: 
reinit: -----------------------------------------------------------------------
reinit: System Label: GC
reinit: -----------------------------------------------------------------------

initatom: Reading input for the pseudopotentials and atomic orbitals ----------
Species number:   1 Atomic number:    8 Label: O
Species number:   2 Atomic number:    7 Label: N
Species number:   3 Atomic number:   14 Label: Si
Species number:   4 Atomic number:    1 Label: H

Ground state valence configuration:   2s02  2p04
Reading pseudopotential information in formatted form from O.psf

Pseudopotential generated from a relativistic atomic calculation

Valence configuration for pseudopotential generation:
2s( 2.00) rc: 0.45
2p( 4.00) rc: 0.92
3d( 0.00) rc: 2.24
4f( 0.00) rc: 0.25
Ground state valence configuration:   2s02  2p03
Reading pseudopotential information in formatted form from N.psf

Pseudopotential generated from a relativistic atomic calculation

Valence configuration for pseudopotential generation:
2s( 2.00) rc: 0.94
2p( 3.00) rc: 0.59
3d( 0.00) rc: 3.46
4f( 0.00) rc: 2.47
Ground state valence configuration:   3s02  3p02
Reading pseudopotential information in formatted form from Si.psf

Pseudopotential generated from a relativistic atomic calculation

Valence configuration for pseudopotential generation:
3s( 2.00) rc: 1.67
3p( 2.00) rc: 2.04
3d( 0.00) rc: 2.89
4f( 0.00) rc: 2.49
Ground state valence configuration:   1s01
Reading pseudopotential information in formatted form from H.psf

Pseudopotential generated from a relativistic atomic calculation

Valence configuration for pseudopotential generation:
1s( 1.00) rc: 0.01
2p( 0.00) rc: 0.60
3d( 0.00) rc: 1.99
4f( 0.00) rc: 2.49
For O, standard SIESTA heuristics set lmxkb to 3
 (one more than the basis l, including polarization orbitals).
Use PS.lmax or PS.KBprojectors blocks to override.
For N, standard SIESTA heuristics set lmxkb to 3
 (one more than the basis l, including polarization orbitals).
Use PS.lmax or PS.KBprojectors blocks to override.
For Si, standard SIESTA heuristics set lmxkb to 3
 (one more than the basis l, including polarization orbitals).
Use PS.lmax or PS.KBprojectors blocks to override.
For H, standard SIESTA heuristics set lmxkb to 2
 (one more than the basis l, including polarization orbitals).
Use PS.lmax or PS.KBprojectors blocks to override.

<basis_specs>
===============================================================================
O                    Z=   8    Mass=  16.000        Charge= 0.17977+309
Lmxo=1 Lmxkb= 3    BasisType=split      Semic=F
L=0  Nsemic=0  Cnfigmx=2
          i=1  nzeta=2  polorb=0  (2s)
            splnorm:   0.28000    
               vcte:    0.0000    
               rinn:    0.0000    
               qcoe:    0.0000    
               qyuk:    0.0000    
               qwid:   0.10000E-01
                rcs:    0.0000      0.0000    
            lambdas:    1.0000      1.0000    
L=1  Nsemic=0  Cnfigmx=2
          i=1  nzeta=2  polorb=1  (2p)
            splnorm:   0.28000    
               vcte:    0.0000    
               rinn:    0.0000    
               qcoe:    0.0000    
               qyuk:    0.0000    
               qwid:   0.10000E-01
                rcs:    0.0000      0.0000    
            lambdas:    1.0000      1.0000    
-------------------------------------------------------------------------------
L=0  Nkbl=1  erefs: 0.17977+309
L=1  Nkbl=1  erefs: 0.17977+309
L=2  Nkbl=1  erefs: 0.17977+309
L=3  Nkbl=1  erefs: 0.17977+309
===============================================================================
</basis_specs>

atom: Called for O                     (Z =   8)

read_vps: Pseudopotential generation method:
read_vps: ATM4.2.7  Troullier-Martins                       
Valence charge for ps generation:    6.00000

xc_check: Exchange-correlation functional:
xc_check: GGA Perdew, Burke & Ernzerhof 1996
V l=0 = -2*Zval/r beyond r=  1.1000
V l=1 = -2*Zval/r beyond r=  1.1000
V l=2 = -2*Zval/r beyond r=  2.2154
V l=3 = -2*Zval/r beyond r=  1.1000
All V_l potentials equal beyond r=  2.2154
This should be close to max(r_c) in ps generation
All pots = -2*Zval/r beyond r=  2.2154

VLOCAL1: 99.0% of the norm of Vloc inside      8.845 Ry
VLOCAL1: 99.9% of the norm of Vloc inside     20.157 Ry
atom: Maximum radius for 4*pi*r*r*local-pseudopot. charge    2.67231
atom: Maximum radius for r*vlocal+2*Zval:    2.32897
GHOST: No ghost state for L =  0
GHOST: No ghost state for L =  1
GHOST: No ghost state for L =  2
GHOST: No ghost state for L =  3

KBgen: Kleinman-Bylander projectors: 
   l= 0   rc=  2.243238   el= -1.759686   Ekb=**********   kbcos= -0.171774
   l= 1   rc=  2.328968   el= -0.663873   Ekb=-14.506792   kbcos= -0.519897
   l= 2   rc=  2.573941   el=  0.002031   Ekb= -1.137373   kbcos= -0.019581
   l= 3   rc=  2.606321   el=  0.003153   Ekb= -1.013546   kbcos= -0.003122

KBgen: Total number of Kleinman-Bylander projectors:   16
atom: -------------------------------------------------------------------------

atom: SANKEY-TYPE ORBITALS:
atom: Selected multiple-zeta basis: split     

SPLIT: Orbitals with angular momentum L= 0

SPLIT: Basis orbitals for state 2s

SPLIT: PAO cut-off radius determined from an
SPLIT: energy shift=  0.002000 Ry

   izeta = 1
                 lambda =    1.000000
                     rc =    4.243912
                 energy =   -1.758270
                kinetic =    3.286084
    potential(screened) =   -5.044353
       potential(ionic) =  -12.921184

   izeta = 2
                 rmatch =    2.187845
              splitnorm =    0.280000
                 energy =   -0.885018
                kinetic =    8.134434
    potential(screened) =   -9.019452
       potential(ionic) =  -17.710645

SPLIT: Orbitals with angular momentum L= 1

SPLIT: Basis orbitals for state 2p

SPLIT: PAO cut-off radius determined from an
SPLIT: energy shift=  0.002000 Ry

   izeta = 1
                 lambda =    1.000000
                     rc =    5.314825
                 energy =   -0.661986
                kinetic =    4.917472
    potential(screened) =   -5.579458
       potential(ionic) =  -13.236259

   izeta = 2
                 rmatch =    2.160663
              splitnorm =    0.280000
                 energy =   -0.068760
                kinetic =    9.183374
    potential(screened) =   -9.252135
       potential(ionic) =  -18.274251

POLgen: Perturbative polarization orbital with L=  2

POLgen: Polarization orbital for state 2p

   izeta = 1
                     rc =    5.314825
                 energy =    1.970580
                kinetic =    3.886128
    potential(screened) =   -1.915547
       potential(ionic) =   -7.749584
atom: Total number of Sankey-type orbitals: 13

atm_pop: Valence configuration (for local Pseudopot. screening):
 2s( 2.00)                                                            
 2p( 4.00)                                                            
Vna: chval, zval:    6.00000   6.00000

Vna:  Cut-off radius for the neutral-atom potential:   5.314825

atom: _________________________________________________________________________

<basis_specs>
===============================================================================
N                    Z=   7    Mass=  14.010        Charge= 0.17977+309
Lmxo=1 Lmxkb= 3    BasisType=split      Semic=F
L=0  Nsemic=0  Cnfigmx=2
          i=1  nzeta=2  polorb=0  (2s)
            splnorm:   0.28000    
               vcte:    0.0000    
               rinn:    0.0000    
               qcoe:    0.0000    
               qyuk:    0.0000    
               qwid:   0.10000E-01
                rcs:    0.0000      0.0000    
            lambdas:    1.0000      1.0000    
L=1  Nsemic=0  Cnfigmx=2
          i=1  nzeta=2  polorb=1  (2p)
            splnorm:   0.28000    
               vcte:    0.0000    
               rinn:    0.0000    
               qcoe:    0.0000    
               qyuk:    0.0000    
               qwid:   0.10000E-01
                rcs:    0.0000      0.0000    
            lambdas:    1.0000      1.0000    
-------------------------------------------------------------------------------
L=0  Nkbl=1  erefs: 0.17977+309
L=1  Nkbl=1  erefs: 0.17977+309
L=2  Nkbl=1  erefs: 0.17977+309
L=3  Nkbl=1  erefs: 0.17977+309
===============================================================================
</basis_specs>

atom: Called for N                     (Z =   7)

read_vps: Pseudopotential generation method:
read_vps: ATM4.2.7  Troullier-Martins                       
Valence charge for ps generation:    5.00000

xc_check: Exchange-correlation functional:
xc_check: GGA Perdew, Burke & Ernzerhof 1996
V l=0 = -2*Zval/r beyond r=  1.2889
V l=1 = -2*Zval/r beyond r=  1.2889
V l=2 = -2*Zval/r beyond r=  3.4178
V l=3 = -2*Zval/r beyond r=  2.4084
All V_l potentials equal beyond r=  3.3753
This should be close to max(r_c) in ps generation
All pots = -2*Zval/r beyond r=  3.4178

VLOCAL1: 99.0% of the norm of Vloc inside      3.810 Ry
VLOCAL1: 99.9% of the norm of Vloc inside      8.683 Ry
atom: Maximum radius for 4*pi*r*r*local-pseudopot. charge    4.02088
atom: Maximum radius for r*vlocal+2*Zval:    3.54838
GHOST: No ghost state for L =  0
GHOST: No ghost state for L =  1
GHOST: No ghost state for L =  2
GHOST: No ghost state for L =  3

KBgen: Kleinman-Bylander projectors: 
   l= 0   rc=  3.417763   el= -1.365098   Ekb= -4.433130   kbcos= -0.707855
   l= 1   rc=  3.375302   el= -0.521201   Ekb=-13.264039   kbcos= -0.535594
   l= 2   rc=  3.872880   el=  0.001991   Ekb= -0.641094   kbcos= -0.062456
   l= 3   rc=  3.970931   el=  0.003093   Ekb= -0.474517   kbcos= -0.018236

KBgen: Total number of Kleinman-Bylander projectors:   16
atom: -------------------------------------------------------------------------

atom: SANKEY-TYPE ORBITALS:
atom: Selected multiple-zeta basis: split     

SPLIT: Orbitals with angular momentum L= 0

SPLIT: Basis orbitals for state 2s

SPLIT: PAO cut-off radius determined from an
SPLIT: energy shift=  0.002000 Ry

   izeta = 1
                 lambda =    1.000000
                     rc =    4.730425
                 energy =   -1.363399
                kinetic =    1.245246
    potential(screened) =   -2.608645
       potential(ionic) =   -8.121105

   izeta = 2
                 rmatch =    2.531849
              splitnorm =    0.280000
                 energy =   -0.959908
                kinetic =    2.409435
    potential(screened) =   -3.369343
       potential(ionic) =   -9.427975

SPLIT: Orbitals with angular momentum L= 1

SPLIT: Basis orbitals for state 2p

SPLIT: PAO cut-off radius determined from an
SPLIT: energy shift=  0.002000 Ry

   izeta = 1
                 lambda =    1.000000
                     rc =    5.924108
                 energy =   -0.519262
                kinetic =    3.672940
    potential(screened) =   -4.192202
       potential(ionic) =   -9.518354

   izeta = 2
                 rmatch =    2.531849
              splitnorm =    0.280000
                 energy =   -0.104258
                kinetic =    6.807538
    potential(screened) =   -6.911796
       potential(ionic) =  -13.149920

POLgen: Perturbative polarization orbital with L=  2

POLgen: Polarization orbital for state 2p

   izeta = 1
                     rc =    5.924108
                 energy =    1.427508
                kinetic =    2.872379
    potential(screened) =   -1.444871
       potential(ionic) =   -5.563644
atom: Total number of Sankey-type orbitals: 13

atm_pop: Valence configuration (for local Pseudopot. screening):
 2s( 2.00)                                                            
 2p( 3.00)                                                            
Vna: chval, zval:    5.00000   5.00000

Vna:  Cut-off radius for the neutral-atom potential:   5.924108

atom: _________________________________________________________________________

<basis_specs>
===============================================================================
Si                   Z=  14    Mass=  28.090        Charge= 0.17977+309
Lmxo=1 Lmxkb= 3    BasisType=split      Semic=F
L=0  Nsemic=0  Cnfigmx=3
          i=1  nzeta=2  polorb=0  (3s)
            splnorm:   0.28000    
               vcte:    0.0000    
               rinn:    0.0000    
               qcoe:    0.0000    
               qyuk:    0.0000    
               qwid:   0.10000E-01
                rcs:    0.0000      0.0000    
            lambdas:    1.0000      1.0000    
L=1  Nsemic=0  Cnfigmx=3
          i=1  nzeta=2  polorb=1  (3p)
            splnorm:   0.28000    
               vcte:    0.0000    
               rinn:    0.0000    
               qcoe:    0.0000    
               qyuk:    0.0000    
               qwid:   0.10000E-01
                rcs:    0.0000      0.0000    
            lambdas:    1.0000      1.0000    
-------------------------------------------------------------------------------
L=0  Nkbl=1  erefs: 0.17977+309
L=1  Nkbl=1  erefs: 0.17977+309
L=2  Nkbl=1  erefs: 0.17977+309
L=3  Nkbl=1  erefs: 0.17977+309
===============================================================================
</basis_specs>

atom: Called for Si                    (Z =  14)

read_vps: Pseudopotential generation method:
read_vps: ATM4.2.7  Troullier-Martins                       
Valence charge for ps generation:    4.00000

xc_check: Exchange-correlation functional:
xc_check: GGA Perdew, Burke & Ernzerhof 1996
V l=0 = -2*Zval/r beyond r=  2.7826
V l=1 = -2*Zval/r beyond r=  2.7826
V l=2 = -2*Zval/r beyond r=  2.9253
V l=3 = -2*Zval/r beyond r=  2.7826
All V_l potentials equal beyond r=  2.8530
This should be close to max(r_c) in ps generation
All pots = -2*Zval/r beyond r=  2.9253

VLOCAL1: 99.0% of the norm of Vloc inside      5.333 Ry
VLOCAL1: 99.9% of the norm of Vloc inside     12.154 Ry
atom: Maximum radius for 4*pi*r*r*local-pseudopot. charge    3.39869
atom: Maximum radius for r*vlocal+2*Zval:    2.96205
GHOST: No ghost state for L =  0
GHOST: No ghost state for L =  1
GHOST: No ghost state for L =  2
GHOST: No ghost state for L =  3

KBgen: Kleinman-Bylander projectors: 
   l= 0   rc=  3.075247   el= -0.794092   Ekb=  5.879390   kbcos=  0.167461
   l= 1   rc=  3.153101   el= -0.300068   Ekb=  2.642817   kbcos=  0.058301
   l= 2   rc=  3.273594   el=  0.001958   Ekb= -1.185135   kbcos= -0.104411
   l= 3   rc=  3.232927   el=  0.003046   Ekb= -0.497174   kbcos= -0.015889

KBgen: Total number of Kleinman-Bylander projectors:   16
atom: -------------------------------------------------------------------------

atom: SANKEY-TYPE ORBITALS:
atom: Selected multiple-zeta basis: split     

SPLIT: Orbitals with angular momentum L= 0

SPLIT: Basis orbitals for state 3s

SPLIT: PAO cut-off radius determined from an
SPLIT: energy shift=  0.002000 Ry

   izeta = 1
                 lambda =    1.000000
                     rc =    6.429618
                 energy =   -0.792283
                kinetic =    0.525293
    potential(screened) =   -1.317576
       potential(ionic) =   -3.744923

   izeta = 2
                 rmatch =    3.998416
              splitnorm =    0.280000
                 energy =   -0.583081
                kinetic =    1.069570
    potential(screened) =   -1.652651
       potential(ionic) =   -4.235185

SPLIT: Orbitals with angular momentum L= 1

SPLIT: Basis orbitals for state 3p

SPLIT: PAO cut-off radius determined from an
SPLIT: energy shift=  0.002000 Ry

   izeta = 1
                 lambda =    1.000000
                     rc =    8.464845
                 energy =   -0.298236
                kinetic =    0.785360
    potential(screened) =   -1.083596
       potential(ionic) =   -3.273779

   izeta = 2
                 rmatch =    4.587816
              splitnorm =    0.280000
                 energy =   -0.131871
                kinetic =    1.403687
    potential(screened) =   -1.535557
       potential(ionic) =   -4.015310

POLgen: Perturbative polarization orbital with L=  2

POLgen: Polarization orbital for state 3p

   izeta = 1
                     rc =    8.464845
                 energy =    0.321949
                kinetic =    1.055677
    potential(screened) =   -0.733728
       potential(ionic) =   -2.672950
atom: Total number of Sankey-type orbitals: 13

atm_pop: Valence configuration (for local Pseudopot. screening):
 3s( 2.00)                                                            
 3p( 2.00)                                                            
Vna: chval, zval:    4.00000   4.00000

Vna:  Cut-off radius for the neutral-atom potential:   8.464845

atom: _________________________________________________________________________

<basis_specs>
===============================================================================
H                    Z=   1    Mass=  1.0100        Charge= 0.17977+309
Lmxo=0 Lmxkb= 2    BasisType=split      Semic=F
L=0  Nsemic=0  Cnfigmx=1
          i=1  nzeta=2  polorb=1  (1s)
            splnorm:   0.62000    
               vcte:    0.0000    
               rinn:    0.0000    
               qcoe:    0.0000    
               qyuk:    0.0000    
               qwid:   0.10000E-01
                rcs:    0.0000      0.0000    
            lambdas:    1.0000      1.0000    
-------------------------------------------------------------------------------
L=0  Nkbl=1  erefs: 0.17977+309
L=1  Nkbl=1  erefs: 0.17977+309
L=2  Nkbl=1  erefs: 0.17977+309
===============================================================================
</basis_specs>

atom: Called for H                     (Z =   1)

read_vps: Pseudopotential generation method:
read_vps: ATM4.2.7  Troullier-Martins                       
Valence charge for ps generation:    1.00000

xc_check: Exchange-correlation functional:
xc_check: GGA Perdew, Burke & Ernzerhof 1996
V l=0 = -2*Zval/r beyond r=  0.0098
V l=1 = -2*Zval/r beyond r=  0.5817
V l=2 = -2*Zval/r beyond r=  1.9372
All V_l potentials equal beyond r=  1.9372
This should be close to max(r_c) in ps generation
All pots = -2*Zval/r beyond r=  1.9372

VLOCAL1: 99.0% of the norm of Vloc inside     11.567 Ry
VLOCAL1: 99.9% of the norm of Vloc inside     26.362 Ry
atom: Maximum radius for 4*pi*r*r*local-pseudopot. charge    2.25106
atom: Maximum radius for r*vlocal+2*Zval:    1.91306
GHOST: No ghost state for L =  0
GHOST: No ghost state for L =  1
GHOST: No ghost state for L =  2

KBgen: Kleinman-Bylander projectors: 
   l= 0   rc=  2.036604   el= -0.477180   Ekb= -6.081590   kbcos= -0.277285
   l= 1   rc=  2.195416   el=  0.001076   Ekb= -0.926943   kbcos= -0.034643
   l= 2   rc=  2.251056   el=  0.002010   Ekb= -0.130941   kbcos= -0.009788

KBgen: Total number of Kleinman-Bylander projectors:    9
atom: -------------------------------------------------------------------------

atom: SANKEY-TYPE ORBITALS:
atom: Selected multiple-zeta basis: split     

SPLIT: Orbitals with angular momentum L= 0

SPLIT: Basis orbitals for state 1s

SPLIT: PAO cut-off radius determined from an
SPLIT: energy shift=  0.002000 Ry

   izeta = 1
                 lambda =    1.000000
                     rc =    6.518340
                 energy =   -0.475305
                kinetic =    0.912139
    potential(screened) =   -1.387444
       potential(ionic) =   -1.907295

   izeta = 2
                 rmatch =    2.141150
              splitnorm =    0.620000
                 energy =    0.566467
                kinetic =    3.772856
    potential(screened) =   -3.206389
       potential(ionic) =   -3.759093

POLgen: Perturbative polarization orbital with L=  1

POLgen: Polarization orbital for state 1s

   izeta = 1
                     rc =    6.518340
                 energy =    0.533861
                kinetic =    1.121086
    potential(screened) =   -0.587225
       potential(ionic) =   -1.053027
atom: Total number of Sankey-type orbitals:  5

atm_pop: Valence configuration (for local Pseudopot. screening):
 1s( 1.00)                                                            
Vna: chval, zval:    1.00000   1.00000

Vna:  Cut-off radius for the neutral-atom potential:   6.518340

atom: _________________________________________________________________________

prinput: Basis input ----------------------------------------------------------

PAO.BasisType split     

%block ChemicalSpeciesLabel
    1    8 O                       # Species index, atomic number, species label
    2    7 N                       # Species index, atomic number, species label
    3   14 Si                      # Species index, atomic number, species label
    4    1 H                       # Species index, atomic number, species label
%endblock ChemicalSpeciesLabel

%block PAO.Basis                 # Define Basis set
O                     2                    # Species label, number of l-shells
 n=2   0   2                         # n, l, Nzeta 
   4.244      2.188   
   1.000      1.000   
 n=2   1   2 P   1                   # n, l, Nzeta, Polarization, NzetaPol
   5.315      2.161   
   1.000      1.000   
N                     2                    # Species label, number of l-shells
 n=2   0   2                         # n, l, Nzeta 
   4.730      2.532   
   1.000      1.000   
 n=2   1   2 P   1                   # n, l, Nzeta, Polarization, NzetaPol
   5.924      2.532   
   1.000      1.000   
Si                    2                    # Species label, number of l-shells
 n=3   0   2                         # n, l, Nzeta 
   6.430      3.998   
   1.000      1.000   
 n=3   1   2 P   1                   # n, l, Nzeta, Polarization, NzetaPol
   8.465      4.588   
   1.000      1.000   
H                     1                    # Species label, number of l-shells
 n=1   0   2 P   1                   # n, l, Nzeta, Polarization, NzetaPol
   6.518      2.141   
   1.000      1.000   
%endblock PAO.Basis

prinput: ----------------------------------------------------------------------

Dumping basis to NetCDF file O.ion.nc
Dumping basis to NetCDF file N.ion.nc
Dumping basis to NetCDF file Si.ion.nc
Dumping basis to NetCDF file H.ion.nc
coor:   Atomic-coordinates input format  =     Cartesian coordinates
coor:                                          (in Angstroms)

siesta: Atomic coordinates (Bohr) and species
siesta:      1.81163   7.18763   0.00000  1        1
siesta:     -5.74229   1.88609   0.00000  2        2
siesta:      3.90525   2.07693   0.00000  2        3
siesta:      1.94561  -3.46705   0.00000  2        4
siesta:     -3.98462  -3.55608   0.00000  2        5
siesta:      7.39339  -2.23157   0.00000  2        6
siesta:     -2.33502   1.97473   0.00000  3        7
siesta:     -0.94847  -1.94988   0.00000  3        8
siesta:      1.18951   4.21930   0.00000  3        9
siesta:      4.30868  -1.24399   0.00000  3       10
siesta:     -6.47196  -1.25161   0.00000  3       11
siesta:      5.60488   3.17902   0.00000  4       12
siesta:     -9.06356  -2.34086   0.00000  4       13
siesta:      7.74138  -4.18414   0.00000  4       14
siesta:      9.05578  -0.99994   0.00000  4       15
siesta:     -4.28375  -5.52253   0.00000  4       16
siesta:      9.86083  10.26458   0.00000  3       17
siesta:     13.49945  12.51644   0.00000  3       18
siesta:     12.62110   5.09702   0.00000  3       19
siesta:     16.53506   9.72127   0.00000  3       20
siesta:     10.05412   7.03437   0.00000  2       21
siesta:      6.87623  11.53113   0.00000  2       22
siesta:     15.74495   6.44849   0.00000  2       23
siesta:     14.08242  15.28425   0.00000  4       24
siesta:     19.35392  10.09918   0.00000  4       25
siesta:      6.52734  13.48676   0.00000  4       26
siesta:      5.19042  10.26258   0.00000  4       27
siesta:     12.60195   2.07681   0.00000  1       28
siesta:     17.21251   5.08442   0.00000  4       29

siesta: Automatic unit cell vectors (Ang):
siesta:   24.130247    0.000000    0.000000
siesta:    0.000000   19.700095    0.000000
siesta:    0.000000    0.000000    9.854683

siesta: System type = molecule  

initatomlists: Number of atoms, orbitals, and projectors:     29   297   394

siesta: ******************** Simulation parameters ****************************
siesta:
siesta: The following are some of the parameters of the simulation.
siesta: A complete list of the parameters used, including default values,
siesta: can be found in file out.fdf
siesta:
redata: Spin configuration                          = spin-orbit
redata: Number of spin components                   = 8
redata: Time-Reversal Symmetry                      = F
redata: Spin spiral                                 = F
############################################################
This spin-orbit implementation uses a local approximation.
From 4.2 and onwards the full non-local approximation is implemented
You are strongly advised to use >=4.2 versions!
############################################################
redata: Long output                                 =   F
redata: Number of Atomic Species                    =        4
redata: Charge density info will appear in .RHO file
redata: Write Mulliken Pop.                         = Atomic and Orbital charges
redata: Matel table size (NRTAB)                    =     1024
redata: Mesh Cutoff                                 =   340.0000 Ry
redata: Net charge of the system                    =     0.0000 |e|
redata: Min. number of SCF Iter                     =        1
redata: Max. number of SCF Iter                     =      200
redata: SCF mix quantity                            = Hamiltonian
redata: Mix DM or H after convergence               =   F
redata: Recompute H after scf cycle                 =   F
redata: Mix DM in first SCF step                    =   T
redata: Write Pulay info on disk                    =   F
redata: New DM Occupancy tolerance                  = 0.000000000001
redata: No kicks to SCF
redata: DM Mixing Weight for Kicks                  =     0.5000
redata: Require Harris convergence for SCF          =   F
redata: Harris energy tolerance for SCF             =     0.000100 eV
redata: Require DM convergence for SCF              =   T
redata: DM tolerance for SCF                        =     0.000008
redata: Require EDM convergence for SCF             =   F
redata: EDM tolerance for SCF                       =     0.001000 eV
redata: Require H convergence for SCF               =   T
redata: Hamiltonian tolerance for SCF               =     0.000001 eV
redata: Require (free) Energy convergence for SCF   =   F
redata: (free) Energy tolerance for SCF             =     0.000100 eV
redata: Using Saved Data (generic)                  =   F
redata: Use continuation files for DM               =   F
redata: Neglect nonoverlap interactions             =   F
redata: Method of Calculation                       = Diagonalization
redata: Electronic Temperature                      =   299.9978 K
redata: Fix the spin of the system                  =   F
redata: Dynamics option                             = Single-point calculation
mix.SCF: Pulay mixing                            = Pulay
mix.SCF:    Variant                              = stable
mix.SCF:    History steps                        = 6
mix.SCF:    Linear mixing weight                 =     0.250000
mix.SCF:    Mixing weight                        =     0.250000
mix.SCF:    SVD condition                        = 0.1000E-07
mix.SCF:    Restart steps                        = 24
mix.SCF:    Restart save steps                   = 3
mix.SCF: Spin-component mixing                   all
redata: Save all siesta data in one NC              =   F
redata: ***********************************************************************

%block SCF.Mixers
  Pulay
%endblock SCF.Mixers

%block SCF.Mixer.Pulay
  # Mixing method
  method pulay
  variant stable

  # Mixing options
  weight 0.2500
  weight.linear 0.2500
  history 6
  restart 24
  restart.save 3
%endblock SCF.Mixer.Pulay

DM_history_depth set to one: no extrapolation allowed by default for geometry relaxation
Size of DM history Fstack: 1
Total number of electrons:    98.000000
Total ionic charge:    98.000000

* ProcessorY, Blocksize:    2  24


* Orbital distribution balance (max,min):    81    72


Time-reversal symmetry not used.

siesta: k-grid: Number of k-points =     1
siesta: k-grid: Cutoff (effective) =     4.927 Ang
siesta: k-grid: Supercell and displacements
siesta: k-grid:    1   0   0      0.000
siesta: k-grid:    0   1   0      0.000
siesta: k-grid:    0   0   1      0.000

diag: Algorithm                                     = ELPA-1stage
diag: Parallel over k                               =   F
diag: Use parallel 2D distribution                  =   T
diag: Parallel block-size                           = 24
diag: Parallel distribution                         =     2 x     2
diag: Used triangular part                          = Lower
diag: Absolute tolerance                            =  0.100E-15
diag: Orthogonalization factor                      =  0.100E-05
diag: Memory factor                                 =  1.0000


ts: **************************************************************
ts: Save H and S matrices                           =    F
ts: Save DM and EDM matrices                        =    F
ts: Only save the overlap matrix S                  =    F
ts: **************************************************************

************************ Begin: TS CHECKS AND WARNINGS ************************
************************ End: TS CHECKS AND WARNINGS **************************


                     ====================================
                        Single-point calculation
                     ====================================

outcoor: Atomic coordinates (Ang):                          
    0.95867151    3.80352930    0.00000000   1       1  O
   -3.03868821    0.99807333    0.00000000   2       2  N
    2.06656775    1.09906577    0.00000000   2       3  N
    1.02956986   -1.83468085    0.00000000   2       4  N
   -2.10856766   -1.88179824    0.00000000   2       5  N
    3.91241107   -1.18089443    0.00000000   2       6  N
   -1.23563679    1.04498300    0.00000000   3       7  Si
   -0.50190924   -1.03183228    0.00000000   3       8  Si
    0.62946328    2.23275584    0.00000000   3       9  Si
    2.28005437   -0.65829354    0.00000000   3      10  Si
   -3.42481299   -0.66232416    0.00000000   3      11  Si
    2.96597416    1.68226399    0.00000000   4      12  H
   -4.79622939   -1.23872848    0.00000000   4      13  H
    4.09655941   -2.21414876    0.00000000   4      14  H
    4.79210868   -0.52914725    0.00000000   4      15  H
   -2.26686130   -2.92239373    0.00000000   4      16  H
    5.21812312    5.43178147    0.00000000   3      17  Si
    7.14360087    6.62341080    0.00000000   3      18  Si
    6.67879448    2.69722710    0.00000000   3      19  Si
    8.74997440    5.14427369    0.00000000   3      20  Si
    5.32040766    3.72242678    0.00000000   2      21  N
    3.63874503    6.10201096    0.00000000   2      22  N
    8.33186438    3.41239078    0.00000000   2      23  N
    7.45209169    8.08807216    0.00000000   4      24  H
   10.24164731    5.34425315    0.00000000   4      25  H
    3.45411859    7.13688469    0.00000000   4      26  H
    2.74665324    5.43072223    0.00000000   4      27  H
    6.66866388    1.09899858    0.00000000   1      28  O
    9.10846276    2.69056058    0.00000000   4      29  H

outcell: Unit cell vectors (Ang):
       24.130247    0.000000    0.000000
        0.000000   19.700095    0.000000
        0.000000    0.000000    9.854683

outcell: Cell vector modules (Ang)   :   24.130247   19.700095    9.854683
outcell: Cell angles (23,13,12) (deg):     90.0000     90.0000     90.0000
outcell: Cell volume (Ang**3)        :   4684.6027
<dSpData1D:S at geom step 0
  <sparsity:sparsity for geom step 0
    nrows_g=297 nrows=81 sparsity=.2116 nnzs=18666, refcount: 8>
  <dData1D:(new from dSpData1D) n=18666, refcount: 1>
refcount: 1>
new_DM -- step:     1
Initializing Density Matrix...
DM filled with atomic data:
<dSpData2D:DM initialized from atoms
  <sparsity:sparsity for geom step 0
    nrows_g=297 nrows=81 sparsity=.2116 nnzs=18666, refcount: 9>
  <dData2D:DM n=18666 m=8, refcount: 1>
refcount: 1>
     spin moment: S , {S} =   56.00000   0.00000   0.00000  56.00000
No. of atoms with KB's overlaping orbs in proc 0. Max # of overlaps:      29     181

Initializing spin-orbit part of the Hamiltonian
  Adding spin-orbit effects for O 
  Adding spin-orbit effects for N 
  Adding spin-orbit effects for Si
  Adding spin-orbit effects for H 


New grid distribution:   1
           1       1:  135    1:   60    1:   30
           2       1:  135    1:   60   31:   60
           3       1:  135   61:  120    1:   30
           4       1:  135   61:  120   31:   60

InitMesh: MESH =   270 x   240 x   120 =     7776000
InitMesh: (bp) =   135 x   120 x    60 =      972000
InitMesh: Mesh cutoff (required, used) =   340.000   346.024 Ry
ExtMesh (bp) on 0 =   239 x   172 x   142 =     5837336
New grid distribution:   2
           1      36:  135    1:   30    1:   60
           2       1:   35    1:   28    1:   60
           3      36:  135   31:  120    1:   60
           4       1:   35   29:  120    1:   60
New grid distribution:   3
           1      44:  135    1:   36    1:   60
           2       1:   43    1:   41    1:   60
           3      44:  135   37:  120    1:   60
           4       1:   43   42:  120    1:   60
Setting up quadratic distribution...
ExtMesh (bp) on 0 =   204 x   142 x   172 =     4982496
PhiOnMesh: Number of (b)points on node 0 =               180000
PhiOnMesh: nlist on node 0 =              2704330

stepf: Fermi-Dirac step function

siesta: Program's energy decomposition (eV):
siesta: Ebs     =      -613.687760
siesta: Eions   =      3585.165840
siesta: Ena     =       383.126409
siesta: Ekin    =      3368.318342
siesta: Enl     =     -3297.642389
siesta: Eso     =        -0.003444
siesta: Edftu   =         0.000000
siesta: DEna    =       153.049501
siesta: DUscf   =        79.595221
siesta: DUext   =         0.000000
siesta: Exc     =     -1204.031800
siesta: eta*DQ  =         0.000000
siesta: Emadel  =         0.000000
siesta: Emeta   =         0.000000
siesta: Emolmec =         0.000000
siesta: Ekinion =         0.000000
siesta: Eharris =     -4026.625556
siesta: Etot    =     -4102.754002
siesta: FreeEng =     -4102.755694

        iscf     Eharris(eV)        E_KS(eV)     FreeEng(eV)     dDmax    Ef(eV) dHmax(eV)
   scf:    1    -4026.625556    -4102.754002    -4102.755694  0.961328 -4.901060 21.272914
     spin moment: S , {S} =    2.01043   0.00000  -0.00000   2.01043
timer: Routine,Calls,Time,% = IterSCF        1      11.931  17.00
   scf:    2    -4149.361269    -4137.555951    -4137.557591  0.450620 -4.210520 10.909639
     spin moment: S , {S} =    1.99030   0.00000  -0.00000   1.99030
   scf:    3    -4110.766439    -4134.957413    -4134.970546  0.420298 -4.277290 11.445436
     spin moment: S , {S} =    2.00021   0.00000   0.00000   2.00021
   scf:    4    -4150.518158    -4145.829736    -4145.829736  0.309013 -3.885245  6.126133
     spin moment: S , {S} =    0.00009  -0.00000  -0.00000   0.00009
   scf:    5    -4146.971681    -4146.486876    -4146.486876  0.036162 -3.683875  4.207370
     spin moment: S , {S} =    0.00006  -0.00000  -0.00000   0.00006
   scf:    6    -4147.240997    -4146.869191    -4146.869191  0.025349 -3.667563  1.997041
     spin moment: S , {S} =    0.00003   0.00000  -0.00000   0.00003
   scf:    7    -4147.202003    -4147.032783    -4147.032783  0.021205 -3.673793  0.896262
     spin moment: S , {S} =    0.00001   0.00000   0.00000   0.00001
   scf:    8    -4147.152074    -4147.090639    -4147.090639  0.012310 -3.768951  0.475132
     spin moment: S , {S} =    0.00000   0.00000   0.00000   0.00000
   scf:    9    -4147.127583    -4147.108505    -4147.108505  0.006330 -3.757571  0.340937
     spin moment: S , {S} =    0.00000   0.00000  -0.00000   0.00000
   scf:   10    -4147.158154    -4147.128642    -4147.128642  0.019268 -3.789413  0.157749
     spin moment: S , {S} =    0.00000   0.00000   0.00000  -0.00000
   scf:   11    -4147.131409    -4147.129996    -4147.129996  0.004739 -3.781257  0.046637
     spin moment: S , {S} =    0.00000  -0.00000   0.00000  -0.00000
   scf:   12    -4147.130694    -4147.130352    -4147.130352  0.001480 -3.776468  0.025091
     spin moment: S , {S} =    0.00000  -0.00000   0.00000   0.00000
   scf:   13    -4147.130733    -4147.130536    -4147.130536  0.001509 -3.774980  0.019227
     spin moment: S , {S} =    0.00000  -0.00000  -0.00000   0.00000
   scf:   14    -4147.130787    -4147.130653    -4147.130653  0.001452 -3.774028  0.015142
     spin moment: S , {S} =    0.00000  -0.00000  -0.00000   0.00000
   scf:   15    -4147.130839    -4147.130736    -4147.130736  0.001537 -3.773851  0.010340
     spin moment: S , {S} =    0.00000  -0.00000  -0.00000   0.00000
   scf:   16    -4147.130853    -4147.130785    -4147.130785  0.001516 -3.773821  0.005731
     spin moment: S , {S} =    0.00000  -0.00000   0.00000   0.00000
   scf:   17    -4147.130817    -4147.130798    -4147.130798  0.000850 -3.773791  0.003228
     spin moment: S , {S} =    0.00000  -0.00000   0.00000   0.00000
   scf:   18    -4147.130807    -4147.130801    -4147.130801  0.000454 -3.773920  0.001399
     spin moment: S , {S} =    0.00000  -0.00000   0.00000   0.00000
   scf:   19    -4147.130803    -4147.130802    -4147.130802  0.000196 -3.773953  0.000645
     spin moment: S , {S} =    0.00000  -0.00000   0.00000   0.00000
   scf:   20    -4147.130803    -4147.130802    -4147.130802  0.000060 -3.773935  0.000404
     spin moment: S , {S} =    0.00000  -0.00000   0.00000   0.00000
   scf:   21    -4147.130802    -4147.130802    -4147.130802  0.000041 -3.773925  0.000241
     spin moment: S , {S} =    0.00000  -0.00000   0.00000   0.00000
   scf:   22    -4147.130802    -4147.130802    -4147.130802  0.000013 -3.773917  0.000086
     spin moment: S , {S} =    0.00000  -0.00000   0.00000  -0.00000
   scf:   23    -4147.130802    -4147.130802    -4147.130802  0.000005 -3.773922  0.000043
     spin moment: S , {S} =    0.00000  -0.00000   0.00000  -0.00000
   scf:   24    -4147.130802    -4147.130802    -4147.130802  0.000002 -3.773921  0.000042
     spin moment: S , {S} =    0.00000  -0.00000   0.00000  -0.00000
mix: Pulay -- resetting history
   scf:   25    -4147.130802    -4147.130802    -4147.130802  0.000004 -3.773919  0.000025
     spin moment: S , {S} =    0.00000  -0.00000   0.00000  -0.00000
   scf:   26    -4147.130802    -4147.130802    -4147.130802  0.000004 -3.773916  0.000009
     spin moment: S , {S} =    0.00000  -0.00000   0.00000  -0.00000
   scf:   27    -4147.130802    -4147.130802    -4147.130802  0.000002 -3.773914  0.000005
     spin moment: S , {S} =    0.00000  -0.00000   0.00000   0.00000
   scf:   28    -4147.130802    -4147.130802    -4147.130802  0.000000 -3.773914  0.000003
     spin moment: S , {S} =    0.00000  -0.00000   0.00000   0.00000
   scf:   29    -4147.130802    -4147.130802    -4147.130802  0.000000 -3.773914  0.000002
     spin moment: S , {S} =    0.00000  -0.00000   0.00000   0.00000
   scf:   30    -4147.130802    -4147.130802    -4147.130802  0.000000 -3.773914  0.000001
     spin moment: S , {S} =    0.00000  -0.00000   0.00000   0.00000
   scf:   31    -4147.130802    -4147.130802    -4147.130802  0.000000 -3.773914  0.000000
     spin moment: S , {S} =    0.00000  -0.00000   0.00000   0.00000

SCF Convergence by DM+H criterion
max |DM_out - DM_in|         :     0.0000001489
max |H_out - H_in|      (eV) :     0.0000004534
SCF cycle converged after 31 iterations

Using DM_out to compute the final energy and forces
No. of atoms with KB's overlaping orbs in proc 0. Max # of overlaps:      29     181

siesta: E_KS(eV) =            -4147.1308

siesta: E_KS - E_eggbox =     -4147.1308
     spin moment: S , {S} =    0.00000  -0.00000   0.00000   0.00000

siesta: Atomic forces (eV/Ang):
     1    4.257506   -1.469579   -0.000000
     2    0.020333    0.051684   -0.000000
     3    0.460562   -0.194626    0.000000
     4    0.437752   -0.014666    0.000000
     5    0.029566   -0.060769    0.000000
     6    1.231254    0.672967   -0.000000
     7    0.021735   -0.151096    0.000000
     8   -0.240300    0.174162    0.000000
     9   -0.091232    0.759038   -0.000000
    10   -0.593456    0.252797   -0.000000
    11   -0.008769   -0.013541    0.000000
    12   -0.107822   -0.086231   -0.000000
    13   -0.209589    0.000772   -0.000000
    14    0.300786   -0.093303    0.000000
    15   -0.810910   -0.596948   -0.000000
    16   -0.041157   -0.190199   -0.000000
    17    0.627663   -0.675067   -0.000000
    18   -0.132646    0.113305    0.000000
    19   -0.140044   -0.689460    0.000000
    20   -0.017711   -0.244021   -0.000000
    21   -0.211686    0.616526   -0.000000
    22   -1.592545   -0.864497   -0.000000
    23    0.162427    0.308154   -0.000000
    24   -0.047403    0.116489    0.000000
    25    0.020572    0.042129    0.000000
    26   -0.107819   -0.018993    0.000000
    27    1.132867    0.875463    0.000000
    28    2.664897   -2.295397   -0.000000
    29    0.011540    0.105905    0.000000
----------------------------------------
   Tot    7.026370   -3.569002    0.000000
----------------------------------------
   Max    4.257506
   Res    0.717250    sqrt( Sum f_i^2 / 3N )
----------------------------------------
   Max    4.257506    constrained

Stress tensor Voigt[x,y,z,yz,xz,xy] (kbar):        0.64        0.34       -0.08        0.00       -0.00        1.22
(Free)E + p*V (eV/cell)    -4148.0039
Target enthalpy (eV/cell)    -4147.1308

mulliken: Atomic and Orbital Populations:

Species: O                   

Atom      Orb        Charge      Spin       Svec
----------------------------------------------------------------
    1  1 2s         1.74400   0.00000      0.000  -0.000  -0.000
    1  2 2s         0.06229   0.00000     -0.000  -0.000  -0.000
    1  3 2py        1.42420   0.00000      0.000   0.000  -0.000
    1  4 2pz        1.56944   0.00000      0.000   0.000  -0.000
    1  5 2px        1.64325   0.00000     -0.000   0.000  -0.000
    1  6 2py        0.04583   0.00000      0.000  -0.000   0.000
    1  7 2pz       -0.01114   0.00000     -0.000  -0.000  -0.000
    1  8 2px        0.00001   0.00000      0.000   0.000  -0.000
    1  9 3Pdxy      0.00638   0.00000      0.000  -0.000   0.000
    1 10 3Pdyz      0.00871   0.00000      0.000   0.000   0.000
    1 11 3Pdz2      0.00130   0.00000     -0.000   0.000   0.000
    1 12 3Pdxz      0.00009   0.00000      0.000  -0.000   0.000
    1 13 3Pdx2-y2   0.00643   0.00000     -0.000  -0.000   0.000
    1     Total     6.50079   0.00000      0.000   0.000  -0.000

   28  1 2s         1.74639   0.00000     -0.000   0.000   0.000
   28  2 2s         0.06058   0.00000      0.000  -0.000  -0.000
   28  3 2py        1.41959   0.00000      0.000  -0.000  -0.000
   28  4 2pz        1.56808   0.00000      0.000   0.000  -0.000
   28  5 2px        1.65181   0.00000     -0.000  -0.000  -0.000
   28  6 2py        0.04473   0.00000     -0.000   0.000   0.000
   28  7 2pz       -0.00995   0.00000      0.000  -0.000   0.000
   28  8 2px        0.00475   0.00000      0.000  -0.000  -0.000
   28  9 3Pdxy      0.00610   0.00000      0.000  -0.000   0.000
   28 10 3Pdyz      0.00929   0.00000      0.000  -0.000   0.000
   28 11 3Pdz2      0.00095   0.00000      0.000   0.000  -0.000
   28 12 3Pdxz     -0.00019   0.00000      0.000  -0.000   0.000
   28 13 3Pdx2-y2   0.00734   0.00000      0.000   0.000   0.000
   28     Total     6.50947   0.00000      0.000   0.000  -0.000

----------------------------------------------------------------
Total              13.01026   0.00000      0.000   0.000  -0.000


Species: N                   

Atom      Orb        Charge      Spin       Svec
----------------------------------------------------------------
    2  1 2s         1.55542   0.00000     -0.000  -0.000  -0.000
    2  2 2s         0.08320   0.00000      0.000   0.000  -0.000
    2  3 2py        1.04237   0.00000      0.000   0.000  -0.000
    2  4 2pz        1.22432   0.00000      0.000   0.000  -0.000
    2  5 2px        0.98567   0.00000      0.000   0.000  -0.000
    2  6 2py        0.18856   0.00000     -0.000  -0.000   0.000
    2  7 2pz        0.05629   0.00000     -0.000  -0.000   0.000
    2  8 2px        0.19556   0.00000     -0.000  -0.000   0.000
    2  9 3Pdxy      0.00858   0.00000      0.000  -0.000   0.000
    2 10 3Pdyz      0.01123   0.00000      0.000   0.000   0.000
    2 11 3Pdz2      0.00196   0.00000     -0.000  -0.000   0.000
    2 12 3Pdxz      0.00766   0.00000      0.000  -0.000   0.000
    2 13 3Pdx2-y2   0.00928   0.00000      0.000   0.000  -0.000
    2     Total     5.37011   0.00000     -0.000  -0.000  -0.000

    3  1 2s         1.38688   0.00000     -0.000  -0.000  -0.000
    3  2 2s         0.12254   0.00000      0.000   0.000   0.000
    3  3 2py        0.94294   0.00000     -0.000  -0.000  -0.000
    3  4 2pz        1.54479   0.00000      0.000  -0.000  -0.000
    3  5 2px        1.08198   0.00000      0.000   0.000  -0.000
    3  6 2py        0.25094   0.00000      0.000   0.000   0.000
    3  7 2pz        0.00577   0.00000     -0.000   0.000  -0.000
    3  8 2px        0.18178   0.00000     -0.000  -0.000   0.000
    3  9 3Pdxy      0.00384   0.00000     -0.000  -0.000   0.000
    3 10 3Pdyz      0.00395   0.00000     -0.000   0.000   0.000
    3 11 3Pdz2      0.00065   0.00000     -0.000   0.000   0.000
    3 12 3Pdxz      0.00280   0.00000      0.000   0.000  -0.000
    3 13 3Pdx2-y2   0.00256   0.00000     -0.000  -0.000  -0.000
    3     Total     5.53139   0.00000      0.000  -0.000  -0.000

    4  1 2s         1.46173   0.00000     -0.000  -0.000   0.000
    4  2 2s         0.11826   0.00000      0.000   0.000  -0.000
    4  3 2py        1.13307   0.00000      0.000   0.000  -0.000
    4  4 2pz        1.29595   0.00000     -0.000  -0.000  -0.000
    4  5 2px        0.82447   0.00000     -0.000   0.000  -0.000
    4  6 2py        0.14967   0.00000     -0.000  -0.000  -0.000
    4  7 2pz        0.05366   0.00000      0.000  -0.000   0.000
    4  8 2px        0.29111   0.00000      0.000  -0.000   0.000
    4  9 3Pdxy      0.00878   0.00000      0.000  -0.000   0.000
    4 10 3Pdyz      0.01042   0.00000     -0.000   0.000  -0.000
    4 11 3Pdz2      0.00129   0.00000      0.000   0.000   0.000
    4 12 3Pdxz      0.00488   0.00000     -0.000  -0.000   0.000
    4 13 3Pdx2-y2   0.00799   0.00000     -0.000   0.000  -0.000
    4     Total     5.36124   0.00000     -0.000  -0.000  -0.000

    5  1 2s         1.37258   0.00000      0.000   0.000  -0.000
    5  2 2s         0.12933   0.00000     -0.000  -0.000   0.000
    5  3 2py        1.02816   0.00000      0.000  -0.000  -0.000
    5  4 2pz        1.49804   0.00000      0.000   0.000  -0.000
    5  5 2px        1.05698   0.00000     -0.000  -0.000  -0.000
    5  6 2py        0.20550   0.00000     -0.000   0.000   0.000
    5  7 2pz        0.01391   0.00000     -0.000  -0.000   0.000
    5  8 2px        0.20465   0.00000      0.000   0.000   0.000
    5  9 3Pdxy      0.00392   0.00000      0.000   0.000  -0.000
    5 10 3Pdyz      0.00240   0.00000      0.000  -0.000   0.000
    5 11 3Pdz2      0.00142   0.00000      0.000   0.000   0.000
    5 12 3Pdxz      0.00692   0.00000      0.000  -0.000   0.000
    5 13 3Pdx2-y2   0.00552   0.00000      0.000  -0.000   0.000
    5     Total     5.52931   0.00000      0.000  -0.000  -0.000

    6  1 2s         1.26375   0.00000      0.000   0.000  -0.000
    6  2 2s         0.18203   0.00000     -0.000  -0.000   0.000
    6  3 2py        1.08183   0.00000     -0.000   0.000   0.000
    6  4 2pz        1.55751   0.00000      0.000   0.000  -0.000
    6  5 2px        0.96542   0.00000     -0.000   0.000  -0.000
    6  6 2py        0.18749   0.00000      0.000  -0.000   0.000
    6  7 2pz        0.03075   0.00000     -0.000  -0.000  -0.000
    6  8 2px        0.25538   0.00000      0.000  -0.000   0.000
    6  9 3Pdxy      0.00241   0.00000     -0.000  -0.000  -0.000
    6 10 3Pdyz      0.00006   0.00000     -0.000  -0.000  -0.000
    6 11 3Pdz2      0.00170   0.00000     -0.000  -0.000   0.000
    6 12 3Pdxz      0.00351   0.00000      0.000   0.000  -0.000
    6 13 3Pdx2-y2   0.00394   0.00000      0.000   0.000  -0.000
    6     Total     5.53576   0.00000     -0.000   0.000  -0.000

   21  1 2s         1.41410   0.00000     -0.000  -0.000   0.000
   21  2 2s         0.13123   0.00000      0.000   0.000  -0.000
   21  3 2py        0.88123   0.00000     -0.000   0.000  -0.000
   21  4 2pz        1.30351   0.00000     -0.000   0.000   0.000
   21  5 2px        1.14924   0.00000     -0.000   0.000  -0.000
   21  6 2py        0.27507   0.00000     -0.000  -0.000   0.000
   21  7 2pz        0.04746   0.00000      0.000  -0.000   0.000
   21  8 2px        0.16618   0.00000      0.000  -0.000   0.000
   21  9 3Pdxy      0.00585   0.00000      0.000   0.000   0.000
   21 10 3Pdyz      0.00486   0.00000     -0.000   0.000   0.000
   21 11 3Pdz2     -0.00010   0.00000     -0.000  -0.000  -0.000
   21 12 3Pdxz      0.00579   0.00000     -0.000  -0.000   0.000
   21 13 3Pdx2-y2   0.00593   0.00000     -0.000  -0.000  -0.000
   21     Total     5.39035   0.00000     -0.000  -0.000   0.000

   22  1 2s         1.28393   0.00000      0.000  -0.000   0.000
   22  2 2s         0.17336   0.00000     -0.000   0.000  -0.000
   22  3 2py        1.07127   0.00000     -0.000  -0.000   0.000
   22  4 2pz        1.53305   0.00000      0.000  -0.000  -0.000
   22  5 2px        0.99443   0.00000      0.000   0.000  -0.000
   22  6 2py        0.19277   0.00000      0.000   0.000   0.000
   22  7 2pz        0.02992   0.00000      0.000   0.000  -0.000
   22  8 2px        0.23599   0.00000     -0.000   0.000   0.000
   22  9 3Pdxy      0.00333   0.00000     -0.000   0.000  -0.000
   22 10 3Pdyz      0.00016   0.00000      0.000  -0.000  -0.000
   22 11 3Pdz2      0.00241   0.00000     -0.000   0.000   0.000
   22 12 3Pdxz      0.00350   0.00000     -0.000   0.000  -0.000
   22 13 3Pdx2-y2   0.00432   0.00000     -0.000   0.000  -0.000
   22     Total     5.52843   0.00000      0.000  -0.000  -0.000

   23  1 2s         1.38154   0.00000     -0.000  -0.000   0.000
   23  2 2s         0.12492   0.00000      0.000   0.000  -0.000
   23  3 2py        1.00853   0.00000      0.000   0.000  -0.000
   23  4 2pz        1.52790   0.00000      0.000   0.000  -0.000
   23  5 2px        1.05815   0.00000     -0.000  -0.000   0.000
   23  6 2py        0.21547   0.00000     -0.000  -0.000  -0.000
   23  7 2pz        0.00474   0.00000     -0.000  -0.000  -0.000
   23  8 2px        0.20122   0.00000      0.000   0.000   0.000
   23  9 3Pdxy      0.00506   0.00000      0.000  -0.000   0.000
   23 10 3Pdyz      0.00453   0.00000      0.000   0.000  -0.000
   23 11 3Pdz2      0.00060   0.00000     -0.000   0.000   0.000
   23 12 3Pdxz      0.00245   0.00000      0.000   0.000  -0.000
   23 13 3Pdx2-y2   0.00146   0.00000     -0.000  -0.000  -0.000
   23     Total     5.53656   0.00000      0.000  -0.000  -0.000

----------------------------------------------------------------
Total              56.79343   0.00000      0.000   0.000  -0.000


Species: Si                  

Atom      Orb        Charge      Spin       Svec
----------------------------------------------------------------
    7  1 3s         0.64483   0.00000     -0.000  -0.000   0.000
    7  2 3s         0.37462   0.00000      0.000   0.000   0.000
    7  3 3py        0.47770   0.00000     -0.000  -0.000   0.000
    7  4 3pz        0.68087   0.00000     -0.000  -0.000  -0.000
    7  5 3px        0.10850   0.00000     -0.000  -0.000   0.000
    7  6 3py        0.27639   0.00000      0.000   0.000  -0.000
    7  7 3pz        0.26497   0.00000      0.000   0.000   0.000
    7  8 3px        0.45268   0.00000      0.000   0.000   0.000
    7  9 3Pdxy      0.25175   0.00000     -0.000   0.000   0.000
    7 10 3Pdyz      0.02939   0.00000     -0.000  -0.000   0.000
    7 11 3Pdz2      0.01083   0.00000     -0.000   0.000   0.000
    7 12 3Pdxz      0.15150   0.00000      0.000   0.000  -0.000
    7 13 3Pdx2-y2   0.11107   0.00000      0.000  -0.000   0.000
    7     Total     3.83509   0.00000     -0.000   0.000  -0.000

    8  1 3s         0.65613   0.00000      0.000   0.000   0.000
    8  2 3s         0.36887   0.00000     -0.000   0.000   0.000
    8  3 3py        0.39320   0.00000     -0.000  -0.000   0.000
    8  4 3pz        0.51757   0.00000     -0.000  -0.000   0.000
    8  5 3px       -0.02460   0.00000      0.000  -0.000   0.000
    8  6 3py        0.30661   0.00000      0.000   0.000   0.000
    8  7 3pz        0.20437   0.00000      0.000   0.000   0.000
    8  8 3px        0.51230   0.00000     -0.000   0.000   0.000
    8  9 3Pdxy      0.24718   0.00000     -0.000   0.000   0.000
    8 10 3Pdyz      0.11219   0.00000     -0.000  -0.000   0.000
    8 11 3Pdz2      0.01450   0.00000     -0.000  -0.000   0.000
    8 12 3Pdxz      0.15495   0.00000      0.000  -0.000   0.000
    8 13 3Pdx2-y2   0.20017   0.00000      0.000   0.000   0.000
    8     Total     3.66344   0.00000      0.000  -0.000   0.000

    9  1 3s         0.58112   0.00000      0.000  -0.000   0.000
    9  2 3s         0.37681   0.00000     -0.000   0.000   0.000
    9  3 3py        0.08063   0.00000     -0.000   0.000   0.000
    9  4 3pz        0.47554   0.00000      0.000   0.000  -0.000
    9  5 3px        0.36858   0.00000     -0.000  -0.000   0.000
    9  6 3py        0.44313   0.00000      0.000  -0.000   0.000
    9  7 3pz        0.19167   0.00000     -0.000  -0.000  -0.000
    9  8 3px        0.28097   0.00000      0.000   0.000   0.000
    9  9 3Pdxy      0.31592   0.00000     -0.000   0.000   0.000
    9 10 3Pdyz      0.19538   0.00000      0.000   0.000  -0.000
    9 11 3Pdz2      0.01473   0.00000      0.000  -0.000   0.000
    9 12 3Pdxz      0.10080   0.00000     -0.000  -0.000  -0.000
    9 13 3Pdx2-y2   0.17307   0.00000      0.000  -0.000   0.000
    9     Total     3.59833   0.00000     -0.000   0.000   0.000

   10  1 3s         0.47922   0.00000      0.000  -0.000   0.000
   10  2 3s         0.37834   0.00000      0.000   0.000   0.000
   10  3 3py        0.24673   0.00000      0.000   0.000   0.000
   10  4 3pz        0.40894   0.00000     -0.000   0.000   0.000
   10  5 3px        0.09144   0.00000     -0.000   0.000   0.000
   10  6 3py        0.32053   0.00000     -0.000   0.000   0.000
   10  7 3pz        0.22227   0.00000      0.000   0.000   0.000
   10  8 3px        0.44089   0.00000     -0.000  -0.000   0.000
   10  9 3Pdxy      0.16979   0.00000     -0.000   0.000   0.000
   10 10 3Pdyz      0.13515   0.00000     -0.000   0.000   0.000
   10 11 3Pdz2      0.00954   0.00000      0.000  -0.000   0.000
   10 12 3Pdxz      0.17941   0.00000      0.000  -0.000   0.000
   10 13 3Pdx2-y2   0.30801   0.00000      0.000  -0.000   0.000
   10     Total     3.39026   0.00000     -0.000  -0.000   0.000

   11  1 3s         0.55053   0.00000      0.000   0.000   0.000
   11  2 3s         0.38646   0.00000     -0.000  -0.000  -0.000
   11  3 3py        0.30904   0.00000      0.000   0.000   0.000
   11  4 3pz        0.53381   0.00000     -0.000  -0.000   0.000
   11  5 3px        0.13083   0.00000     -0.000   0.000   0.000
   11  6 3py        0.29948   0.00000      0.000  -0.000   0.000
   11  7 3pz        0.17923   0.00000      0.000   0.000   0.000
   11  8 3px        0.44242   0.00000      0.000  -0.000   0.000
   11  9 3Pdxy      0.23563   0.00000      0.000   0.000   0.000
   11 10 3Pdyz      0.12922   0.00000      0.000  -0.000   0.000
   11 11 3Pdz2      0.00997   0.00000     -0.000  -0.000   0.000
   11 12 3Pdxz      0.05436   0.00000     -0.000  -0.000   0.000
   11 13 3Pdx2-y2   0.19768   0.00000     -0.000  -0.000   0.000
   11     Total     3.45866   0.00000      0.000   0.000   0.000

   17  1 3s         0.64366   0.00000      0.000  -0.000   0.000
   17  2 3s         0.35733   0.00000     -0.000   0.000  -0.000
   17  3 3py        0.24318   0.00000      0.000  -0.000  -0.000
   17  4 3pz        0.41957   0.00000     -0.000   0.000   0.000
   17  5 3px        0.22786   0.00000     -0.000   0.000   0.000
   17  6 3py        0.36660   0.00000     -0.000   0.000   0.000
   17  7 3pz        0.21493   0.00000      0.000  -0.000   0.000
   17  8 3px        0.38276   0.00000     -0.000  -0.000  -0.000
   17  9 3Pdxy      0.28928   0.00000     -0.000   0.000  -0.000
   17 10 3Pdyz      0.13433   0.00000      0.000  -0.000   0.000
   17 11 3Pdz2      0.00841   0.00000      0.000   0.000  -0.000
   17 12 3Pdxz      0.14995   0.00000      0.000  -0.000   0.000
   17 13 3Pdx2-y2   0.17131   0.00000      0.000   0.000  -0.000
   17     Total     3.60916   0.00000      0.000  -0.000   0.000

   18  1 3s         0.75326   0.00000     -0.000  -0.000   0.000
   18  2 3s         0.33708   0.00000      0.000   0.000   0.000
   18  3 3py        0.09435   0.00000      0.000  -0.000   0.000
   18  4 3pz        0.81678   0.00000     -0.000  -0.000   0.000
   18  5 3px        0.53164   0.00000     -0.000   0.000  -0.000
   18  6 3py        0.50960   0.00000     -0.000   0.000   0.000
   18  7 3pz        0.19826   0.00000      0.000   0.000   0.000
   18  8 3px        0.26277   0.00000      0.000  -0.000   0.000
   18  9 3Pdxy      0.10808   0.00000      0.000  -0.000  -0.000
   18 10 3Pdyz      0.02625   0.00000     -0.000  -0.000  -0.000
   18 11 3Pdz2      0.00921   0.00000     -0.000  -0.000  -0.000
   18 12 3Pdxz      0.03082   0.00000      0.000  -0.000  -0.000
   18 13 3Pdx2-y2   0.10725   0.00000     -0.000   0.000  -0.000
   18     Total     3.78535   0.00000     -0.000   0.000   0.000

   19  1 3s         0.45156   0.00000      0.000  -0.000   0.000
   19  2 3s         0.36659   0.00000     -0.000   0.000  -0.000
   19  3 3py        0.09002   0.00000     -0.000   0.000   0.000
   19  4 3pz        0.42030   0.00000     -0.000  -0.000   0.000
   19  5 3px        0.33436   0.00000      0.000  -0.000   0.000
   19  6 3py        0.46069   0.00000      0.000  -0.000   0.000
   19  7 3pz        0.18704   0.00000      0.000   0.000   0.000
   19  8 3px        0.25735   0.00000     -0.000   0.000  -0.000
   19  9 3Pdxy      0.33914   0.00000      0.000   0.000   0.000
   19 10 3Pdyz      0.18911   0.00000      0.000   0.000   0.000
   19 11 3Pdz2      0.01477   0.00000     -0.000  -0.000  -0.000
   19 12 3Pdxz      0.09425   0.00000      0.000  -0.000  -0.000
   19 13 3Pdx2-y2   0.24769   0.00000      0.000  -0.000   0.000
   19     Total     3.45286   0.00000     -0.000  -0.000   0.000

   20  1 3s         0.67682   0.00000     -0.000  -0.000   0.000
   20  2 3s         0.37759   0.00000      0.000   0.000  -0.000
   20  3 3py        0.33375   0.00000     -0.000  -0.000  -0.000
   20  4 3pz        0.59707   0.00000     -0.000  -0.000  -0.000
   20  5 3px        0.13417   0.00000      0.000   0.000   0.000
   20  6 3py        0.28704   0.00000      0.000  -0.000   0.000
   20  7 3pz        0.16216   0.00000     -0.000   0.000   0.000
   20  8 3px        0.50387   0.00000     -0.000   0.000   0.000
   20  9 3Pdxy      0.09979   0.00000     -0.000   0.000   0.000
   20 10 3Pdyz      0.13185   0.00000     -0.000   0.000  -0.000
   20 11 3Pdz2      0.00690   0.00000     -0.000  -0.000   0.000
   20 12 3Pdxz      0.02733   0.00000     -0.000   0.000  -0.000
   20 13 3Pdx2-y2   0.17184   0.00000      0.000   0.000   0.000
   20     Total     3.51019   0.00000     -0.000   0.000  -0.000

----------------------------------------------------------------
Total              89.09677   0.00000     -0.000  -0.000   0.000


Species: H                   

Atom      Orb        Charge      Spin       Svec
----------------------------------------------------------------
   12  1 1s         0.48140   0.00000      0.000  -0.000  -0.000
   12  2 1s         0.18515   0.00000     -0.000   0.000   0.000
   12  3 2Ppy       0.02926   0.00000      0.000   0.000   0.000
   12  4 2Ppz       0.03135   0.00000     -0.000  -0.000  -0.000
   12  5 2Ppx       0.02629   0.00000     -0.000   0.000   0.000
   12     Total     0.75345   0.00000      0.000   0.000  -0.000

   13  1 1s         1.01818   0.00000      0.000  -0.000  -0.000
   13  2 1s         0.09718   0.00000     -0.000  -0.000   0.000
   13  3 2Ppy       0.01917   0.00000     -0.000  -0.000  -0.000
   13  4 2Ppz       0.02030   0.00000      0.000   0.000   0.000
   13  5 2Ppx       0.03326   0.00000     -0.000   0.000   0.000
   13     Total     1.18809   0.00000      0.000  -0.000  -0.000

   14  1 1s         0.46913   0.00000      0.000  -0.000  -0.000
   14  2 1s         0.19929   0.00000     -0.000   0.000  -0.000
   14  3 2Ppy       0.01835   0.00000      0.000  -0.000  -0.000
   14  4 2Ppz       0.04680   0.00000      0.000  -0.000  -0.000
   14  5 2Ppx       0.01851   0.00000     -0.000   0.000  -0.000
   14     Total     0.75208   0.00000      0.000  -0.000  -0.000

   15  1 1s         0.47384   0.00000      0.000  -0.000  -0.000
   15  2 1s         0.18031   0.00000     -0.000   0.000  -0.000
   15  3 2Ppy       0.01282   0.00000     -0.000   0.000   0.000
   15  4 2Ppz       0.03761   0.00000     -0.000  -0.000  -0.000
   15  5 2Ppx       0.04084   0.00000     -0.000   0.000  -0.000
   15     Total     0.74542   0.00000     -0.000  -0.000  -0.000

   16  1 1s         0.50490   0.00000     -0.000   0.000  -0.000
   16  2 1s         0.19038   0.00000      0.000  -0.000  -0.000
   16  3 2Ppy       0.02900   0.00000     -0.000   0.000  -0.000
   16  4 2Ppz       0.03991   0.00000     -0.000  -0.000  -0.000
   16  5 2Ppx       0.02438   0.00000     -0.000   0.000  -0.000
   16     Total     0.78856   0.00000     -0.000   0.000  -0.000

   24  1 1s         1.05815   0.00000     -0.000   0.000  -0.000
   24  2 1s         0.07633   0.00000      0.000  -0.000   0.000
   24  3 2Ppy       0.03053   0.00000     -0.000   0.000   0.000
   24  4 2Ppz       0.03065   0.00000      0.000   0.000   0.000
   24  5 2Ppx       0.01773   0.00000     -0.000   0.000  -0.000
   24     Total     1.21339   0.00000     -0.000   0.000  -0.000

   25  1 1s         1.04612   0.00000     -0.000   0.000  -0.000
   25  2 1s         0.08497   0.00000      0.000   0.000  -0.000
   25  3 2Ppy       0.01146   0.00000      0.000   0.000   0.000
   25  4 2Ppz       0.01862   0.00000      0.000   0.000  -0.000
   25  5 2Ppx       0.03598   0.00000     -0.000   0.000   0.000
   25     Total     1.19714   0.00000      0.000   0.000  -0.000

   26  1 1s         0.47775   0.00000     -0.000   0.000  -0.000
   26  2 1s         0.19713   0.00000      0.000   0.000  -0.000
   26  3 2Ppy       0.02036   0.00000      0.000  -0.000   0.000
   26  4 2Ppz       0.04872   0.00000     -0.000   0.000  -0.000
   26  5 2Ppx       0.01734   0.00000      0.000  -0.000  -0.000
   26     Total     0.76130   0.00000      0.000   0.000  -0.000

   27  1 1s         0.47992   0.00000      0.000   0.000  -0.000
   27  2 1s         0.17294   0.00000     -0.000   0.000  -0.000
   27  3 2Ppy       0.01596   0.00000     -0.000  -0.000  -0.000
   27  4 2Ppz       0.03298   0.00000     -0.000   0.000  -0.000
   27  5 2Ppx       0.04246   0.00000      0.000   0.000  -0.000
   27     Total     0.74425   0.00000      0.000   0.000  -0.000

   29  1 1s         0.48659   0.00000      0.000  -0.000  -0.000
   29  2 1s         0.18835   0.00000     -0.000   0.000  -0.000
   29  3 2Ppy       0.02480   0.00000      0.000   0.000  -0.000
   29  4 2Ppz       0.03445   0.00000      0.000  -0.000  -0.000
   29  5 2Ppx       0.02534   0.00000      0.000   0.000  -0.000
   29     Total     0.75954   0.00000      0.000  -0.000  -0.000

----------------------------------------------------------------
Total              98.00000   0.00000     -0.000   0.000   0.000


siesta: Eigenvalues (eV):
ik =     1
  -22.1556  -22.1556  -21.7967  -21.7967  -21.4321  -21.4321  -21.2947  -21.2947  -21.2430  -21.2430
  -21.1967  -21.1967  -20.6384  -20.6384  -19.6793  -19.6793  -19.5068  -19.5068  -19.3993  -19.3993
  -14.7487  -14.7487  -13.8364  -13.8364  -13.3231  -13.3231  -13.0941  -13.0941  -12.9317  -12.9317
  -12.8094  -12.8094  -12.5996  -12.5996  -12.2350  -12.2350  -12.1494  -12.1494  -11.9873  -11.9873
  -11.2302  -11.2302  -10.8147  -10.8147  -10.6588  -10.6588  -10.5833  -10.5833  -10.1226  -10.1226
   -9.5859   -9.5859   -9.1401   -9.1401   -8.8198   -8.8198   -8.7381   -8.7381   -8.6605   -8.6605
   -8.5075   -8.5075   -8.4949   -8.4949   -8.0964   -8.0964   -7.9571   -7.9571   -7.7258   -7.7258
   -7.6591   -7.6591   -7.3656   -7.3656   -7.1636   -7.1636   -6.8810   -6.8810   -6.7038   -6.7038
   -6.6715   -6.6715   -6.4630   -6.4630   -6.2372   -6.2372   -6.1558   -6.1558   -6.1474   -6.1474
   -6.1411   -6.1411   -5.7780   -5.7780   -5.5119   -5.5119   -4.2858   -4.2858   -3.2622   -3.2622
   -2.3026   -2.3026   -2.2944   -2.2944   -2.1729   -2.1729   -1.8714   -1.8714   -1.8011   -1.8011
   -1.7823   -1.7823   -1.7298   -1.7298   -1.5994   -1.5994   -1.3291   -1.3291   -1.0055   -1.0055
   -0.8552   -0.8552   -0.6027   -0.6027   -0.3266   -0.3266   -0.2637   -0.2637    0.2513    0.2513
    0.5157    0.5157    0.5376    0.5376    0.6838    0.6838    0.9445    0.9445    1.1232    1.1232
    1.2104    1.2104    1.3077    1.3077    1.4175    1.4175    1.4667    1.4667    1.7937    1.7937
    1.8720    1.8720    1.8938    1.8938    2.4193    2.4193    2.5312    2.5312    2.7620    2.7620
    2.8348    2.8348    2.8687    2.8687    2.9243    2.9243    3.4091    3.4091    3.4784    3.4784
    3.7335    3.7335    3.9408    3.9408    4.0828    4.0828    4.1484    4.1484    4.3582    4.3582
    4.6751    4.6751    4.7073    4.7073    4.7205    4.7205    4.7674    4.7674    4.8641    4.8641
    5.0062    5.0062    5.1696    5.1696    5.2920    5.2920    5.6666    5.6666    5.7110    5.7110
    5.9685    5.9685    6.0390    6.0390    6.0445    6.0445    6.3069    6.3069    6.3114    6.3114
    6.4540    6.4540    6.5825    6.5825    6.6221    6.6221    6.7963    6.7963    7.0555    7.0555
    7.0862    7.0862    7.2286    7.2286    7.5887    7.5887    7.8261    7.8261    7.8591    7.8591
    8.0005    8.0005    8.0602    8.0602    8.0978    8.0978    8.3898    8.3898    8.6274    8.6274
    8.7880    8.7880    8.8800    8.8800    8.9128    8.9128    8.9847    8.9847    9.3751    9.3751
    9.3895    9.3895    9.6303    9.6303    9.7827    9.7827    9.9621    9.9621   10.0872   10.0872
   10.2618   10.2618   10.3692   10.3692   10.6466   10.6466   11.0236   11.0236   11.1827   11.1827
   11.2844   11.2844   11.2922   11.2922   11.7142   11.7142   11.9544   11.9544   12.0100   12.0100
   12.1898   12.1898   12.1966   12.1966   12.5487   12.5487   12.6195   12.6195   12.8919   12.8919
   12.9529   12.9529   13.0871   13.0871   13.5562   13.5562   13.7122   13.7122   13.8985   13.8985
   14.0123   14.0123   14.1065   14.1065   14.6390   14.6390   14.9610   14.9610   15.0253   15.0253
   15.3731   15.3731   15.8035   15.8035   16.3801   16.3801   16.7548   16.7548   16.9639   16.9639
   17.0944   17.0944   17.4697   17.4697   17.7890   17.7890   18.7889   18.7889   18.8053   18.8053
   19.0214   19.0214   19.4252   19.4252   20.1652   20.1652   20.2262   20.2262   20.2807   20.2807
   21.1335   21.1335   21.4534   21.4534   22.2173   22.2173   22.6078   22.6078   22.8631   22.8631
   23.2510   23.2510   23.7251   23.7251   23.8984   23.8984   24.0873   24.0873   24.5528   24.5528
   25.0600   25.0600   25.7721   25.7721   26.2807   26.2807   27.2911   27.2911   28.1241   28.1241
   28.8287   28.8287   29.1605   29.1605   29.5702   29.5702   29.8545   29.8545   30.1686   30.1686
   30.1748   30.1748   30.5945   30.5945   30.9042   30.9042   30.9503   30.9503   31.1545   31.1545
   31.2663   31.2663   31.5986   31.5986   31.8971   31.8971   32.7484   32.7484   33.1954   33.1954
   34.1718   34.1718   34.1788   34.1788   34.5237   34.5237   34.5710   34.5710   34.8544   34.8544
   35.7166   35.7166   35.8179   35.8179   35.8292   35.8292   36.7023   36.7023   37.0846   37.0846
   37.2338   37.2338   38.2425   38.2425   38.3022   38.3022   38.3447   38.3447   39.0660   39.0660
   39.3549   39.3549   39.4607   39.4607   40.2590   40.2590   40.7446   40.7446   40.7585   40.7585
   40.7732   40.7732   40.8955   40.8955   41.0971   41.0971   41.5779   41.5779   41.6686   41.6686
   43.0340   43.0340   43.1756   43.1756   43.1813   43.1813   43.5276   43.5276   43.8518   43.8518
   44.0187   44.0187   44.1207   44.1207   44.8218   44.8218   44.9339   44.9339   45.0533   45.0533
   45.4988   45.4988   46.0270   46.0270   46.6239   46.6239   47.0032   47.0032   47.5856   47.5856
   47.7039   47.7039   48.9464   48.9464   49.7840   49.7840   49.8448   49.8448   50.2464   50.2464
   50.4323   50.4323   50.5945   50.5945   51.1474   51.1474   51.4295   51.4295   51.5359   51.5359
   52.0048   52.0048   52.6060   52.6060   53.3880   53.3880   55.0121   55.0121   55.3781   55.3781
   55.4632   55.4632   56.0851   56.0851   56.3038   56.3038   56.3325   56.3325   57.1848   57.1848
   57.3896   57.3896   58.0049   58.0049   58.3491   58.3491   59.4468   59.4468   60.2008   60.2008
   61.1267   61.1267   61.2778   61.2778   61.4974   61.4974   61.8263   61.8263   62.8372   62.8372
   63.8048   63.8048   64.1484   64.1484   65.1950   65.1950   65.2886   65.2886   67.3327   67.3327
   67.7813   67.7813   68.2278   68.2278   69.2158   69.2158   70.5990   70.5990   71.4958   71.4958
   74.7713   74.7713   84.3598   84.3598   92.3367   92.3367   92.9177   92.9177   94.0771   94.0771
   98.7501   98.7501  100.0733  100.0733  102.1057  102.1057  103.9184  103.9184  104.9178  104.9178
  112.4348  112.4348  114.2846  114.2846  125.2813  125.2813  126.8800  126.8800  132.9509  132.9509
  138.5507  138.5507  140.8618  140.8618
siesta: Fermi energy =      -3.773914 eV

siesta: Program's energy decomposition (eV):
siesta: Ebs     =     -1132.716041
siesta: Eions   =      3585.165840
siesta: Ena     =       383.126409
siesta: Ekin    =      2906.860553
siesta: Enl     =     -2792.435763
siesta: Eso     =        -0.004306
siesta: Edftu   =         0.000000
siesta: DEna    =        47.345493
siesta: DUscf   =        14.114454
siesta: DUext   =         0.000000
siesta: Exc     =     -1120.971802
siesta: eta*DQ  =         0.000000
siesta: Emadel  =         0.000000
siesta: Emeta   =         0.000000
siesta: Emolmec =         0.000000
siesta: Ekinion =         0.000000
siesta: Eharris =     -4147.130802
siesta: Etot    =     -4147.130802
siesta: FreeEng =     -4147.130802

siesta: Final energy (eV):
siesta:  Band Struct. =   -1132.716041
siesta:       Kinetic =    2906.860553
siesta:       Hartree =    8684.599521
siesta:       Edftu   =       0.000000
siesta:       Eso     =      -0.004306
siesta:    Ext. field =       0.000000
siesta:   Exch.-corr. =   -1120.971802
siesta:  Ion-electron =  -19953.591445
siesta:       Ion-ion =    5335.976677
siesta:       Ekinion =       0.000000
siesta:         Total =   -4147.130802
siesta:         Fermi =      -3.773914

siesta: Atomic forces (eV/Ang):
siesta:      1    4.257506   -1.469579   -0.000000
siesta:      2    0.020333    0.051684   -0.000000
siesta:      3    0.460562   -0.194626    0.000000
siesta:      4    0.437752   -0.014666    0.000000
siesta:      5    0.029566   -0.060769    0.000000
siesta:      6    1.231254    0.672967   -0.000000
siesta:      7    0.021735   -0.151096    0.000000
siesta:      8   -0.240300    0.174162    0.000000
siesta:      9   -0.091232    0.759038   -0.000000
siesta:     10   -0.593456    0.252797   -0.000000
siesta:     11   -0.008769   -0.013541    0.000000
siesta:     12   -0.107822   -0.086231   -0.000000
siesta:     13   -0.209589    0.000772   -0.000000
siesta:     14    0.300786   -0.093303    0.000000
siesta:     15   -0.810910   -0.596948   -0.000000
siesta:     16   -0.041157   -0.190199   -0.000000
siesta:     17    0.627663   -0.675067   -0.000000
siesta:     18   -0.132646    0.113305    0.000000
siesta:     19   -0.140044   -0.689460    0.000000
siesta:     20   -0.017711   -0.244021   -0.000000
siesta:     21   -0.211686    0.616526   -0.000000
siesta:     22   -1.592545   -0.864497   -0.000000
siesta:     23    0.162427    0.308154   -0.000000
siesta:     24   -0.047403    0.116489    0.000000
siesta:     25    0.020572    0.042129    0.000000
siesta:     26   -0.107819   -0.018993    0.000000
siesta:     27    1.132867    0.875463    0.000000
siesta:     28    2.664897   -2.295397   -0.000000
siesta:     29    0.011540    0.105905    0.000000
siesta: ----------------------------------------
siesta:    Tot    7.026370   -3.569002    0.000000

siesta: Stress tensor (static) (eV/Ang**3):
siesta:     0.000399    0.000759    0.000000
siesta:     0.000759    0.000211    0.000000
siesta:    -0.000000    0.000000   -0.000051

siesta: Cell volume =       4684.602737 Ang**3

siesta: Pressure (static):
siesta:                Solid            Molecule  Units
siesta:          -0.00000203         -0.00000201  Ry/Bohr**3
siesta:          -0.00018638         -0.00018485  eV/Ang**3
siesta:          -0.29861384         -0.29615912  kBar
(Free)E+ p_basis*V_orbitals  =       -4127.280385
(Free)Eharris+ p_basis*V_orbitals  =       -4127.280385
     spin moment: S , {S} =    0.00000  -0.00000   0.00000   0.00000

siesta: Electric dipole (a.u.)  =    1.670442    0.135347   -0.000000
siesta: Electric dipole (Debye) =    4.245843    0.344018   -0.000000

cite: Please see "GC.bib" for an exhaustive BiBTeX file.
cite: Please clearly indicate Siesta version in published work: v4.1.5-1-g384057250
cite: This calculation has made use of the following articles
cite: which are encouraged to be cited in a published work.
        Primary SIESTA paper
          DOI: www.doi.org/10.1088/0953-8984/14/11/302
        Spin-orbit coupling (on-site approximation)
          DOI: www.doi.org/10.1088/0953-8984/19/19/489001


WARNING: alloc-realloc-dealloc name mismatch
         Name: atomlist isa
         Size:              -116. Bytes
         Node:     0
         Subsequent mismatches will not be reported
>> End of run:   4-JUL-2023  11:16:09
Job completed
