Executable      : siesta-5
Version         : 5.1-MaX-41-g6ad11e234
Architecture    : x86_64
Compiler version: GNU-12.2.0
Compiler flags  : -DSIESTA__METIS -fallow-argument-mismatch -O3 -march=native
Parallelisations: MPI, OpenMP
* OpenMP version: 201511
NetCDF support
NetCDF-4 support
NetCDF-4 MPI-IO support
METIS ordering support
Lua support
Native ELPA support
DFT-D3 support
Wannier90 wrapper support

Runtime information:
* Directory : /home/cdelv/Si_DNA2/Si/Base_Pairs/GC_GGA_OP
* Running on 32 nodes in parallel.
* Running 1 OpenMP threads.
* Running 32 processes.
* OpenMP NOT bound (please bind threads!)
* OpenMP runtime schedule DYNAMIC, chunks 1
** Changing chunk size:
** OpenMP runtime schedule DYNAMIC, chunks 32
** OpenMP (trying to FORCE nesting)
* OpenMP allows 255 nested levels.
>> Start of run:  12-OCT-2024  14:44:03

                           *********************** 
                           *  WELCOME TO SIESTA  * 
                           *********************** 

 NOTE: Siesta V5 introduces some new defaults for basis-set generation
 NOTE: which might lead to slightly different numerical results.
 NOTE: Please see the manual for full details and compatibility measures.


reinit: Reading from standard input
reinit: Dumping input in INPUT_TMP.73311
************************** Dump of input data file ****************************
# mpirun -np 8 siesta-5 < GC.fdf > GC.out &
SystemLabel      GC
NumberOfAtoms    29
NumberOfSpecies  4
%block ChemicalSpeciesLabel
    1    1  H ../../../Pseudos/PBE/H/H.psf
    2    7  N ../../../Pseudos/PBE/N/N.psf
    3   14  Si ../../../Pseudos/PBE/Si/Si.psf
    4    8  O ../../../Pseudos/PBE/O/O.psf
%endblock ChemicalSpeciesLabel
############################################
# This overrides Defaults.fdf configuration
############################################
XC.Functional               VDW
XC.Authors                  DRSLL
MD.Steps                    1000
%block Geometry.Constraints
    atom all 0.0 0.0 1.0 # constrain along z Cartesian vector
    atom [7]
%endblock
AtomicCoordinatesFormat NotScaledCartesianAng
%block AtomicCoordinatesAndAtomicSpecies
    1.03711479    3.59345352   -0.00000000   1       1  H
    0.33062806    2.80341734   -0.00000000   2       2  N
   -1.39965885    3.24478125    0.00000000   3       3  Si
   -1.55543853    4.73477351    0.00000000   1       4  H
   -2.92298047    1.68587373   -0.00000000   3       5  Si
   -4.40616810    1.92870409   -0.00000000   1       6  H
   -1.72458961   -0.22740243   -0.00000000   3       7  Si
   -2.49061507   -1.76011917   -0.00000000   2       8  N
   -1.90036852   -2.71733220    0.00000000   1       9  H
   -3.54223739   -1.84057940   -0.00000000   1      10  H
   -0.00838955   -0.17222812    0.00000000   2      11  N
    1.06663307    1.15811072   -0.00000000   3      12  Si
    2.67530639    1.13930046   -0.00000000   4      13  O
    5.61644830   -7.44953905    0.00000000   1      14  H
    4.58206954   -7.23203760    0.00000000   2      15  N
    3.29666389   -8.49263600    0.00000000   3      16  Si
    3.80117524   -9.90371886   -0.00000000   1      17  H
    1.65934232   -8.01362137    0.00000000   2      18  N
    1.68097912   -6.20463398   -0.00000000   3      19  Si
    0.54543521   -4.28636135    0.00000000   3      20  Si
   -1.03431493   -3.94450034    0.00000000   4      21  O
    1.73226934   -2.87719605    0.00000000   2      22  N
    1.20957366   -1.92961761   -0.00000000   1      23  H
    3.50853448   -2.77677601    0.00000000   3      24  Si
    4.13684451   -1.17938608    0.00000000   2      25  N
    3.54296161   -0.26248101    0.00000000   1      26  H
    5.18364407   -1.05231197   -0.00000000   1      27  H
    4.63288658   -4.07521596   -0.00000000   2      28  N
    3.79410501   -5.58634043    0.00000000   3      29  Si
%endblock AtomicCoordinatesAndAtomicSpecies
#############
# Unit Cell
#############
LatticeConstant 1.0 Ang
%block LatticeVectors
    18.663680   0.000000     0.000000
    0.000000    23.664587    0.000000
    0.000000    0.000000     9.854683
%endblock LatticeVectors
%include ../../../Defaults.fdf
************************** End of input data file *****************************

reinit: -----------------------------------------------------------------------
reinit: System Name: 
reinit: -----------------------------------------------------------------------
reinit: System Label: GC
reinit: -----------------------------------------------------------------------

NOTE on units for spin output: 
{S} is the spin magnetic moment, in units of the Bohr magneton,
assuming a g-factor for the electron spin of exactly 2.
The spin magnetic moment is then numerically equal to the charge inbalance,
in units of electrons, between the spin-up and -down channels.


initatom: Reading input for the pseudopotentials and atomic orbitals ----------
Species number:   1 Atomic number:    1 Label: H
Species number:   2 Atomic number:    7 Label: N
Species number:   3 Atomic number:   14 Label: Si
Species number:   4 Atomic number:    8 Label: O

Ground state valence configuration (from tables):   1s01  2p00  3d00  4f00
Ground state valence configuration (from tables):   2s02  2p03  3d00  4f00
Ground state valence configuration (from tables):   3s02  3p02  3d00  4f00
Ground state valence configuration (from tables):   2s02  2p04  3d00  4f00

---- Processing specs for species: H
Reading pseudopotential information in formatted form from:
  ../../../Pseudos/PBE/H/H.psf

---- Processing specs for species: N
Reading pseudopotential information in formatted form from:
  ../../../Pseudos/PBE/N/N.psf

---- Processing specs for species: Si
Reading pseudopotential information in formatted form from:
  ../../../Pseudos/PBE/Si/Si.psf

---- Processing specs for species: O
Reading pseudopotential information in formatted form from:
  ../../../Pseudos/PBE/O/O.psf

---- Pseudopotential check for H 

Pseudopotential generated from a fully relativistic atomic calculation
There are spin-orbit semi-local pseudopotentials available

Pseudized shells:
1s( 1.00) rc: 0.05
Valence configuration for ps generation: (assumed as above)

---- Pseudopotential check for N 

Pseudopotential generated from a fully relativistic atomic calculation
There are spin-orbit semi-local pseudopotentials available

Pseudized shells:
2s( 2.00) rc: 1.02
2p( 3.00) rc: 1.36
3d( 0.00) rc: 3.29
Valence configuration for ps generation: (assumed as above)

---- Pseudopotential check for Si

Pseudopotential generated from a fully relativistic atomic calculation
There are spin-orbit semi-local pseudopotentials available

Pseudized shells:
3s( 2.00) rc: 1.67
3p( 2.00) rc: 2.22
3d( 0.00) rc: 3.44
Valence configuration for ps generation: (assumed as above)

---- Pseudopotential check for O 

Pseudopotential generated from a fully relativistic atomic calculation
There are spin-orbit semi-local pseudopotentials available

Pseudized shells:
2s( 2.00) rc: 1.05
2p( 4.00) rc: 1.02
Valence configuration for ps generation: (assumed as above)
For H, standard SIESTA heuristics set lmxkb to 2
 (one more than the basis l, including polarization orbitals).
Use PS.lmax or PS.KBprojectors blocks to override.
For N, standard SIESTA heuristics set lmxkb to 3
 (one more than the basis l, including polarization orbitals).
Use PS.lmax or PS.KBprojectors blocks to override.
For Si, standard SIESTA heuristics set lmxkb to 3
 (one more than the basis l, including polarization orbitals).
Use PS.lmax or PS.KBprojectors blocks to override.
For O, standard SIESTA heuristics set lmxkb to 3
 (one more than the basis l, including polarization orbitals).
Use PS.lmax or PS.KBprojectors blocks to override.
../../../Pseudos/PBE/H/H.psf pseudopotential only contains V_ls up to l=0 -- lmxkb reset.
../../../Pseudos/PBE/N/N.psf pseudopotential only contains V_ls up to l=2 -- lmxkb reset.
../../../Pseudos/PBE/Si/Si.psf pseudopotential only contains V_ls up to l=2 -- lmxkb reset.
../../../Pseudos/PBE/O/O.psf pseudopotential only contains V_ls up to l=1 -- lmxkb reset.

<basis_specs>
===============================================================================
H                    Z=   1    Mass=  1.0080        Charge= 0.17977+309
Lmxo=1 Lmxkb= 0    BasisType=split      Semic=F
L=0  Nsemic=0  Cnfigmx=1
          i=1  nzeta=2  polorb=1  (1s)  (to be polarized perturbatively)
            splnorm:   0.62000    
               vcte:    40.000    
               rinn:  -0.90000    
               qcoe:    0.0000    
               qyuk:    0.0000    
               qwid:   0.10000E-01
                rcs:    0.0000      0.0000    
            lambdas:    1.0000      1.0000    
L=1  Nsemic=0  Cnfigmx=2
          i=1  nzeta=0  polorb=0  (2p)  (perturbative polarization orbital) (from 1s)
===============================================================================
</basis_specs>

Filter: Requested cutoff:  290.000000 Ry
Using PAO.SplitTailNorm
atom: Called for H                     (Z =   1)
NOTE: H pseudopotential has channels up to l= 0
NOTE: PAOs with higher l will be generated with V_local
Maximum radius (at nrval) set to   50.00000 8518

read_vps: Pseudopotential generation method:
read_vps: ATM4.2.7  Troullier-Martins                       
Valence charge in pseudo generation:    1.00000

xc_check: Exchange-correlation functional:
xc_check: VDW Dion-Rydberg-Schroeder-Langreth-Lundqvist
xc_check: WARNING: Pseudopotential generated with GGA PBE functional
V l=0 = -2*Zval/r beyond r=  0.0513
All V_l potentials equal beyond r=  0.0513
This should be close to max(r_c) in ps generation
All pots = -2*Zval/r beyond r=  0.0513
Using small-core scheme (local charge) for Vlocal

VLOCAL_FROM_CHLOCAL: 99.0% of the norm of Vloc inside  16462.511 Ry
VLOCAL_FROM_CHLOCAL: 99.9% of the norm of Vloc inside  37518.368 Ry
atom: Maximum radius for chlocal:    0.06330
atom: Maximum radius for r*vlocal+2*Zval:    0.05437

KBgen: Kleinman-Bylander projectors: 
GHOST: No ghost state for L =  0
KBproj: WARNING: Rc(0)=      0.3094
KBproj: WARNING: Cut off radius for the KB projector too small
   l= 0   rc=  0.309445   el= -0.511447   Ekb=-33.941717   kbcos= -0.005337

KBgen: Total number of Kleinman-Bylander projectors:   1
atom: -------------------------------------------------------------------------

atom: SANKEY-TYPE ORBITALS:
atom: Selected multiple-zeta basis: split     

SPLIT: Orbitals with angular momentum L= 0

SPLIT: Basis orbitals for state 1s

SPLIT: PAO cut-off radius determined from an
SPLIT: energy shift=  0.005000 Ry
Split based on tail norm

   izeta = 1
                 lambda =    1.000000
                     rc =    5.737873
                 energy =   -0.505745
                kinetic =    0.991006
    potential(screened) =   -1.496751
       potential(ionic) =   -1.986364
PAO Filter: Cutoff used:  142.10 Ry
PAO Filter: diagnostic kin energy tol:    0.003000 Ry
PAO Filter: Nominal cutoff (before filtering):  118.51 Ry
Filter:    Number of eigenfunctions  of the
           filtering kernel (total, used)= 54 20

   izeta = 2
                 rmatch =    1.623671
              splitnorm =    0.620000
                 energy =    1.793721
                kinetic =    6.122345
    potential(screened) =   -4.328624
       potential(ionic) =   -4.746482
PAO Filter: Cutoff used:  142.10 Ry
PAO Filter: diagnostic kin energy tol:    0.003000 Ry
PAO Filter: Nominal cutoff (before filtering):  901.70 Ry
Filter:    Number of eigenfunctions  of the
           filtering kernel (total, used)= 23  5
*Note: V_local used for l= 1

** Using vlocal for PAOs with L= 1

POLgen: Perturbative polarization orbital with L=  1

POLgen: Polarization orbital for state 1s
*Note: V_local used for lpol= 1

** Using vlocal for PAOs with L= 1
Split based on tail norm

   izeta = 1
                     rc =    5.737873
                 energy =    0.614161
                kinetic =    1.266520
    potential(screened) =   -0.652359
       potential(ionic) =   -1.116715
PAO Filter: diagnostic kin energy tol:    0.003000 Ry
PAO Filter: Nominal cutoff (before filtering):   54.78 Ry
Filter:    Number of eigenfunctions  of the
           filtering kernel (total, used)= 54 20
atom: Total number of Sankey-type orbitals:  5

atm_pop: Valence configuration (for local Pseudopot. screening):
 1s( 1.00)                                                            
 2p( 0.00)                                                            
Vna: chval, zval:    1.00000   1.00000

Vna:  Cut-off radius for the neutral-atom potential:   5.737873
VNA Filter: diagnostic kinetic energy tol:    0.003000 Ry
VNA Filter: Nominal cutoff (before filtering):21298.78 Ry
VNA Filter: Cutoff used:   290.00 Ry
Filter:    Number of eigenfunctions  of the
           filtering kernel (total, used)= 74 29

atom: _________________________________________________________________________

<basis_specs>
===============================================================================
N                    Z=   7    Mass=  14.007        Charge= 0.17977+309
Lmxo=2 Lmxkb= 2    BasisType=split      Semic=F
L=0  Nsemic=0  Cnfigmx=2
          i=1  nzeta=2  polorb=0  (2s)
            splnorm:   0.28000    
               vcte:    40.000    
               rinn:  -0.90000    
               qcoe:    0.0000    
               qyuk:    0.0000    
               qwid:   0.10000E-01
                rcs:    0.0000      0.0000    
            lambdas:    1.0000      1.0000    
L=1  Nsemic=0  Cnfigmx=2
          i=1  nzeta=2  polorb=1  (2p)  (to be polarized perturbatively)
            splnorm:   0.28000    
               vcte:    40.000    
               rinn:  -0.90000    
               qcoe:    0.0000    
               qyuk:    0.0000    
               qwid:   0.10000E-01
                rcs:    0.0000      0.0000    
            lambdas:    1.0000      1.0000    
L=2  Nsemic=0  Cnfigmx=3
          i=1  nzeta=0  polorb=0  (3d)  (perturbative polarization orbital) (from 2p)
-------------------------------------------------------------------------------
L=0  Nkbl=1  erefs: 0.17977+309
L=1  Nkbl=1  erefs: 0.17977+309
L=2  Nkbl=1  erefs: 0.17977+309
===============================================================================
</basis_specs>

Filter: Requested cutoff:  290.000000 Ry
Using PAO.SplitTailNorm
atom: Called for N                     (Z =   7)
Maximum radius (at nrval) set to   50.00000 8518

read_vps: Pseudopotential generation method:
read_vps: ATM4.2.7  Troullier-Martins                       
Valence charge in pseudo generation:    5.00000

xc_check: Exchange-correlation functional:
xc_check: VDW Dion-Rydberg-Schroeder-Langreth-Lundqvist
xc_check: WARNING: Pseudopotential generated with GGA PBE functional
V l=0 = -2*Zval/r beyond r=  1.3505
V l=1 = -2*Zval/r beyond r=  1.3628
V l=2 = -2*Zval/r beyond r=  3.2536
All V_l potentials equal beyond r=  3.2406
This should be close to max(r_c) in ps generation
All pots = -2*Zval/r beyond r=  3.2536
Using small-core scheme (local charge) for Vlocal

VLOCAL_FROM_CHLOCAL: 99.0% of the norm of Vloc inside      4.134 Ry
VLOCAL_FROM_CHLOCAL: 99.9% of the norm of Vloc inside      9.420 Ry
atom: Maximum radius for chlocal:    3.83522
atom: Maximum radius for r*vlocal+2*Zval:    3.56452

KBgen: Kleinman-Bylander projectors: 
GHOST: No ghost state for L =  0
   l= 0   rc=  3.283101   el= -1.388958   Ekb= -4.092297   kbcos= -0.709358
GHOST: No ghost state for L =  1
j- l= 1   rc=  3.269955   el= -0.548273   Ekb= -9.361595   kbcos= -0.607677
GHOST: No ghost state for L =  1
j+ l= 1   rc=  3.269955   el= -0.546854   Ekb= -9.347054   kbcos= -0.607362
GHOST: No ghost state for L =  2
j- l= 2   rc=  3.699250   el=  0.013289   Ekb= -0.681577   kbcos= -0.063067
GHOST: No ghost state for L =  2
j+ l= 2   rc=  3.699250   el=  0.013289   Ekb= -0.680454   kbcos= -0.063098

KBgen: Total number of Kleinman-Bylander projectors:  17
atom: -------------------------------------------------------------------------

atom: SANKEY-TYPE ORBITALS:
atom: Selected multiple-zeta basis: split     

SPLIT: Orbitals with angular momentum L= 0

SPLIT: Basis orbitals for state 2s

SPLIT: PAO cut-off radius determined from an
SPLIT: energy shift=  0.005000 Ry
Split based on tail norm

   izeta = 1
                 lambda =    1.000000
                     rc =    4.256654
                 energy =   -1.383289
                kinetic =    1.271350
    potential(screened) =   -2.654639
       potential(ionic) =   -8.169466
PAO Filter: Cutoff used:  142.10 Ry
PAO Filter: diagnostic kin energy tol:    0.003000 Ry
PAO Filter: Nominal cutoff (before filtering):   63.15 Ry
Filter:    Number of eigenfunctions  of the
           filtering kernel (total, used)= 43 14

   izeta = 2
                 rmatch =    2.168921
              splitnorm =    0.280000
                 energy =   -0.508665
                kinetic =    3.187799
    potential(screened) =   -3.696464
       potential(ionic) =   -9.854719
PAO Filter: Cutoff used:  142.10 Ry
PAO Filter: diagnostic kin energy tol:    0.003000 Ry
PAO Filter: Nominal cutoff (before filtering):  128.20 Ry
Filter:    Number of eigenfunctions  of the
           filtering kernel (total, used)= 27  7

SPLIT: Orbitals with angular momentum L= 1

SPLIT: Basis orbitals for state 2p

SPLIT: PAO cut-off radius determined from an
SPLIT: energy shift=  0.005000 Ry
Split based on tail norm

   izeta = 1
                 lambda =    1.000000
                     rc =    5.285354
                 energy =   -0.541685
                kinetic =    3.542638
    potential(screened) =   -4.084324
       potential(ionic) =   -9.421276
PAO Filter: Cutoff used:  142.10 Ry
PAO Filter: diagnostic kin energy tol:    0.003000 Ry
PAO Filter: Nominal cutoff (before filtering):   56.39 Ry
Filter:    Number of eigenfunctions  of the
           filtering kernel (total, used)= 51 18

   izeta = 2
                 rmatch =    2.603865
              splitnorm =    0.280000
                 energy =   -0.161057
                kinetic =    6.179880
    potential(screened) =   -6.340937
       potential(ionic) =  -12.476254
PAO Filter: Cutoff used:  142.10 Ry
PAO Filter: diagnostic kin energy tol:    0.003000 Ry
PAO Filter: Nominal cutoff (before filtering):   63.91 Ry
Filter:    Number of eigenfunctions  of the
           filtering kernel (total, used)= 30  8

POLgen: Perturbative polarization orbital with L=  2

POLgen: Polarization orbital for state 2p
Split based on tail norm

   izeta = 1
                     rc =    5.285354
                 energy =    1.564005
                kinetic =    2.570039
    potential(screened) =   -1.006034
       potential(ionic) =   -5.069610
PAO Filter: diagnostic kin energy tol:    0.003000 Ry
PAO Filter: Nominal cutoff (before filtering):   61.42 Ry
Filter:    Number of eigenfunctions  of the
           filtering kernel (total, used)= 51 17
atom: Total number of Sankey-type orbitals: 13

atm_pop: Valence configuration (for local Pseudopot. screening):
 2s( 2.00)                                                            
 2p( 3.00)                                                            
 3d( 0.00)                                                            
Vna: chval, zval:    5.00000   5.00000

Vna:  Cut-off radius for the neutral-atom potential:   5.285354
VNA Filter: diagnostic kinetic energy tol:    0.003000 Ry
VNA Filter: Nominal cutoff (before filtering):   50.69 Ry
VNA Filter: Cutoff used:   290.00 Ry
Filter:    Number of eigenfunctions  of the
           filtering kernel (total, used)= 69 27

atom: _________________________________________________________________________

<basis_specs>
===============================================================================
Si                   Z=  14    Mass=  28.090        Charge= 0.17977+309
Lmxo=2 Lmxkb= 2    BasisType=split      Semic=F
L=0  Nsemic=0  Cnfigmx=3
          i=1  nzeta=2  polorb=0  (3s)
            splnorm:   0.28000    
               vcte:    40.000    
               rinn:  -0.90000    
               qcoe:    0.0000    
               qyuk:    0.0000    
               qwid:   0.10000E-01
                rcs:    0.0000      0.0000    
            lambdas:    1.0000      1.0000    
L=1  Nsemic=0  Cnfigmx=3
          i=1  nzeta=2  polorb=1  (3p)  (to be polarized perturbatively)
            splnorm:   0.28000    
               vcte:    40.000    
               rinn:  -0.90000    
               qcoe:    0.0000    
               qyuk:    0.0000    
               qwid:   0.10000E-01
                rcs:    0.0000      0.0000    
            lambdas:    1.0000      1.0000    
L=2  Nsemic=0  Cnfigmx=3
          i=1  nzeta=0  polorb=0  (3d)  (perturbative polarization orbital) (from 3p)
-------------------------------------------------------------------------------
L=0  Nkbl=1  erefs: 0.17977+309
L=1  Nkbl=1  erefs: 0.17977+309
L=2  Nkbl=1  erefs: 0.17977+309
===============================================================================
</basis_specs>

Filter: Requested cutoff:  290.000000 Ry
Using PAO.SplitTailNorm
atom: Called for Si                    (Z =  14)
Maximum radius (at nrval) set to   50.00000 8518

read_vps: Pseudopotential generation method:
read_vps: ATM4.2.7  Troullier-Martins                       
Valence charge in pseudo generation:    4.00000

read_vps: Pseudopotential includes a core correction:
read_vps: Pseudo-core for xc-correction

xc_check: Exchange-correlation functional:
xc_check: VDW Dion-Rydberg-Schroeder-Langreth-Lundqvist
xc_check: WARNING: Pseudopotential generated with GGA PBE functional
V l=0 = -2*Zval/r beyond r=  2.0135
V l=1 = -2*Zval/r beyond r=  2.2353
V l=2 = -2*Zval/r beyond r=  3.4072
All V_l potentials equal beyond r=  3.3936
This should be close to max(r_c) in ps generation
All pots = -2*Zval/r beyond r=  3.4072
Using small-core scheme (local charge) for Vlocal

VLOCAL_FROM_CHLOCAL: 99.0% of the norm of Vloc inside      3.769 Ry
VLOCAL_FROM_CHLOCAL: 99.9% of the norm of Vloc inside      8.590 Ry
atom: Maximum radius for chlocal:    3.99615
atom: Maximum radius for r*vlocal+2*Zval:    3.71412

KBgen: Kleinman-Bylander projectors: 
GHOST: No ghost state for L =  0
   l= 0   rc=  3.578843   el= -0.803359   Ekb= 71.291941   kbcos=  0.015920
GHOST: No ghost state for L =  1
j- l= 1   rc=  3.725306   el= -0.308480   Ekb= -0.833134   kbcos= -0.325691
GHOST: No ghost state for L =  1
j+ l= 1   rc=  3.725306   el= -0.306152   Ekb= -0.849956   kbcos= -0.317369
GHOST: No ghost state for L =  2
j- l= 2   rc=  3.781758   el=  0.012846   Ekb= -0.889231   kbcos= -0.153323
GHOST: No ghost state for L =  2
j+ l= 2   rc=  3.781758   el=  0.012846   Ekb= -0.888545   kbcos= -0.153297

KBgen: Total number of Kleinman-Bylander projectors:  17
atom: -------------------------------------------------------------------------

atom: SANKEY-TYPE ORBITALS:
atom: Selected multiple-zeta basis: split     

SPLIT: Orbitals with angular momentum L= 0

SPLIT: Basis orbitals for state 3s

SPLIT: PAO cut-off radius determined from an
SPLIT: energy shift=  0.005000 Ry
Split based on tail norm

   izeta = 1
                 lambda =    1.000000
                     rc =    5.818909
                 energy =   -0.797472
                kinetic =    0.548888
    potential(screened) =   -1.346360
       potential(ionic) =   -3.720454
PAO Filter: Cutoff used:  142.10 Ry
PAO Filter: diagnostic kin energy tol:    0.003000 Ry
PAO Filter: Nominal cutoff (before filtering):   17.02 Ry
Filter:    Number of eigenfunctions  of the
           filtering kernel (total, used)= 55 20

   izeta = 2
                 rmatch =    3.319526
              splitnorm =    0.280000
                 energy =   -0.089786
                kinetic =    1.790310
    potential(screened) =   -1.880095
       potential(ionic) =   -4.465489
PAO Filter: Cutoff used:  142.10 Ry
PAO Filter: diagnostic kin energy tol:    0.003000 Ry
PAO Filter: Nominal cutoff (before filtering):   37.67 Ry
Filter:    Number of eigenfunctions  of the
           filtering kernel (total, used)= 36 11

SPLIT: Orbitals with angular momentum L= 1

SPLIT: Basis orbitals for state 3p

SPLIT: PAO cut-off radius determined from an
SPLIT: energy shift=  0.005000 Ry
Split based on tail norm

   izeta = 1
                 lambda =    1.000000
                     rc =    7.640950
                 energy =   -0.301069
                kinetic =    0.816747
    potential(screened) =   -1.117816
       potential(ionic) =   -3.297213
PAO Filter: Cutoff used:  142.10 Ry
PAO Filter: diagnostic kin energy tol:    0.003000 Ry
PAO Filter: Nominal cutoff (before filtering):    6.34 Ry
Filter:    Number of eigenfunctions  of the
           filtering kernel (total, used)= 69 27

   izeta = 2
                 rmatch =    4.390991
              splitnorm =    0.280000
                 energy =   -0.103210
                kinetic =    1.493206
    potential(screened) =   -1.596416
       potential(ionic) =   -4.032791
PAO Filter: Cutoff used:  142.10 Ry
PAO Filter: diagnostic kin energy tol:    0.003000 Ry
PAO Filter: Nominal cutoff (before filtering):   12.81 Ry
Filter:    Number of eigenfunctions  of the
           filtering kernel (total, used)= 44 14

POLgen: Perturbative polarization orbital with L=  2

POLgen: Polarization orbital for state 3p
Split based on tail norm

   izeta = 1
                     rc =    7.640950
                 energy =    0.297304
                kinetic =    1.291278
    potential(screened) =   -0.993974
       potential(ionic) =   -3.028960
PAO Filter: diagnostic kin energy tol:    0.003000 Ry
PAO Filter: Nominal cutoff (before filtering):   12.02 Ry
Filter:    Number of eigenfunctions  of the
           filtering kernel (total, used)= 69 26
atom: Total number of Sankey-type orbitals: 13

atm_pop: Valence configuration (for local Pseudopot. screening):
 3s( 2.00)                                                            
 3p( 2.00)                                                            
 3d( 0.00)                                                            
Vna: chval, zval:    4.00000   4.00000

Vna:  Cut-off radius for the neutral-atom potential:   7.640950
VNA Filter: diagnostic kinetic energy tol:    0.003000 Ry
VNA Filter: Nominal cutoff (before filtering):    6.64 Ry
VNA Filter: Cutoff used:   290.00 Ry
Filter:    Number of eigenfunctions  of the
           filtering kernel (total, used)= 95 40
comcore: Pseudo-core radius Rcore=  2.987653
PCC Filter: diagnostic kin energy tol:    0.003000 Ry
PCC Filter: Nominal cutoff (before filtering):  104.36 Ry
PCC Filter: Cutoff used:   290.00 Ry
Filter:    Number of eigenfunctions  of the
           filtering kernel (total, used)= 43 15

atom: _________________________________________________________________________

<basis_specs>
===============================================================================
O                    Z=   8    Mass=  15.999        Charge= 0.17977+309
Lmxo=2 Lmxkb= 1    BasisType=split      Semic=F
L=0  Nsemic=0  Cnfigmx=2
          i=1  nzeta=2  polorb=0  (2s)
            splnorm:   0.28000    
               vcte:    40.000    
               rinn:  -0.90000    
               qcoe:    0.0000    
               qyuk:    0.0000    
               qwid:   0.10000E-01
                rcs:    0.0000      0.0000    
            lambdas:    1.0000      1.0000    
L=1  Nsemic=0  Cnfigmx=2
          i=1  nzeta=2  polorb=1  (2p)  (to be polarized perturbatively)
            splnorm:   0.28000    
               vcte:    40.000    
               rinn:  -0.90000    
               qcoe:    0.0000    
               qyuk:    0.0000    
               qwid:   0.10000E-01
                rcs:    0.0000      0.0000    
            lambdas:    1.0000      1.0000    
L=2  Nsemic=0  Cnfigmx=3
          i=1  nzeta=0  polorb=0  (3d)  (perturbative polarization orbital) (from 2p)
-------------------------------------------------------------------------------
L=0  Nkbl=1  erefs: 0.17977+309
L=1  Nkbl=1  erefs: 0.17977+309
===============================================================================
</basis_specs>

Filter: Requested cutoff:  290.000000 Ry
Using PAO.SplitTailNorm
atom: Called for O                     (Z =   8)
NOTE: O pseudopotential has channels up to l= 1
NOTE: PAOs with higher l will be generated with V_local
Maximum radius (at nrval) set to   50.00000 8518

read_vps: Pseudopotential generation method:
read_vps: ATM4.2.7  Troullier-Martins                       
Valence charge in pseudo generation:    6.00000

xc_check: Exchange-correlation functional:
xc_check: VDW Dion-Rydberg-Schroeder-Langreth-Lundqvist
xc_check: WARNING: Pseudopotential generated with GGA PBE functional
V l=0 = -2*Zval/r beyond r=  1.1230
V l=1 = -2*Zval/r beyond r=  1.1184
All V_l potentials equal beyond r=  1.0390
This should be close to max(r_c) in ps generation
All pots = -2*Zval/r beyond r=  1.1230
Using small-core scheme (local charge) for Vlocal

VLOCAL_FROM_CHLOCAL: 99.0% of the norm of Vloc inside     40.211 Ry
VLOCAL_FROM_CHLOCAL: 99.9% of the norm of Vloc inside     91.641 Ry
atom: Maximum radius for chlocal:    1.25723
atom: Maximum radius for r*vlocal+2*Zval:    1.14816

KBgen: Kleinman-Bylander projectors: 
GHOST: No ghost state for L =  0
   l= 0   rc=  1.271242   el= -1.784657   Ekb= 11.268089   kbcos=  0.313867
GHOST: No ghost state for L =  1
j- l= 1   rc=  1.269961   el= -0.695401   Ekb= -8.886955   kbcos= -0.355177
GHOST: No ghost state for L =  1
j+ l= 1   rc=  1.269961   el= -0.692711   Ekb= -8.855911   kbcos= -0.354559

KBgen: Total number of Kleinman-Bylander projectors:   7
atom: -------------------------------------------------------------------------

atom: SANKEY-TYPE ORBITALS:
atom: Selected multiple-zeta basis: split     

SPLIT: Orbitals with angular momentum L= 0

SPLIT: Basis orbitals for state 2s

SPLIT: PAO cut-off radius determined from an
SPLIT: energy shift=  0.005000 Ry
Split based on tail norm

   izeta = 1
                 lambda =    1.000000
                     rc =    3.812214
                 energy =   -1.779044
                kinetic =    1.624693
    potential(screened) =   -3.403738
       potential(ionic) =  -11.313325
PAO Filter: Cutoff used:  142.10 Ry
PAO Filter: diagnostic kin energy tol:    0.003000 Ry
PAO Filter: Nominal cutoff (before filtering):   59.92 Ry
Filter:    Number of eigenfunctions  of the
           filtering kernel (total, used)= 40 13

   izeta = 2
                 rmatch =    1.889954
              splitnorm =    0.280000
                 energy =   -0.729163
                kinetic =    3.852214
    potential(screened) =   -4.581377
       potential(ionic) =  -13.487404
PAO Filter: Cutoff used:  142.10 Ry
PAO Filter: diagnostic kin energy tol:    0.003000 Ry
PAO Filter: Nominal cutoff (before filtering):  120.35 Ry
Filter:    Number of eigenfunctions  of the
           filtering kernel (total, used)= 25  6

SPLIT: Orbitals with angular momentum L= 1

SPLIT: Basis orbitals for state 2p

SPLIT: PAO cut-off radius determined from an
SPLIT: energy shift=  0.005000 Ry
Split based on tail norm

   izeta = 1
                 lambda =    1.000000
                     rc =    4.733759
                 energy =   -0.688004
                kinetic =    4.997037
    potential(screened) =   -5.685042
       potential(ionic) =  -13.376353
PAO Filter: Cutoff used:  142.10 Ry
PAO Filter: diagnostic kin energy tol:    0.003000 Ry
PAO Filter: Nominal cutoff (before filtering):   97.24 Ry
Filter:    Number of eigenfunctions  of the
           filtering kernel (total, used)= 47 16

   izeta = 2
                 rmatch =    2.253313
              splitnorm =    0.280000
                 energy =   -0.198863
                kinetic =    8.668496
    potential(screened) =   -8.867359
       potential(ionic) =  -17.747599
PAO Filter: Cutoff used:  142.10 Ry
PAO Filter: diagnostic kin energy tol:    0.003000 Ry
PAO Filter: Nominal cutoff (before filtering):  104.26 Ry
Filter:    Number of eigenfunctions  of the
           filtering kernel (total, used)= 27  6
*Note: V_local used for l= 2

** Using vlocal for PAOs with L= 2

POLgen: Perturbative polarization orbital with L=  2

POLgen: Polarization orbital for state 2p
*Note: V_local used for lpol= 2

** Using vlocal for PAOs with L= 2
Split based on tail norm

   izeta = 1
                     rc =    4.733759
                 energy =    2.113982
                kinetic =    3.939038
    potential(screened) =   -1.825056
       potential(ionic) =   -7.770803
PAO Filter: diagnostic kin energy tol:    0.003000 Ry
PAO Filter: Nominal cutoff (before filtering):  105.48 Ry
Filter:    Number of eigenfunctions  of the
           filtering kernel (total, used)= 47 15
atom: Total number of Sankey-type orbitals: 13

atm_pop: Valence configuration (for local Pseudopot. screening):
 2s( 2.00)                                                            
 2p( 4.00)                                                            
 3d( 0.00)                                                            
Vna: chval, zval:    6.00000   6.00000

Vna:  Cut-off radius for the neutral-atom potential:   4.733759
VNA Filter: diagnostic kinetic energy tol:    0.003000 Ry
VNA Filter: Nominal cutoff (before filtering):   51.81 Ry
VNA Filter: Cutoff used:   290.00 Ry
Filter:    Number of eigenfunctions  of the
           filtering kernel (total, used)= 62 24

atom: _________________________________________________________________________

prinput: Basis input 

PAO.BasisType split     

%block ChemicalSpeciesLabel
    1    1 H                       # Species index, atomic number, species label
    2    7 N                       # Species index, atomic number, species label
    3   14 Si                      # Species index, atomic number, species label
    4    8 O                       # Species index, atomic number, species label
%endblock ChemicalSpeciesLabel

%block PAO.Basis                 # Define Basis set
# WARNING: This information might be incomplete!
H                     1                    # Species label, number of l-shells
 n=1   0   2 P   1                   # n, l, Nzeta, Polarization, NzetaPol
   5.738      1.624   
   1.000      1.000   
N                     2                    # Species label, number of l-shells
 n=2   0   2                         # n, l, Nzeta 
   4.257      2.169   
   1.000      1.000   
 n=2   1   2 P   1                   # n, l, Nzeta, Polarization, NzetaPol
   5.285      2.604   
   1.000      1.000   
Si                    2                    # Species label, number of l-shells
 n=3   0   2                         # n, l, Nzeta 
   5.819      3.320   
   1.000      1.000   
 n=3   1   2 P   1                   # n, l, Nzeta, Polarization, NzetaPol
   7.641      4.391   
   1.000      1.000   
O                     2                    # Species label, number of l-shells
 n=2   0   2                         # n, l, Nzeta 
   3.812      1.890   
   1.000      1.000   
 n=2   1   2 P   1                   # n, l, Nzeta, Polarization, NzetaPol
   4.734      2.253   
   1.000      1.000   
%endblock PAO.Basis

prinput: ----------------------------------------------------------------------

Dumping basis to NetCDF file H.ion.nc
Dumping basis to NetCDF file N.ion.nc
Dumping basis to NetCDF file Si.ion.nc
Dumping basis to NetCDF file O.ion.nc
coor:   Atomic-coordinates input format  =     Cartesian coordinates
coor:                                          (in Angstroms)

siesta: Atomic coordinates (Bohr) and species
siesta:      1.95986   6.79064  -0.00000  1        1
siesta:      0.62480   5.29769  -0.00000  2        2
siesta:     -2.64497   6.13175   0.00000  3        3
siesta:     -2.93935   8.94743   0.00000  1        4
siesta:     -5.52363   3.18584  -0.00000  3        5
siesta:     -8.32645   3.64472  -0.00000  1        6
siesta:     -3.25900  -0.42973  -0.00000  3        7
siesta:     -4.70658  -3.32614  -0.00000  2        8
siesta:     -3.59118  -5.13501   0.00000  1        9
siesta:     -6.69386  -3.47819  -0.00000  1       10
siesta:     -0.01585  -0.32546   0.00000  2       11
siesta:      2.01564   2.18851  -0.00000  3       12
siesta:      5.05560   2.15297  -0.00000  4       13
siesta:     10.61355 -14.07759   0.00000  1       14
siesta:      8.65886 -13.66657   0.00000  2       15
siesta:      6.22979 -16.04876   0.00000  3       16
siesta:      7.18318 -18.71532  -0.00000  1       17
siesta:      3.13570 -15.14355   0.00000  2       18
siesta:      3.17659 -11.72506  -0.00000  3       19
siesta:      1.03072  -8.10005   0.00000  3       20
siesta:     -1.95457  -7.45403   0.00000  4       21
siesta:      3.27351  -5.43711   0.00000  2       22
siesta:      2.28576  -3.64645  -0.00000  1       23
siesta:      6.63017  -5.24735   0.00000  3       24
siesta:      7.81750  -2.22872   0.00000  2       25
siesta:      6.69523  -0.49602   0.00000  1       26
siesta:      9.79567  -1.98858  -0.00000  1       27
siesta:      8.75489  -7.70104  -0.00000  2       28
siesta:      7.16982 -10.55665   0.00000  3       29

siesta: System type = molecule  

initatomlists: Number of atoms, orbitals, and projectors:     29   297   313

siesta: ******************** Simulation parameters ****************************
siesta:
siesta: The following are some of the parameters of the simulation.
siesta: A complete list of the parameters used, including default values,
siesta: can be found in file out.fdf
siesta:
redata: Spin configuration                          = spin-orbit+offsite
redata: Number of spin components                   = 8
redata: Time-Reversal Symmetry                      = F
redata: Spin spiral                                 = F
redata: Long output                                 =   F
redata: Number of Atomic Species                    =        4
redata: Charge density info will appear in .RHO file
redata: Write Mulliken Pop.                         = NO
redata: Matel table size (NRTAB)                    =     1024
redata: Mesh Cutoff                                 =   300.0000 Ry
redata: Net charge of the system                    =     0.0000 |e|
redata: Min. number of SCF Iter                     =        1
redata: Max. number of SCF Iter                     =      200
redata: SCF convergence failure will abort job
redata: SCF mix quantity                            = Hamiltonian
redata: Mix DM or H after convergence               =   F
redata: Recompute H after scf cycle                 =   F
redata: Mix DM in first SCF step                    =   T
redata: Write Pulay info on disk                    =   F
redata: New DM Occupancy tolerance                  = 0.000000000001
redata: No kicks to SCF
redata: DM Mixing Weight for Kicks                  =     0.5000
redata: Require Harris convergence for SCF          =   F
redata: Harris energy tolerance for SCF             =     0.000100 eV
redata: Require DM convergence for SCF              =   T
redata: DM tolerance for SCF                        =     0.000008
redata: Require EDM convergence for SCF             =   F
redata: EDM tolerance for SCF                       =     0.001000 eV
redata: Require H convergence for SCF               =   T
redata: Hamiltonian tolerance for SCF               =     0.000001 eV
redata: Require (free) Energy convergence for SCF   =   F
redata: (free) Energy tolerance for SCF             =     0.000100 eV
redata: Using DFT-D3 dispersion                     =   F
redata: Using Saved Data (generic)                  =   F
redata: Use continuation files for DM               =   T
redata: Neglect nonoverlap interactions             =   F
redata: Method of Calculation                       = Diagonalization
redata: Electronic Temperature                      =     1.0000 K
redata: Fix the spin of the system                  =   F
redata: Split SR and SO contributions               =   F
redata: Max. number of TDED Iter                    =        1
redata: Number of TDED substeps                     =        3
redata: Dynamics option                             = Broyden coord. optimization
redata: Variable cell                               =   F
redata: Maximum number of optimization moves        =     1000
redata: Force tolerance                             =     0.0080 eV/Ang
mix.SCF: Pulay mixing                            = Pulay
mix.SCF:    Variant                              = stable
mix.SCF:    History steps                        = 6
mix.SCF:    Linear mixing weight                 =     0.250000
mix.SCF:    Mixing weight                        =     0.250000
mix.SCF:    SVD condition                        = 0.1000E-07
mix.SCF:    Restart steps                        = 24
mix.SCF:    Restart save steps                   = 3
mix.SCF: Spin-component mixing                   all
redata: Save all siesta data in one NC              =   F
redata: ***********************************************************************

%block SCF.Mixers
  Pulay
%endblock SCF.Mixers

%block SCF.Mixer.Pulay
  # Mixing method
  method pulay
  variant stable

  # Mixing options
  weight 0.2500
  weight.linear 0.2500
  history 6
  restart 24
  restart.save 3
%endblock SCF.Mixer.Pulay

DM_history_depth set to one: no extrapolation allowed by default for geometry relaxation
Size of DM history Fstack: 1
Total number of electrons:    98.000000
Total ionic charge:    98.000000

* ProcessorY, Blocksize:    8   9


* Orbital distribution balance (max,min):    18     9


siesta: k-grid: Number of k-points = 1
siesta: k-point is Gamma-only

diag: Algorithm                                     = ELPA-2stage
diag: ELPA GPU string key                           = nvidia-gpu
diag: Parallel over k                               =   F
diag: Use parallel 2D distribution                  =   T
diag: Parallel block-size                           = 9
diag: Parallel distribution                         =     4 x     8
diag: Used triangular part                          = Lower
diag: Absolute tolerance                            =  0.100E-15
diag: Orthogonalization factor                      =  0.100E-05
diag: Memory factor                                 =  1.0000

siesta: Constraints applied in the following order:
siesta: Constraint v=[  0.00000,  0.00000,  1.00000] (29): pos-dir
  [ 1 -- 29 ]
siesta: Constraint (1): pos
  [ 7 ]


ts: **************************************************************
ts: Save H and S matrices                           =    F
ts: Save DM and EDM matrices                        =    F
ts: Only save the overlap matrix S                  =    F
ts: **************************************************************

************************ Begin: TS CHECKS AND WARNINGS ************************
************************ End: TS CHECKS AND WARNINGS **************************


                     ====================================
                        Begin Broyden opt. move =      0
                     ====================================

outcoor: Atomic coordinates (Ang):                          
    1.03711479    3.59345352    0.00000000   1       1  H
    0.33062806    2.80341734    0.00000000   2       2  N
   -1.39965885    3.24478125    0.00000000   3       3  Si
   -1.55543853    4.73477351    0.00000000   1       4  H
   -2.92298047    1.68587373    0.00000000   3       5  Si
   -4.40616810    1.92870409    0.00000000   1       6  H
   -1.72458961   -0.22740243    0.00000000   3       7  Si
   -2.49061507   -1.76011917    0.00000000   2       8  N
   -1.90036852   -2.71733220    0.00000000   1       9  H
   -3.54223739   -1.84057940    0.00000000   1      10  H
   -0.00838955   -0.17222812    0.00000000   2      11  N
    1.06663307    1.15811072    0.00000000   3      12  Si
    2.67530639    1.13930046    0.00000000   4      13  O
    5.61644830   -7.44953905    0.00000000   1      14  H
    4.58206954   -7.23203760    0.00000000   2      15  N
    3.29666389   -8.49263600    0.00000000   3      16  Si
    3.80117524   -9.90371886    0.00000000   1      17  H
    1.65934232   -8.01362137    0.00000000   2      18  N
    1.68097912   -6.20463398    0.00000000   3      19  Si
    0.54543521   -4.28636135    0.00000000   3      20  Si
   -1.03431493   -3.94450034    0.00000000   4      21  O
    1.73226934   -2.87719605    0.00000000   2      22  N
    1.20957366   -1.92961761    0.00000000   1      23  H
    3.50853448   -2.77677601    0.00000000   3      24  Si
    4.13684451   -1.17938608    0.00000000   2      25  N
    3.54296161   -0.26248101    0.00000000   1      26  H
    5.18364407   -1.05231197    0.00000000   1      27  H
    4.63288658   -4.07521596    0.00000000   2      28  N
    3.79410501   -5.58634043    0.00000000   3      29  Si

outcell: Unit cell vectors (Ang):
       18.663680    0.000000    0.000000
        0.000000   23.664587    0.000000
        0.000000    0.000000    9.854683

outcell: Cell vector modules (Ang)   :   18.663680   23.664587    9.854683
outcell: Cell angles (23,13,12) (deg):     90.0000     90.0000     90.0000
outcell: Cell volume (Ang**3)        :   4352.5009
<dSpData1D:S at geom step 0
  <sparsity:sparsity for geom step 0
    nrows_g=297 nrows=18 sparsity=.0429 nnzs=3781, refcount: 8>
  <dData1D:(new from dSpData1D) n=3781, refcount: 1>
refcount: 1>
new_DM -- step:     1
Initializing Density Matrix...

Attempting to read DM from file... Failed...
DM filled with atomic data:
<dSpData2D:DM initialized from atoms
  <sparsity:sparsity for geom step 0
    nrows_g=297 nrows=18 sparsity=.0429 nnzs=3781, refcount: 9>
  <dData2D:DM n=3781 m=8, refcount: 1>
refcount: 1>
     spin moment: {S} , |S| = {    0.00000    0.00000   56.00000 }    56.00000

InitMesh: MESH = 200 x 250 x 108 = 5400000
InitMesh: Mesh cutoff (required, used) =   300.000   308.450 Ry
New grid distribution [1]: sub = 2
New grid distribution [2]: sub = 2
New grid distribution [3]: sub = 2
Setting up quadratic distribution...

stepf: Fermi-Dirac step function

siesta: Program's energy decomposition (eV):
siesta: Ebs     =      -740.928658
siesta: Eions   =      8956.034415
siesta: Ena     =      1887.509819
siesta: Ekin    =      3078.771128
siesta: Enl(+so)=     -2339.220520
siesta: Eso(nil)=         0.000000
siesta: Edftu   =         0.000000
siesta: DEna    =        50.301459
siesta: DUscf   =        55.668515
siesta: DUext   =         0.000000
siesta: Ex      =     -2344.419870
siesta: Ec      =      -209.008994
siesta: Exc     =     -2553.428864
siesta: EbV     =         0.000000
siesta: eta*DQ  =         0.000000
siesta: Emadel  =         0.000000
siesta: Emeta   =         0.000000
siesta: Emolmec =         0.000000
siesta: Ekinion =         0.000000
siesta: Eharris =     -8741.011223
siesta: Etot    =     -8776.432879
siesta: FreeEng =     -8776.432879

        iscf     Eharris(eV)        E_KS(eV)     FreeEng(eV)     dDmax    Ef(eV) dHmax(eV)
   scf:    1    -8741.011223    -8776.432879    -8776.432879  0.906664 -4.238528 15.961080
     spin moment: {S} , |S| = {   -0.05784   -0.05784    1.99867 }     2.00034
timer: Routine,Calls,Time,% = IterSCF        1       5.818  15.75
   scf:    2    -8804.482376    -8799.620255    -8799.620255  0.530834 -3.914596  8.791561
     spin moment: {S} , |S| = {   -0.07856   -0.07856    1.99732 }     2.00041
   scf:    3    -8771.415852    -8795.965162    -8795.965162  0.492405 -4.045183 10.844904
     spin moment: {S} , |S| = {   -0.09115   -0.09115    1.99648 }     2.00064
   scf:    4    -8811.130672    -8806.518818    -8806.518818  0.306838 -4.122824  4.393095
     spin moment: {S} , |S| = {   -0.00533   -0.00533    0.00019 }     0.00754
   scf:    5    -8807.523202    -8807.090568    -8807.090568  0.038997 -3.736927  2.787822
     spin moment: {S} , |S| = {   -0.00333   -0.00333    0.00009 }     0.00471
   scf:    6    -8807.880875    -8807.484676    -8807.484676  0.034648 -4.067258  1.668303
     spin moment: {S} , |S| = {   -0.00162   -0.00162    0.00003 }     0.00228
   scf:    7    -8807.786084    -8807.634709    -8807.634709  0.021346 -3.906742  0.753125
     spin moment: {S} , |S| = {   -0.00084   -0.00085    0.00000 }     0.00120
   scf:    8    -8807.715921    -8807.675321    -8807.675321  0.008938 -3.901711  0.432144
     spin moment: {S} , |S| = {   -0.00054   -0.00054   -0.00000 }     0.00076
   scf:    9    -8807.710878    -8807.692618    -8807.692618  0.006748 -3.919261  0.361469
     spin moment: {S} , |S| = {   -0.00034   -0.00034   -0.00000 }     0.00048
   scf:   10    -8807.739361    -8807.711627    -8807.711627  0.018736 -3.980829  0.129570
     spin moment: {S} , |S| = {   -0.00003   -0.00003   -0.00000 }     0.00004
   scf:   11    -8807.713352    -8807.712518    -8807.712518  0.002767 -3.984439  0.068992
     spin moment: {S} , |S| = {   -0.00002   -0.00002   -0.00000 }     0.00002
   scf:   12    -8807.713152    -8807.712842    -8807.712842  0.001012 -3.981684  0.027814
     spin moment: {S} , |S| = {   -0.00001   -0.00001   -0.00000 }     0.00002
   scf:   13    -8807.713091    -8807.712963    -8807.712963  0.001133 -3.980443  0.014767
     spin moment: {S} , |S| = {   -0.00001   -0.00001   -0.00000 }     0.00001
   scf:   14    -8807.713070    -8807.713014    -8807.713014  0.000920 -3.980607  0.009502
     spin moment: {S} , |S| = {   -0.00000   -0.00001   -0.00000 }     0.00001
   scf:   15    -8807.713060    -8807.713035    -8807.713035  0.000614 -3.980887  0.007491
     spin moment: {S} , |S| = {   -0.00000   -0.00000   -0.00000 }     0.00001
   scf:   16    -8807.713079    -8807.713054    -8807.713054  0.000872 -3.980960  0.003887
     spin moment: {S} , |S| = {   -0.00000   -0.00000   -0.00000 }     0.00000
   scf:   17    -8807.713067    -8807.713059    -8807.713059  0.000566 -3.980894  0.001591
     spin moment: {S} , |S| = {   -0.00000   -0.00000   -0.00000 }     0.00000
   scf:   18    -8807.713061    -8807.713060    -8807.713060  0.000185 -3.980886  0.000766
     spin moment: {S} , |S| = {   -0.00000   -0.00000   -0.00000 }     0.00000
   scf:   19    -8807.713060    -8807.713060    -8807.713060  0.000077 -3.980894  0.000396
     spin moment: {S} , |S| = {   -0.00000   -0.00000   -0.00000 }     0.00000
   scf:   20    -8807.713060    -8807.713060    -8807.713060  0.000040 -3.980897  0.000168
     spin moment: {S} , |S| = {   -0.00000   -0.00000    0.00000 }     0.00000
   scf:   21    -8807.713059    -8807.713059    -8807.713059  0.000010 -3.980897  0.000087
     spin moment: {S} , |S| = {   -0.00000   -0.00000    0.00000 }     0.00000
   scf:   22    -8807.713059    -8807.713059    -8807.713059  0.000005 -3.980895  0.000053
     spin moment: {S} , |S| = {   -0.00000   -0.00000    0.00000 }     0.00000
   scf:   23    -8807.713059    -8807.713059    -8807.713059  0.000004 -3.980895  0.000021
     spin moment: {S} , |S| = {   -0.00000   -0.00000    0.00000 }     0.00000
   scf:   24    -8807.713059    -8807.713059    -8807.713059  0.000002 -3.980895  0.000016
     spin moment: {S} , |S| = {   -0.00000   -0.00000    0.00000 }     0.00000
mix: Pulay -- resetting history
   scf:   25    -8807.713059    -8807.713059    -8807.713059  0.000001 -3.980895  0.000011
     spin moment: {S} , |S| = {   -0.00000   -0.00000    0.00000 }     0.00000
   scf:   26    -8807.713059    -8807.713059    -8807.713059  0.000001 -3.980896  0.000006
     spin moment: {S} , |S| = {   -0.00000   -0.00000    0.00000 }     0.00000
   scf:   27    -8807.713059    -8807.713059    -8807.713059  0.000001 -3.980896  0.000004
     spin moment: {S} , |S| = {   -0.00000   -0.00000    0.00000 }     0.00000
   scf:   28    -8807.713059    -8807.713059    -8807.713059  0.000001 -3.980895  0.000001
     spin moment: {S} , |S| = {   -0.00000   -0.00000    0.00000 }     0.00000
   scf:   29    -8807.713059    -8807.713059    -8807.713059  0.000000 -3.980895  0.000001
     spin moment: {S} , |S| = {   -0.00000   -0.00000    0.00000 }     0.00000

SCF Convergence by DM+H criterion
max |DM_out - DM_in|         :     0.0000000815
max |H_out - H_in|      (eV) :     0.0000009178
SCF cycle converged after 29 iterations

Using DM_out to compute the final energy and forces

siesta: E_KS(eV) =            -8807.7131

siesta: E_KS - E_eggbox =     -8807.7131
     spin moment: {S} , |S| = {   -0.00000   -0.00000    0.00000 }     0.00000

siesta: Atomic forces (eV/Ang):
     1    0.212872   -0.409149    0.000000
     2    0.242454    0.090443   -0.000000
     3   -0.103403    0.286570    0.000000
     4   -0.286307    0.144215    0.000000
     5   -0.046434    0.126467   -0.000000
     6    0.130636   -0.224043    0.000000
     7    0.125675   -0.165685    0.000000
     8   -0.143457   -0.069574   -0.000000
     9   -4.171832    1.846569   -0.000000
    10    3.643827   -1.606737    0.000000
    11   -0.084930    0.326905   -0.000000
    12    0.352779   -0.173094   -0.000000
    13   -0.930129    0.162497    0.000000
    14    0.253872    0.899723    0.000000
    15    0.243255   -0.153205   -0.000000
    16   -0.125442   -0.353996    0.000000
    17   -0.785509   -0.419310   -0.000000
    18    0.346717   -0.082339   -0.000000
    19    0.021147    0.224334    0.000000
    20   -0.429449    0.089613    0.000000
    21    0.714468   -0.214808   -0.000000
    22   -0.030855    0.243216   -0.000000
    23    2.866098    1.148927   -0.000000
    24    0.224582    0.092361    0.000000
    25    0.104979    0.159506   -0.000000
    26    0.499692   -2.814517   -0.000000
    27   -2.571613    0.903864    0.000000
    28   -0.451498    0.012954   -0.000000
    29    0.125455    0.119998   -0.000000
----------------------------------------
   Tot   -0.052348    0.191705   -0.000000
----------------------------------------
   Max    4.171832
   Res    0.876286    sqrt( Sum f_i^2 / 3N )
----------------------------------------
   Max    4.171832    constrained

Stress tensor Voigt[x,y,z,yz,xz,xy] (kbar):        5.93        1.67       -0.02        0.00       -0.00       -1.09
(Free)E + p*V (eV/cell)    -8814.5704
Target enthalpy (eV/cell)    -8807.7131

Broyden_optim: max_history for broyden:   5
Broyden_optim: cycle on maxit: T
Broyden_optim: initial inverse jacobian:   1.0000

Broyden_optim: No of elements:     87

                     ====================================
                        Begin Broyden opt. move =      1
                     ====================================

outcoor: Atomic coordinates (Ang):                          
    1.04149605    3.58503253    0.00000000   1       1  H
    0.33561817    2.80527881    0.00000000   2       2  N
   -1.40178706    3.25067934    0.00000000   3       3  Si
   -1.56133122    4.73774170    0.00000000   1       4  H
   -2.92393616    1.68847664    0.00000000   3       5  Si
   -4.40347938    1.92409290    0.00000000   1       6  H
   -1.72458961   -0.22740243    0.00000000   3       7  Si
   -2.49356765   -1.76155111    0.00000000   2       8  N
   -1.98623198   -2.67932665    0.00000000   1       9  H
   -3.46724117   -1.87364881    0.00000000   1      10  H
   -0.01013756   -0.16549986    0.00000000   2      11  N
    1.07389387    1.15454815    0.00000000   3      12  Si
    2.65616275    1.14264493    0.00000000   4      13  O
    5.62167342   -7.43102121    0.00000000   1      14  H
    4.58707614   -7.23519083    0.00000000   2      15  N
    3.29408208   -8.49992184    0.00000000   3      16  Si
    3.78500812   -9.91234898    0.00000000   1      17  H
    1.66647835   -8.01531605    0.00000000   2      18  N
    1.68141437   -6.20001681    0.00000000   3      19  Si
    0.53659641   -4.28451697    0.00000000   3      20  Si
   -1.01960994   -3.94892146    0.00000000   4      21  O
    1.73163430   -2.87219024    0.00000000   2      22  N
    1.26856287   -1.90597072    0.00000000   1      23  H
    3.51315677   -2.77487505    0.00000000   3      24  Si
    4.13900515   -1.17610318    0.00000000   2      25  N
    3.55324613   -0.32040860    0.00000000   1      26  H
    5.13071586   -1.03370889    0.00000000   1      27  H
    4.62359398   -4.07494934    0.00000000   2      28  N
    3.79668708   -5.58387066    0.00000000   3      29  Si

outcell: Unit cell vectors (Ang):
       18.663680    0.000000    0.000000
        0.000000   23.664587    0.000000
        0.000000    0.000000    9.854683

outcell: Cell vector modules (Ang)   :   18.663680   23.664587    9.854683
outcell: Cell angles (23,13,12) (deg):     90.0000     90.0000     90.0000
outcell: Cell volume (Ang**3)        :   4352.5009
<dSpData1D:S at geom step 1
  <sparsity:sparsity for geom step 1
    nrows_g=297 nrows=18 sparsity=.0428 nnzs=3772, refcount: 8>
  <dData1D:(new from dSpData1D) n=3772, refcount: 1>
refcount: 1>
new_DM -- step:     2
Re-using DM from previous geometries...
Number of DMs in history: 1
 DM extrapolation coefficients: 
1   1.00000
New DM after history re-use:
<dSpData2D:SpM extrapolated using coords
  <sparsity:sparsity for geom step 1
    nrows_g=297 nrows=18 sparsity=.0428 nnzs=3772, refcount: 10>
  <dData2D:(temp array for extrapolation) n=3772 m=8, refcount: 1>
refcount: 1>
     spin moment: {S} , |S| = {    0.00009    0.00009    0.00000 }     0.00013
Note: For starting DM, Qtot, Tr[D*S] =         98.00000000         98.13646325

InitMesh: MESH = 200 x 250 x 108 = 5400000
InitMesh: Mesh cutoff (required, used) =   300.000   308.450 Ry
New grid distribution [1]: sub = 2
New grid distribution [2]: sub = 2
New grid distribution [3]: sub = 2
Setting up quadratic distribution...

        iscf     Eharris(eV)        E_KS(eV)     FreeEng(eV)     dDmax    Ef(eV) dHmax(eV)
   scf:    1    -8806.245764    -8807.098294    -8807.098294  0.039034 -3.778693  1.159078
     spin moment: {S} , |S| = {   -0.00000   -0.00000    0.00000 }     0.00000
   scf:    2    -8805.770837    -8806.736485    -8806.736485  0.044236 -3.620922  2.162779
     spin moment: {S} , |S| = {   -0.00000   -0.00000    0.00000 }     0.00000
   scf:    3    -8807.283687    -8807.172376    -8807.172376  0.029783 -3.749780  0.233181
     spin moment: {S} , |S| = {   -0.00000   -0.00000    0.00000 }     0.00000
   scf:    4    -8807.174773    -8807.173752    -8807.173752  0.001761 -3.760416  0.084684
     spin moment: {S} , |S| = {   -0.00000   -0.00000    0.00000 }     0.00000
   scf:    5    -8807.174035    -8807.173911    -8807.173911  0.000852 -3.764548  0.024350
     spin moment: {S} , |S| = {   -0.00000   -0.00000    0.00000 }     0.00000
   scf:    6    -8807.173954    -8807.173935    -8807.173935  0.000505 -3.766813  0.004179
     spin moment: {S} , |S| = {   -0.00000   -0.00000    0.00000 }     0.00000
   scf:    7    -8807.173942    -8807.173939    -8807.173939  0.000157 -3.767619  0.001601
     spin moment: {S} , |S| = {   -0.00000   -0.00000    0.00000 }     0.00000
   scf:    8    -8807.173940    -8807.173940    -8807.173940  0.000057 -3.767841  0.000867
     spin moment: {S} , |S| = {   -0.00000   -0.00000    0.00000 }     0.00000
   scf:    9    -8807.173940    -8807.173940    -8807.173940  0.000041 -3.767929  0.000383
     spin moment: {S} , |S| = {   -0.00000   -0.00000    0.00000 }     0.00000
   scf:   10    -8807.173940    -8807.173940    -8807.173940  0.000015 -3.767906  0.000250
     spin moment: {S} , |S| = {   -0.00000   -0.00000    0.00000 }     0.00000
   scf:   11    -8807.173940    -8807.173940    -8807.173940  0.000010 -3.767881  0.000106
     spin moment: {S} , |S| = {   -0.00000   -0.00000    0.00000 }     0.00000
   scf:   12    -8807.173940    -8807.173940    -8807.173940  0.000004 -3.767874  0.000056
     spin moment: {S} , |S| = {   -0.00000   -0.00000    0.00000 }     0.00000
   scf:   13    -8807.173940    -8807.173940    -8807.173940  0.000003 -3.767873  0.000021
     spin moment: {S} , |S| = {   -0.00000   -0.00000    0.00000 }     0.00000
   scf:   14    -8807.173940    -8807.173940    -8807.173940  0.000001 -3.767873  0.000009
     spin moment: {S} , |S| = {   -0.00000   -0.00000    0.00000 }     0.00000
   scf:   15    -8807.173940    -8807.173940    -8807.173940  0.000000 -3.767874  0.000004
     spin moment: {S} , |S| = {   -0.00000   -0.00000    0.00000 }     0.00000
   scf:   16    -8807.173940    -8807.173940    -8807.173940  0.000000 -3.767874  0.000002
     spin moment: {S} , |S| = {   -0.00000   -0.00000    0.00000 }     0.00000
   scf:   17    -8807.173940    -8807.173940    -8807.173940  0.000000 -3.767874  0.000001
     spin moment: {S} , |S| = {   -0.00000   -0.00000    0.00000 }     0.00000

SCF Convergence by DM+H criterion
max |DM_out - DM_in|         :     0.0000000409
max |H_out - H_in|      (eV) :     0.0000006121
SCF cycle converged after 17 iterations

Using DM_out to compute the final energy and forces

siesta: E_KS(eV) =            -8807.1739
     spin moment: {S} , |S| = {   -0.00000   -0.00000    0.00000 }     0.00000

siesta: Atomic forces (eV/Ang):
     1   -0.828028    0.236174    0.000000
     2   -0.057786   -0.050313   -0.000000
     3    0.134739    0.156611    0.000000
     4    0.853153   -0.318364    0.000000
     5    0.030356    0.038109   -0.000000
     6    0.089541   -0.379774    0.000000
     7    0.268229   -0.128575    0.000000
     8    2.054072    1.260389   -0.000000
     9   -0.465831    0.164529   -0.000000
    10   -1.453187   -0.601057    0.000000
    11   -0.193551    0.215893   -0.000000
    12   -0.661988    0.058340    0.000000
    13    0.149032    0.199982    0.000000
    14   -0.553534   -0.355536    0.000000
    15    0.076327   -0.059072   -0.000000
    16    0.117516   -0.206747    0.000000
    17    0.121558    0.690011   -0.000000
    18    0.167597    0.068579   -0.000000
    19    0.111501    0.168539    0.000000
    20    0.292678    0.026310   -0.000000
    21    0.037581   -0.200492    0.000000
    22    0.432678    0.189415   -0.000000
    23   -3.112910   -2.341120   -0.000000
    24    0.005374   -0.098380    0.000000
    25   -1.088390   -1.385186   -0.000000
    26   -1.014551    4.201136    0.000000
    27    4.899389   -1.275866   -0.000000
    28   -0.210916    0.142751   -0.000000
    29   -0.023609   -0.181300   -0.000000
----------------------------------------
   Tot    0.177038    0.234985    0.000000
----------------------------------------
   Max    4.899389
   Res    0.928987    sqrt( Sum f_i^2 / 3N )
----------------------------------------
   Max    4.899389    constrained

Stress tensor Voigt[x,y,z,yz,xz,xy] (kbar):       -3.09       -0.58       -0.02       -0.00       -0.00       -0.60
(Free)E + p*V (eV/cell)    -8803.8281
Target enthalpy (eV/cell)    -8807.1739

                     ====================================
                        Begin Broyden opt. move =      2
                     ====================================

outcoor: Atomic coordinates (Ang):                          
    1.03328522    3.58737446    0.00000000   1       1  H
    0.33504515    2.80477990    0.00000000   2       2  N
   -1.40045097    3.25223232    0.00000000   3       3  Si
   -1.55287125    4.73458476    0.00000000   1       4  H
   -2.92363515    1.68885454    0.00000000   3       5  Si
   -4.40259148    1.92032701    0.00000000   1       6  H
   -1.72458961   -0.22740243    0.00000000   3       7  Si
   -2.47319922   -1.74905294    0.00000000   2       8  N
   -1.99085122   -2.67769515    0.00000000   1       9  H
   -3.48165115   -1.87960897    0.00000000   1      10  H
   -0.01205683   -0.16335904    0.00000000   2      11  N
    1.06732951    1.15512666    0.00000000   3      12  Si
    2.65764057    1.14462798    0.00000000   4      13  O
    5.61618450   -7.43454675    0.00000000   1      14  H
    4.58783301   -7.23577659    0.00000000   2      15  N
    3.29524738   -8.50197196    0.00000000   3      16  Si
    3.78621350   -9.90550674    0.00000000   1      17  H
    1.66814027   -8.01463601    0.00000000   2      18  N
    1.68252003   -6.19834555    0.00000000   3      19  Si
    0.53949864   -4.28425608    0.00000000   3      20  Si
   -1.01923729   -3.95090957    0.00000000   4      21  O
    1.73592479   -2.87031198    0.00000000   2      22  N
    1.23769487   -1.92918556    0.00000000   1      23  H
    3.51321006   -2.77585061    0.00000000   3      24  Si
    4.12821254   -1.18983886    0.00000000   2      25  N
    3.54318571   -0.27874960    0.00000000   1      26  H
    5.17929882   -1.04636054    0.00000000   1      27  H
    4.62150251   -4.07353380    0.00000000   2      28  N
    3.79645297   -5.58566846    0.00000000   3      29  Si

outcell: Unit cell vectors (Ang):
       18.663680    0.000000    0.000000
        0.000000   23.664587    0.000000
        0.000000    0.000000    9.854683

outcell: Cell vector modules (Ang)   :   18.663680   23.664587    9.854683
outcell: Cell angles (23,13,12) (deg):     90.0000     90.0000     90.0000
outcell: Cell volume (Ang**3)        :   4352.5009
<dSpData1D:S at geom step 2
  <sparsity:sparsity for geom step 2
    nrows_g=297 nrows=18 sparsity=.0428 nnzs=3772, refcount: 8>
  <dData1D:(new from dSpData1D) n=3772, refcount: 1>
refcount: 1>
new_DM -- step:     3
Re-using DM from previous geometries...
Number of DMs in history: 1
 DM extrapolation coefficients: 
1   1.00000
New DM after history re-use:
<dSpData2D:SpM extrapolated using coords
  <sparsity:sparsity for geom step 2
    nrows_g=297 nrows=18 sparsity=.0428 nnzs=3772, refcount: 10>
  <dData2D:(temp array for extrapolation) n=3772 m=8, refcount: 1>
refcount: 1>
     spin moment: {S} , |S| = {   -0.00005   -0.00005    0.00000 }     0.00007

InitMesh: MESH = 200 x 250 x 108 = 5400000
InitMesh: Mesh cutoff (required, used) =   300.000   308.450 Ry
New grid distribution [1]: sub = 2
New grid distribution [2]: sub = 2
New grid distribution [3]: sub = 2
Setting up quadratic distribution...

        iscf     Eharris(eV)        E_KS(eV)     FreeEng(eV)     dDmax    Ef(eV) dHmax(eV)
   scf:    1    -8807.791391    -8807.613193    -8807.613193  0.035085 -3.500077  1.079954
     spin moment: {S} , |S| = {   -0.00000   -0.00000   -0.00000 }     0.00000
   scf:    2    -8807.294427    -8807.531904    -8807.531904  0.035950 -3.407174  1.342942
     spin moment: {S} , |S| = {   -0.00000   -0.00000   -0.00000 }     0.00000
   scf:    3    -8807.667393    -8807.640357    -8807.640357  0.023429 -3.489034  0.240803
     spin moment: {S} , |S| = {   -0.00000   -0.00000   -0.00000 }     0.00000
   scf:    4    -8807.641584    -8807.641074    -8807.641074  0.001996 -3.487553  0.070593
     spin moment: {S} , |S| = {   -0.00000   -0.00000   -0.00000 }     0.00000
   scf:    5    -8807.641191    -8807.641144    -8807.641144  0.000625 -3.488750  0.014823
     spin moment: {S} , |S| = {   -0.00000   -0.00000   -0.00000 }     0.00000
   scf:    6    -8807.641156    -8807.641151    -8807.641151  0.000296 -3.488767  0.002406
     spin moment: {S} , |S| = {   -0.00000   -0.00000   -0.00000 }     0.00000
   scf:    7    -8807.641152    -8807.641152    -8807.641152  0.000103 -3.488772  0.000851
     spin moment: {S} , |S| = {   -0.00000   -0.00000   -0.00000 }     0.00000
   scf:    8    -8807.641152    -8807.641152    -8807.641152  0.000034 -3.488906  0.000590
     spin moment: {S} , |S| = {   -0.00000   -0.00000   -0.00000 }     0.00000
   scf:    9    -8807.641152    -8807.641152    -8807.641152  0.000025 -3.488989  0.000231
     spin moment: {S} , |S| = {   -0.00000   -0.00000   -0.00000 }     0.00000
   scf:   10    -8807.641152    -8807.641152    -8807.641152  0.000011 -3.489040  0.000114
     spin moment: {S} , |S| = {   -0.00000   -0.00000   -0.00000 }     0.00000
   scf:   11    -8807.641152    -8807.641152    -8807.641152  0.000006 -3.489069  0.000054
     spin moment: {S} , |S| = {   -0.00000   -0.00000   -0.00000 }     0.00000
   scf:   12    -8807.641152    -8807.641152    -8807.641152  0.000001 -3.489072  0.000033
     spin moment: {S} , |S| = {   -0.00000   -0.00000   -0.00000 }     0.00000
   scf:   13    -8807.641152    -8807.641152    -8807.641152  0.000001 -3.489071  0.000014
     spin moment: {S} , |S| = {   -0.00000   -0.00000   -0.00000 }     0.00000
   scf:   14    -8807.641152    -8807.641152    -8807.641152  0.000001 -3.489071  0.000003
     spin moment: {S} , |S| = {   -0.00000   -0.00000   -0.00000 }     0.00000
   scf:   15    -8807.641152    -8807.641152    -8807.641152  0.000000 -3.489070  0.000001
     spin moment: {S} , |S| = {   -0.00000   -0.00000   -0.00000 }     0.00000
   scf:   16    -8807.641152    -8807.641152    -8807.641152  0.000000 -3.489070  0.000001
     spin moment: {S} , |S| = {   -0.00000   -0.00000   -0.00000 }     0.00000

SCF Convergence by DM+H criterion
max |DM_out - DM_in|         :     0.0000000266
max |H_out - H_in|      (eV) :     0.0000006342
SCF cycle converged after 16 iterations

Using DM_out to compute the final energy and forces

siesta: E_KS(eV) =            -8807.6412
     spin moment: {S} , |S| = {   -0.00000   -0.00000   -0.00000 }     0.00000

siesta: Atomic forces (eV/Ang):
     1    0.671109   -0.354819    0.000000
     2   -0.110171   -0.059706   -0.000000
     3    0.080935    0.030220    0.000000
     4   -0.595733    0.424151    0.000000
     5    0.060926    0.044296   -0.000000
     6    0.060901   -0.386843    0.000000
     7    0.461708    0.308136    0.000000
     8   -0.175109    0.564127   -0.000000
     9    0.585171   -0.120124   -0.000000
    10   -0.183983   -0.007541   -0.000000
    11   -0.185437    0.195274    0.000000
    12   -0.280213    0.040683   -0.000000
    13   -0.090951    0.128234    0.000000
    14   -0.126552   -0.004799    0.000000
    15   -0.078372   -0.057397   -0.000000
    16    0.054987   -0.030367    0.000000
    17   -0.103017    0.184492   -0.000000
    18    0.174930    0.062283   -0.000000
    19    0.091442    0.103463    0.000000
    20    0.262912    0.018609   -0.000000
    21    0.121217   -0.159926    0.000000
    22    0.244323   -0.227293   -0.000000
    23   -1.065660   -0.374790    0.000000
    24   -0.130996   -0.229258    0.000000
    25    0.590993    0.504965   -0.000000
    26    1.120081   -0.465617   -0.000000
    27   -1.147102    0.223518    0.000000
    28   -0.190882   -0.004980   -0.000000
    29    0.035792   -0.096711   -0.000000
----------------------------------------
   Tot    0.153249    0.252278    0.000000
----------------------------------------
   Max    1.147102
   Res    0.297529    sqrt( Sum f_i^2 / 3N )
----------------------------------------
   Max    1.147102    constrained

Stress tensor Voigt[x,y,z,yz,xz,xy] (kbar):        1.14       -0.06       -0.02       -0.00        0.00        0.15
(Free)E + p*V (eV/cell)    -8808.6012
Target enthalpy (eV/cell)    -8807.6412

                     ====================================
                        Begin Broyden opt. move =      3
                     ====================================

outcoor: Atomic coordinates (Ang):                          
    1.04168155    3.58287621    0.00000000   1       1  H
    0.33361005    2.80399659    0.00000000   2       2  N
   -1.39936967    3.25266720    0.00000000   3       3  Si
   -1.56028994    4.73995141    0.00000000   1       4  H
   -2.92284199    1.68943590    0.00000000   3       5  Si
   -4.40178130    1.91523611    0.00000000   1       6  H
   -1.72458961   -0.22740243    0.00000000   3       7  Si
   -2.47485163   -1.74142199    0.00000000   2       8  N
   -1.98345503   -2.67919326    0.00000000   1       9  H
   -3.48444516   -1.87988211    0.00000000   1      10  H
   -0.01450058   -0.16078212    0.00000000   2      11  N
    1.06352855    1.15566744    0.00000000   3      12  Si
    2.65651345    1.14633725    0.00000000   4      13  O
    5.61439331   -7.43471266    0.00000000   1      14  H
    4.58684651   -7.23653274    0.00000000   2      15  N
    3.29598962   -8.50242343    0.00000000   3      16  Si
    3.78492302   -9.90292973    0.00000000   1      17  H
    1.67044115   -8.01381419    0.00000000   2      18  N
    1.68372979   -6.19696435    0.00000000   3      19  Si
    0.54296873   -4.28400882    0.00000000   3      20  Si
   -1.01766591   -3.95302696    0.00000000   4      21  O
    1.73919659   -2.87318233    0.00000000   2      22  N
    1.22306526   -1.93469584    0.00000000   1      23  H
    3.51152538   -2.77883056    0.00000000   3      24  Si
    4.13550131   -1.18374443    0.00000000   2      25  N
    3.55730682   -0.28351266    0.00000000   1      26  H
    5.16596785   -1.04385703    0.00000000   1      27  H
    4.61898359   -4.07355609    0.00000000   2      28  N
    3.79690678   -5.58696648    0.00000000   3      29  Si

outcell: Unit cell vectors (Ang):
       18.663680    0.000000    0.000000
        0.000000   23.664587    0.000000
        0.000000    0.000000    9.854683

outcell: Cell vector modules (Ang)   :   18.663680   23.664587    9.854683
outcell: Cell angles (23,13,12) (deg):     90.0000     90.0000     90.0000
outcell: Cell volume (Ang**3)        :   4352.5009
<dSpData1D:S at geom step 3
  <sparsity:sparsity for geom step 3
    nrows_g=297 nrows=18 sparsity=.0428 nnzs=3772, refcount: 8>
  <dData1D:(new from dSpData1D) n=3772, refcount: 1>
refcount: 1>
new_DM -- step:     4
Re-using DM from previous geometries...
Number of DMs in history: 1
 DM extrapolation coefficients: 
1   1.00000
New DM after history re-use:
<dSpData2D:SpM extrapolated using coords
  <sparsity:sparsity for geom step 3
    nrows_g=297 nrows=18 sparsity=.0428 nnzs=3772, refcount: 10>
  <dData2D:(temp array for extrapolation) n=3772 m=8, refcount: 1>
refcount: 1>
     spin moment: {S} , |S| = {    0.00000    0.00000    0.00000 }     0.00000

InitMesh: MESH = 200 x 250 x 108 = 5400000
InitMesh: Mesh cutoff (required, used) =   300.000   308.450 Ry
New grid distribution [1]: sub = 2
New grid distribution [2]: sub = 2
New grid distribution [3]: sub = 2
Setting up quadratic distribution...

        iscf     Eharris(eV)        E_KS(eV)     FreeEng(eV)     dDmax    Ef(eV) dHmax(eV)
   scf:    1    -8807.579706    -8807.632900    -8807.632900  0.011601 -3.558122  0.312300
     spin moment: {S} , |S| = {   -0.00000   -0.00000   -0.00000 }     0.00000
   scf:    2    -8807.536703    -8807.605362    -8807.605362  0.010737 -3.477297  0.785621
     spin moment: {S} , |S| = {   -0.00000   -0.00000   -0.00000 }     0.00000
   scf:    3    -8807.642457    -8807.636655    -8807.636655  0.008815 -3.530406  0.093340
     spin moment: {S} , |S| = {   -0.00000   -0.00000   -0.00000 }     0.00000
   scf:    4    -8807.636862    -8807.636785    -8807.636785  0.000496 -3.523268  0.024054
     spin moment: {S} , |S| = {   -0.00000   -0.00000   -0.00000 }     0.00000
   scf:    5    -8807.636798    -8807.636794    -8807.636794  0.000159 -3.519988  0.005234
     spin moment: {S} , |S| = {   -0.00000   -0.00000   -0.00000 }     0.00000
   scf:    6    -8807.636796    -8807.636795    -8807.636795  0.000038 -3.519401  0.002455
     spin moment: {S} , |S| = {   -0.00000   -0.00000   -0.00000 }     0.00000
   scf:    7    -8807.636796    -8807.636796    -8807.636796  0.000034 -3.519080  0.000604
     spin moment: {S} , |S| = {   -0.00000   -0.00000   -0.00000 }     0.00000
   scf:    8    -8807.636796    -8807.636796    -8807.636796  0.000009 -3.519046  0.000214
     spin moment: {S} , |S| = {   -0.00000   -0.00000   -0.00000 }     0.00000
   scf:    9    -8807.636796    -8807.636796    -8807.636796  0.000005 -3.519022  0.000099
     spin moment: {S} , |S| = {   -0.00000   -0.00000   -0.00000 }     0.00000
   scf:   10    -8807.636796    -8807.636796    -8807.636796  0.000003 -3.519006  0.000070
     spin moment: {S} , |S| = {   -0.00000   -0.00000   -0.00000 }     0.00000
   scf:   11    -8807.636796    -8807.636796    -8807.636796  0.000002 -3.518998  0.000031
     spin moment: {S} , |S| = {   -0.00000   -0.00000   -0.00000 }     0.00000
   scf:   12    -8807.636796    -8807.636796    -8807.636796  0.000001 -3.518997  0.000012
     spin moment: {S} , |S| = {   -0.00000   -0.00000   -0.00000 }     0.00000
   scf:   13    -8807.636796    -8807.636796    -8807.636796  0.000001 -3.518997  0.000004
     spin moment: {S} , |S| = {   -0.00000   -0.00000   -0.00000 }     0.00000
   scf:   14    -8807.636796    -8807.636796    -8807.636796  0.000000 -3.518998  0.000002
     spin moment: {S} , |S| = {   -0.00000   -0.00000   -0.00000 }     0.00000
   scf:   15    -8807.636796    -8807.636796    -8807.636796  0.000000 -3.518998  0.000001
     spin moment: {S} , |S| = {   -0.00000   -0.00000   -0.00000 }     0.00000

SCF Convergence by DM+H criterion
max |DM_out - DM_in|         :     0.0000000679
max |H_out - H_in|      (eV) :     0.0000009304
SCF cycle converged after 15 iterations

Using DM_out to compute the final energy and forces

siesta: E_KS(eV) =            -8807.6368
     spin moment: {S} , |S| = {   -0.00000   -0.00000   -0.00000 }     0.00000

siesta: Atomic forces (eV/Ang):
     1   -0.928416    0.256321    0.000000
     2   -0.013236    0.032683   -0.000000
     3    0.010213    0.159192    0.000000
     4    0.946207   -0.357431    0.000000
     5    0.088023    0.033003   -0.000000
     6    0.045553   -0.373992    0.000000
     7    0.445872    0.480853    0.000000
     8   -0.207899    0.118140   -0.000000
     9    1.518389   -0.543415   -0.000000
    10   -1.186555    0.625532    0.000000
    11   -0.173367    0.115511    0.000000
    12   -0.071213    0.036527   -0.000000
    13   -0.242185    0.159078    0.000000
    14   -0.025763    0.071629    0.000000
    15   -0.075272   -0.044917   -0.000000
    16    0.036406   -0.004414    0.000000
    17   -0.150166    0.060926   -0.000000
    18    0.147605    0.075658   -0.000000
    19    0.081009    0.055237    0.000000
    20    0.193073   -0.022680   -0.000000
    21    0.162350   -0.106120    0.000000
    22   -0.022174    0.025270   -0.000000
    23    0.907925    0.634964    0.000000
    24    0.019515    0.139135    0.000000
    25   -0.084999   -0.068489   -0.000000
    26   -3.709652   -0.060685   -0.000000
    27    2.566588   -1.130399    0.000000
    28   -0.145729   -0.044943   -0.000000
    29    0.033313   -0.083257   -0.000000
----------------------------------------
   Tot    0.165417    0.238921   -0.000000
----------------------------------------
   Max    3.709652
   Res    0.589416    sqrt( Sum f_i^2 / 3N )
----------------------------------------
   Max    3.709652    constrained

Stress tensor Voigt[x,y,z,yz,xz,xy] (kbar):        1.23        0.40       -0.02       -0.00        0.00        1.59
(Free)E + p*V (eV/cell)    -8809.0927
Target enthalpy (eV/cell)    -8807.6368

                     ====================================
                        Begin Broyden opt. move =      4
                     ====================================

outcoor: Atomic coordinates (Ang):                          
    1.03846209    3.58360257    0.00000000   1       1  H
    0.33348559    2.80413251    0.00000000   2       2  N
   -1.39934099    3.25334358    0.00000000   3       3  Si
   -1.55693353    4.73886532    0.00000000   1       4  H
   -2.92238734    1.68960740    0.00000000   3       5  Si
   -4.40157086    1.91336267    0.00000000   1       6  H
   -1.72458961   -0.22740243    0.00000000   3       7  Si
   -2.47745353   -1.74122483    0.00000000   2       8  N
   -1.97534643   -2.68201092    0.00000000   1       9  H
   -3.48924679   -1.87648349    0.00000000   1      10  H
   -0.01536235   -0.16020278    0.00000000   2      11  N
    1.06339623    1.15583812    0.00000000   3      12  Si
    2.65516963    1.14707335    0.00000000   4      13  O
    5.61454357   -7.43412494    0.00000000   1      14  H
    4.58636124   -7.23675839    0.00000000   2      15  N
    3.29613125   -8.50232681    0.00000000   3      16  Si
    3.78402601   -9.90295493    0.00000000   1      17  H
    1.67118868   -8.01344418    0.00000000   2      18  N
    1.68412206   -6.19672401    0.00000000   3      19  Si
[...]
   -1.58759057    4.75832817    0.00000000   1       4  H
   -2.91773985    1.68380588    0.00000000   3       5  Si
   -4.39711812    1.83333216    0.00000000   1       6  H
   -1.72458961   -0.22740243    0.00000000   3       7  Si
   -2.48437051   -1.75034267    0.00000000   2       8  N
   -1.97817851   -2.68078080    0.00000000   1       9  H
   -3.49147382   -1.92256028    0.00000000   1      10  H
   -0.02892100   -0.15876131    0.00000000   2      11  N
    1.02185857    1.17342898    0.00000000   3      12  Si
    2.60949458    1.17704497    0.00000000   4      13  O
    5.65496816   -7.46870657    0.00000000   1      14  H
    4.62927853   -7.26870264    0.00000000   2      15  N
    3.34697389   -8.53219485    0.00000000   3      16  Si
    3.81312685   -9.93040120    0.00000000   1      17  H
    1.72610646   -8.05061092    0.00000000   2      18  N
    1.73284072   -6.24270469    0.00000000   3      19  Si
    0.57166938   -4.35302508    0.00000000   3      20  Si
   -0.99098466   -4.03286121    0.00000000   4      21  O
    1.74720219   -2.93112142    0.00000000   2      22  N
    1.21533688   -2.00683048    0.00000000   1      23  H
    3.51434305   -2.81303941    0.00000000   3      24  Si
    4.11982509   -1.21017778    0.00000000   2      25  N
    3.50878464   -0.33251095    0.00000000   1      26  H
    5.15388671   -1.06250590    0.00000000   1      27  H
    4.62292234   -4.10014604    0.00000000   2      28  N
    3.83286352   -5.62527321    0.00000000   3      29  Si

outcell: Unit cell vectors (Ang):
       18.663680    0.000000    0.000000
        0.000000   23.664587    0.000000
        0.000000    0.000000    9.854683

outcell: Cell vector modules (Ang)   :   18.663680   23.664587    9.854683
outcell: Cell angles (23,13,12) (deg):     90.0000     90.0000     90.0000
outcell: Cell volume (Ang**3)        :   4352.5009
<dSpData1D:S at geom step 80
  <sparsity:sparsity for geom step 80
    nrows_g=297 nrows=18 sparsity=.0427 nnzs=3768, refcount: 8>
  <dData1D:(new from dSpData1D) n=3768, refcount: 1>
refcount: 1>
new_DM -- step:    81
Re-using DM from previous geometries...
Number of DMs in history: 1
 DM extrapolation coefficients: 
1   1.00000
New DM after history re-use:
<dSpData2D:SpM extrapolated using coords
  <sparsity:sparsity for geom step 80
    nrows_g=297 nrows=18 sparsity=.0427 nnzs=3768, refcount: 10>
  <dData2D:(temp array for extrapolation) n=3768 m=8, refcount: 1>
refcount: 1>
     spin moment: {S} , |S| = {   -0.00000   -0.00000   -0.00000 }     0.00000

InitMesh: MESH = 200 x 250 x 108 = 5400000
InitMesh: Mesh cutoff (required, used) =   300.000   308.450 Ry
New grid distribution [1]: sub = 2
New grid distribution [2]: sub = 2
New grid distribution [3]: sub = 2
Setting up quadratic distribution...

        iscf     Eharris(eV)        E_KS(eV)     FreeEng(eV)     dDmax    Ef(eV) dHmax(eV)
   scf:    1    -8807.752890    -8807.753005    -8807.753005  0.000234 -3.264734  0.005714
     spin moment: {S} , |S| = {   -0.00000   -0.00000   -0.00000 }     0.00000
   scf:    2    -8807.752941    -8807.752987    -8807.752987  0.000356 -3.706018  0.021439
     spin moment: {S} , |S| = {   -0.00000   -0.00000   -0.00000 }     0.00000
   scf:    3    -8807.753012    -8807.753008    -8807.753008  0.000293 -3.264769  0.000770
     spin moment: {S} , |S| = {   -0.00000   -0.00000   -0.00000 }     0.00000
   scf:    4    -8807.753008    -8807.753008    -8807.753008  0.000008 -3.264781  0.000373
     spin moment: {S} , |S| = {   -0.00000   -0.00000   -0.00000 }     0.00000
   scf:    5    -8807.753008    -8807.753008    -8807.753008  0.000004 -3.264790  0.000116
     spin moment: {S} , |S| = {   -0.00000   -0.00000   -0.00000 }     0.00000
   scf:    6    -8807.753008    -8807.753008    -8807.753008  0.000001 -3.264797  0.000052
     spin moment: {S} , |S| = {   -0.00000   -0.00000   -0.00000 }     0.00000
   scf:    7    -8807.753008    -8807.753008    -8807.753008  0.000001 -3.264800  0.000018
     spin moment: {S} , |S| = {   -0.00000   -0.00000   -0.00000 }     0.00000
   scf:    8    -8807.753008    -8807.753008    -8807.753008  0.000000 -3.264800  0.000005
     spin moment: {S} , |S| = {   -0.00000   -0.00000   -0.00000 }     0.00000
   scf:    9    -8807.753008    -8807.753008    -8807.753008  0.000000 -3.264800  0.000002
     spin moment: {S} , |S| = {   -0.00000   -0.00000   -0.00000 }     0.00000
   scf:   10    -8807.753008    -8807.753008    -8807.753008  0.000000 -3.264800  0.000001
     spin moment: {S} , |S| = {   -0.00000   -0.00000   -0.00000 }     0.00000

SCF Convergence by DM+H criterion
max |DM_out - DM_in|         :     0.0000000916
max |H_out - H_in|      (eV) :     0.0000006987
SCF cycle converged after 10 iterations

Using DM_out to compute the final energy and forces

siesta: E_KS(eV) =            -8807.7530
     spin moment: {S} , |S| = {   -0.00000   -0.00000   -0.00000 }     0.00000

siesta: Atomic forces (eV/Ang):
     1   -0.001349   -0.005218   -0.000000
     2   -0.003425   -0.004637   -0.000000
     3   -0.000939   -0.000196    0.000000
     4    0.006128   -0.001217    0.000000
     5   -0.001227    0.000190   -0.000000
     6   -0.000747    0.003633    0.000000
     7    0.045098    0.181182   -0.000000
     8   -0.000026    0.001720    0.000000
     9    0.003120    0.000246   -0.000000
    10   -0.006117    0.005031   -0.000000
    11   -0.000365   -0.005155   -0.000000
    12    0.000077   -0.003100    0.000000
    13   -0.003751    0.000288    0.000000
    14   -0.007769    0.006029    0.000000
    15    0.004308    0.001800   -0.000000
    16    0.002436   -0.002378    0.000000
    17    0.011602    0.004111   -0.000000
    18    0.001678   -0.000857   -0.000000
    19   -0.002786   -0.001788    0.000000
    20   -0.004390   -0.002652    0.000000
    21   -0.000813    0.008222    0.000000
    22    0.002304   -0.009006   -0.000000
    23    0.000562   -0.011662    0.000000
    24    0.001066   -0.002610    0.000000
    25    0.003960   -0.002815   -0.000000
    26   -0.003304   -0.000358    0.000000
    27   -0.004515    0.001933    0.000000
    28    0.001651   -0.001141   -0.000000
    29   -0.003125    0.001552   -0.000000
----------------------------------------
   Tot    0.039343    0.161146    0.000000
----------------------------------------
   Max    0.181182
   Res    0.020285    sqrt( Sum f_i^2 / 3N )
----------------------------------------
   Max    0.011662    constrained

Stress tensor Voigt[x,y,z,yz,xz,xy] (kbar):        0.01       -0.01       -0.02       -0.00       -0.00        0.13
(Free)E + p*V (eV/cell)    -8807.7302
Target enthalpy (eV/cell)    -8807.7530

                     ====================================
                        Begin Broyden opt. move =     81
                     ====================================

outcoor: Atomic coordinates (Ang):                          
    0.99466806    3.58032984    0.00000000   1       1  H
    0.28363298    2.81202576    0.00000000   2       2  N
   -1.43680539    3.28028103    0.00000000   3       3  Si
   -1.58784427    4.75825624    0.00000000   1       4  H
   -2.91825243    1.68367821    0.00000000   3       5  Si
   -4.39762002    1.83346656    0.00000000   1       6  H
   -1.72458961   -0.22740243    0.00000000   3       7  Si
   -2.48452746   -1.75028589    0.00000000   2       8  N
   -1.97849722   -2.68073656    0.00000000   1       9  H
   -3.49163488   -1.92228569    0.00000000   1      10  H
   -0.02896456   -0.15929827    0.00000000   2      11  N
    1.02149313    1.17310894    0.00000000   3      12  Si
    2.60909544    1.17703994    0.00000000   4      13  O
    5.65591860   -7.46824833    0.00000000   1      14  H
    4.63025118   -7.26907570    0.00000000   2      15  N
    3.34849335   -8.53314195    0.00000000   3      16  Si
    3.81568662   -9.93102457    0.00000000   1      17  H
    1.72746749   -8.05196935    0.00000000   2      18  N
    1.73332541   -6.24387630    0.00000000   3      19  Si
    0.57167742   -4.35431028    0.00000000   3      20  Si
   -0.99059700   -4.03240941    0.00000000   4      21  O
    1.74760562   -2.93310526    0.00000000   2      22  N
    1.21540598   -2.00908239    0.00000000   1      23  H
    3.51464287   -2.81401757    0.00000000   3      24  Si
    4.11948213   -1.21085069    0.00000000   2      25  N
    3.50795467   -0.33341948    0.00000000   1      26  H
    5.15342033   -1.06258823    0.00000000   1      27  H
    4.62341703   -4.10090774    0.00000000   2      28  N
    3.83325823   -5.62601379    0.00000000   3      29  Si

outcell: Unit cell vectors (Ang):
       18.663680    0.000000    0.000000
        0.000000   23.664587    0.000000
        0.000000    0.000000    9.854683

outcell: Cell vector modules (Ang)   :   18.663680   23.664587    9.854683
outcell: Cell angles (23,13,12) (deg):     90.0000     90.0000     90.0000
outcell: Cell volume (Ang**3)        :   4352.5009
<dSpData1D:S at geom step 81
  <sparsity:sparsity for geom step 81
    nrows_g=297 nrows=18 sparsity=.0427 nnzs=3768, refcount: 8>
  <dData1D:(new from dSpData1D) n=3768, refcount: 1>
refcount: 1>
new_DM -- step:    82
Re-using DM from previous geometries...
Number of DMs in history: 1
 DM extrapolation coefficients: 
1   1.00000
New DM after history re-use:
<dSpData2D:SpM extrapolated using coords
  <sparsity:sparsity for geom step 81
    nrows_g=297 nrows=18 sparsity=.0427 nnzs=3768, refcount: 10>
  <dData2D:(temp array for extrapolation) n=3768 m=8, refcount: 1>
refcount: 1>
     spin moment: {S} , |S| = {   -0.00000   -0.00000   -0.00000 }     0.00000

InitMesh: MESH = 200 x 250 x 108 = 5400000
InitMesh: Mesh cutoff (required, used) =   300.000   308.450 Ry
New grid distribution [1]: sub = 2
New grid distribution [2]: sub = 2
New grid distribution [3]: sub = 2
Setting up quadratic distribution...

        iscf     Eharris(eV)        E_KS(eV)     FreeEng(eV)     dDmax    Ef(eV) dHmax(eV)
   scf:    1    -8807.752443    -8807.753099    -8807.753099  0.000339 -3.705290  0.009165
     spin moment: {S} , |S| = {   -0.00000   -0.00000   -0.00000 }     0.00000
   scf:    2    -8807.752921    -8807.753048    -8807.753048  0.000631 -3.705019  0.037667
     spin moment: {S} , |S| = {   -0.00000   -0.00000   -0.00000 }     0.00000
   scf:    3    -8807.753116    -8807.753105    -8807.753105  0.000518 -3.705194  0.001001
     spin moment: {S} , |S| = {   -0.00000   -0.00000   -0.00000 }     0.00000
   scf:    4    -8807.753105    -8807.753105    -8807.753105  0.000011 -3.705162  0.000415
     spin moment: {S} , |S| = {   -0.00000   -0.00000   -0.00000 }     0.00000
   scf:    5    -8807.753105    -8807.753105    -8807.753105  0.000005 -3.705131  0.000121
     spin moment: {S} , |S| = {   -0.00000   -0.00000   -0.00000 }     0.00000
   scf:    6    -8807.753105    -8807.753105    -8807.753105  0.000002 -3.705123  0.000050
     spin moment: {S} , |S| = {   -0.00000   -0.00000   -0.00000 }     0.00000
   scf:    7    -8807.753105    -8807.753105    -8807.753105  0.000001 -3.705119  0.000021
     spin moment: {S} , |S| = {   -0.00000   -0.00000   -0.00000 }     0.00000
   scf:    8    -8807.753105    -8807.753105    -8807.753105  0.000001 -3.705117  0.000007
     spin moment: {S} , |S| = {   -0.00000   -0.00000   -0.00000 }     0.00000
   scf:    9    -8807.753105    -8807.753105    -8807.753105  0.000000 -3.705116  0.000002
     spin moment: {S} , |S| = {   -0.00000   -0.00000   -0.00000 }     0.00000
   scf:   10    -8807.753105    -8807.753105    -8807.753105  0.000000 -3.705116  0.000001
     spin moment: {S} , |S| = {   -0.00000   -0.00000   -0.00000 }     0.00000

SCF Convergence by DM+H criterion
max |DM_out - DM_in|         :     0.0000001220
max |H_out - H_in|      (eV) :     0.0000006656
SCF cycle converged after 10 iterations

Using DM_out to compute the final energy and forces

siesta: E_KS(eV) =            -8807.7531
     spin moment: {S} , |S| = {   -0.00000   -0.00000   -0.00000 }     0.00000

siesta: Atomic forces (eV/Ang):
     1    0.000859   -0.004102   -0.000000
     2   -0.002970   -0.003563   -0.000000
     3   -0.000317   -0.000252    0.000000
     4    0.003504   -0.000178    0.000000
     5   -0.000701    0.000036   -0.000000
     6   -0.000543    0.003181    0.000000
     7    0.042188    0.179846   -0.000000
     8    0.000180    0.002097    0.000000
     9   -0.003050    0.002572   -0.000000
    10   -0.002641    0.001453   -0.000000
    11   -0.000722   -0.005751   -0.000000
    12   -0.000409   -0.002859    0.000000
    13   -0.002691   -0.000552    0.000000
    14    0.003243    0.006894    0.000000
    15   -0.006954    0.004637   -0.000000
    16    0.001436    0.000153    0.000000
    17    0.007200    0.000867   -0.000000
    18   -0.000360   -0.001390   -0.000000
    19   -0.002702   -0.002118    0.000000
    20   -0.003904   -0.003386    0.000000
    21    0.000106    0.005338    0.000000
    22    0.002434   -0.007801   -0.000000
    23    0.005408   -0.006225    0.000000
    24    0.000958   -0.002803    0.000000
    25   -0.001307    0.000984   -0.000000
    26   -0.004861   -0.005857    0.000000
    27   -0.002094    0.001865    0.000000
    28    0.000892   -0.000620   -0.000000
    29   -0.002906    0.001064   -0.000000
----------------------------------------
   Tot    0.029275    0.163532    0.000000
----------------------------------------
   Max    0.179846
   Res    0.019983    sqrt( Sum f_i^2 / 3N )
----------------------------------------
   Max    0.007801    constrained

Stress tensor Voigt[x,y,z,yz,xz,xy] (kbar):        0.01       -0.01       -0.02       -0.00       -0.00        0.12
(Free)E + p*V (eV/cell)    -8807.7267
Target enthalpy (eV/cell)    -8807.7531

outcoor: Relaxed atomic coordinates (Ang):                  
    0.99466806    3.58032984    0.00000000   1       1  H
    0.28363298    2.81202576    0.00000000   2       2  N
   -1.43680539    3.28028103    0.00000000   3       3  Si
   -1.58784427    4.75825624    0.00000000   1       4  H
   -2.91825243    1.68367821    0.00000000   3       5  Si
   -4.39762002    1.83346656    0.00000000   1       6  H
   -1.72458961   -0.22740243    0.00000000   3       7  Si
   -2.48452746   -1.75028589    0.00000000   2       8  N
   -1.97849722   -2.68073656    0.00000000   1       9  H
   -3.49163488   -1.92228569    0.00000000   1      10  H
   -0.02896456   -0.15929827    0.00000000   2      11  N
    1.02149313    1.17310894    0.00000000   3      12  Si
    2.60909544    1.17703994    0.00000000   4      13  O
    5.65591860   -7.46824833    0.00000000   1      14  H
    4.63025118   -7.26907570    0.00000000   2      15  N
    3.34849335   -8.53314195    0.00000000   3      16  Si
    3.81568662   -9.93102457    0.00000000   1      17  H
    1.72746749   -8.05196935    0.00000000   2      18  N
    1.73332541   -6.24387630    0.00000000   3      19  Si
    0.57167742   -4.35431028    0.00000000   3      20  Si
   -0.99059700   -4.03240941    0.00000000   4      21  O
    1.74760562   -2.93310526    0.00000000   2      22  N
    1.21540598   -2.00908239    0.00000000   1      23  H
    3.51464287   -2.81401757    0.00000000   3      24  Si
    4.11948213   -1.21085069    0.00000000   2      25  N
    3.50795467   -0.33341948    0.00000000   1      26  H
    5.15342033   -1.06258823    0.00000000   1      27  H
    4.62341703   -4.10090774    0.00000000   2      28  N
    3.83325823   -5.62601379    0.00000000   3      29  Si

siesta: Program's energy decomposition (eV):
siesta: Ebs     =     -1130.852375
siesta: Eions   =      8956.034415
siesta: Ena     =      1892.561625
siesta: Ekin    =      2755.284318
siesta: Enl(+so)=     -2035.577768
siesta: Eso(nil)=         0.000000
siesta: Edftu   =         0.000000
siesta: DEna    =        16.708286
siesta: DUscf   =        11.816351
siesta: DUext   =         0.000000
siesta: Ex      =     -2284.868329
siesta: Ec      =      -207.643171
siesta: Exc     =     -2492.511501
siesta: EbV     =         0.000000
siesta: eta*DQ  =         0.000000
siesta: Emadel  =         0.000000
siesta: Emeta   =         0.000000
siesta: Emolmec =         0.000000
siesta: Ekinion =         0.000000
siesta: Eharris =     -8807.753105
siesta: Etot    =     -8807.753105
siesta: FreeEng =     -8807.753105

siesta: Final energy (eV):
siesta:  Band Struct. =   -1130.852375
siesta:       Kinetic =    2755.284318
siesta:       Hartree =    9016.187943
siesta:         Edftu =       0.000000
siesta:      Eso(nil) =       0.000000
siesta:    Ext. field =       0.000000
siesta:         Exch. =   -2284.868329
siesta:         Corr. =    -207.643171
siesta:     Bulk bias =       0.000000
siesta:   Exch.-corr. =   -2492.511501
siesta:  Ion-electron =  -20410.718721
siesta:       Ion-ion =    2324.004856
siesta:       Ekinion =       0.000000
siesta: D3 dispersion =       0.000000
siesta:         Total =   -8807.753105
siesta:         Fermi =      -3.705116

siesta: Atomic forces (eV/Ang):
siesta:      1    0.000859   -0.004102   -0.000000
siesta:      2   -0.002970   -0.003563   -0.000000
siesta:      3   -0.000317   -0.000252    0.000000
siesta:      4    0.003504   -0.000178    0.000000
siesta:      5   -0.000701    0.000036   -0.000000
siesta:      6   -0.000543    0.003181    0.000000
siesta:      7    0.042188    0.179846   -0.000000
siesta:      8    0.000180    0.002097    0.000000
siesta:      9   -0.003050    0.002572   -0.000000
siesta:     10   -0.002641    0.001453   -0.000000
siesta:     11   -0.000722   -0.005751   -0.000000
siesta:     12   -0.000409   -0.002859    0.000000
siesta:     13   -0.002691   -0.000552    0.000000
siesta:     14    0.003243    0.006894    0.000000
siesta:     15   -0.006954    0.004637   -0.000000
siesta:     16    0.001436    0.000153    0.000000
siesta:     17    0.007200    0.000867   -0.000000
siesta:     18   -0.000360   -0.001390   -0.000000
siesta:     19   -0.002702   -0.002118    0.000000
siesta:     20   -0.003904   -0.003386    0.000000
siesta:     21    0.000106    0.005338    0.000000
siesta:     22    0.002434   -0.007801   -0.000000
siesta:     23    0.005408   -0.006225    0.000000
siesta:     24    0.000958   -0.002803    0.000000
siesta:     25   -0.001307    0.000984   -0.000000
siesta:     26   -0.004861   -0.005857    0.000000
siesta:     27   -0.002094    0.001865    0.000000
siesta:     28    0.000892   -0.000620   -0.000000
siesta:     29   -0.002906    0.001064   -0.000000
siesta: ----------------------------------------
siesta:    Tot    0.029275    0.163532    0.000000

siesta: Stress tensor (static) (eV/Ang**3):
siesta:     0.000004    0.000076   -0.000000
siesta:     0.000076   -0.000009    0.000000
siesta:    -0.000000   -0.000000   -0.000014

siesta: Cell volume =       4352.500882 Ang**3

siesta: Pressure (static):
siesta:                Solid            Molecule  Units
siesta:           0.00000007         -0.00000003  Ry/Bohr**3
siesta:           0.00000606         -0.00000318  eV/Ang**3
siesta:           0.00970936         -0.00508731  kBar
(Free)E+ p_basis*V_orbitals  =       -8793.427042
(Free)Eharris+ p_basis*V_orbitals  =       -8793.427042
     spin moment: {S} , |S| = {   -0.00000   -0.00000   -0.00000 }     0.00000

siesta: Electric dipole (a.u.)  =   -0.177213    1.660540   -0.000000
siesta: Electric dipole (Debye) =   -0.450432    4.220673   -0.000000

cite: Please see "GC.bib" for an exhaustive BiBTeX file.
cite: Please clearly indicate Siesta version in published work: 5.1-MaX-41-g6ad11e234
cite: This calculation has made use of the following articles
cite: which are encouraged to be cited in a published work.
        Primary SIESTA paper
          DOI: www.doi.org/10.1088/0953-8984/14/11/302
        Spin-orbit coupling (off-site approximation)
          DOI: www.doi.org/10.1088/0953-8984/24/8/086005
        ELPA library
          DOI: www.doi.org/10.1088/0953-8984/26/21/213201


>> End of run:  12-OCT-2024  16:28:31
Job completed
