Siesta Version  : v4.1.5-1-g384057250
Architecture    : gcc
Compiler version: GNU Fortran (Debian 10.2.1-6) 10.2.1 20210110
Compiler flags  : mpifort -O2 -fPIC -ftree-vectorize -fallow-argument-mismatch
PP flags        : -DFC_HAVE_ABORT -DMPI -DSIESTA__FLOOK -DSIESTA__METIS -DSIESTA__MUMPS -DCDF -DNCDF -DNCDF_4 -DNCDF_PARALLEL -DSIESTA__MRRR -DSIESTA__ELPA
Libraries       : libncdf.a libfdict.a  -lflookall -ldl -lnetcdff -lnetcdf -lhdf5_hl -lhdf5 -lhdf5_fortran -lz -lscalapack-openmpi -lopenblas -lmetis -lzmumps -lcmumps -ldmumps -lmumps_common -lpord -lsmumps -lesmumps -lscotch -lscotcherr -fopenmp -lelpa
PARALLEL version
NetCDF support
NetCDF-4 support
NetCDF-4 MPI-IO support
METIS ordering support
Lua support

* Running on 6 nodes in parallel
>> Start of run:  16-OCT-2023  19:19:09

                           ***********************       
                           *  WELCOME TO SIESTA  *       
                           ***********************       

reinit: Reading from standard input
reinit: Dumped input in INPUT_TMP.05010
************************** Dump of input data file ****************************
# mpirun -np 4 siesta-4.1.5 < GC.fdf > GC.out &
SystemLabel      GC
NumberOfAtoms    29
NumberOfSpecies  4
%block ChemicalSpeciesLabel
    1    1  H
    2    7  N
    3   14  Si
    4    8  O
%endblock ChemicalSpeciesLabel
############################################
# This overrides Defaults.fdf configuration
############################################
MD.TypeOfRun                CG # CG, Verlet
MD.Steps                    0
MaxSCFIterations            600
AtomicCoordinatesFormat NotScaledCartesianAng
%block AtomicCoordinatesAndAtomicSpecies
    -1.3928552741418376 7.209978237934777 0.0  1  1  H
    -2.0993420041418376 6.419942057934777 0.0  2  2  N
    -3.8296289141418374 6.8613059679347765 0.0  3  3  Si
    -3.9854085941418376 8.351298227934777 0.0  1  4  H
    -5.352950534141838 5.3023984479347765 0.0  3  5  Si
    -6.836138164141838 5.545228807934777 0.0  1  6  H
    -4.154559674141837 3.3891222879347764 0.0  3  7  Si
    -4.920585134141838 1.8564055479347765 0.0  2  8  N
    -4.330338584141837 0.8991925179347766 0.0  1  9  H
    -5.972207454141838 1.7759453179347766 0.0  1  10  H
    -2.4383596141418376 3.4442965979347764 0.0  2  11  N
    -1.3633369941418376 4.774635437934776 0.0  3  12  Si
    0.24533632585816223 4.755825177934777 0.0  4  13  O
    5.6164483 -7.44953905 0.0  1  14  H
    4.58206954 -7.2320376 0.0  2  15  N
    3.29666389 -8.492636 0.0  3  16  Si
    3.80117524 -9.90371886 -0.0  1  17  H
    1.65934232 -8.01362137 0.0  2  18  N
    1.68097912 -6.20463398 -0.0  3  19  Si
    0.54543521 -4.28636135 0.0  3  20  Si
    -1.03431493 -3.94450034 0.0  4  21  O
    1.73226934 -2.87719605 0.0  2  22  N
    1.20957366 -1.92961761 -0.0  1  23  H
    3.50853448 -2.77677601 0.0  3  24  Si
    4.13684451 -1.17938608 0.0  2  25  N
    3.54296161 -0.26248101 0.0  1  26  H
    5.18364407 -1.05231197 -0.0  1  27  H
    4.63288658 -4.07521596 -0.0  2  28  N
    3.79410501 -5.58634043 0.0  3  29  Si
%endblock AtomicCoordinatesAndAtomicSpecies
%include ../../../../Defaults.fdf
************************** End of input data file *****************************

reinit: -----------------------------------------------------------------------
reinit: System Name: 
reinit: -----------------------------------------------------------------------
reinit: System Label: GC
reinit: -----------------------------------------------------------------------

initatom: Reading input for the pseudopotentials and atomic orbitals ----------
Species number:   1 Atomic number:    1 Label: H
Species number:   2 Atomic number:    7 Label: N
Species number:   3 Atomic number:   14 Label: Si
Species number:   4 Atomic number:    8 Label: O

Ground state valence configuration:   1s01
Reading pseudopotential information in formatted form from H.psf

Pseudopotential generated from a relativistic atomic calculation

Valence configuration for pseudopotential generation:
1s( 1.00) rc: 0.01
2p( 0.00) rc: 0.60
3d( 0.00) rc: 1.99
4f( 0.00) rc: 2.49
Ground state valence configuration:   2s02  2p03
Reading pseudopotential information in formatted form from N.psf

Pseudopotential generated from a relativistic atomic calculation

Valence configuration for pseudopotential generation:
2s( 2.00) rc: 0.94
2p( 3.00) rc: 0.59
3d( 0.00) rc: 3.46
4f( 0.00) rc: 2.47
Ground state valence configuration:   3s02  3p02
Reading pseudopotential information in formatted form from Si.psf

Pseudopotential generated from a relativistic atomic calculation

Valence configuration for pseudopotential generation:
3s( 2.00) rc: 1.67
3p( 2.00) rc: 2.04
3d( 0.00) rc: 2.89
4f( 0.00) rc: 2.49
Ground state valence configuration:   2s02  2p04
Reading pseudopotential information in formatted form from O.psf

Pseudopotential generated from a relativistic atomic calculation

Valence configuration for pseudopotential generation:
2s( 2.00) rc: 0.45
2p( 4.00) rc: 0.92
3d( 0.00) rc: 2.24
4f( 0.00) rc: 0.25
For H, standard SIESTA heuristics set lmxkb to 2
 (one more than the basis l, including polarization orbitals).
Use PS.lmax or PS.KBprojectors blocks to override.
For N, standard SIESTA heuristics set lmxkb to 3
 (one more than the basis l, including polarization orbitals).
Use PS.lmax or PS.KBprojectors blocks to override.
For Si, standard SIESTA heuristics set lmxkb to 3
 (one more than the basis l, including polarization orbitals).
Use PS.lmax or PS.KBprojectors blocks to override.
For O, standard SIESTA heuristics set lmxkb to 3
 (one more than the basis l, including polarization orbitals).
Use PS.lmax or PS.KBprojectors blocks to override.

<basis_specs>
===============================================================================
H                    Z=   1    Mass=  1.0100        Charge= 0.17977+309
Lmxo=0 Lmxkb= 2    BasisType=split      Semic=F
L=0  Nsemic=0  Cnfigmx=1
          i=1  nzeta=2  polorb=1  (1s)
            splnorm:   0.62000    
               vcte:    0.0000    
               rinn:    0.0000    
               qcoe:    0.0000    
               qyuk:    0.0000    
               qwid:   0.10000E-01
                rcs:    0.0000      0.0000    
            lambdas:    1.0000      1.0000    
-------------------------------------------------------------------------------
L=0  Nkbl=1  erefs: 0.17977+309
L=1  Nkbl=1  erefs: 0.17977+309
L=2  Nkbl=1  erefs: 0.17977+309
===============================================================================
</basis_specs>

atom: Called for H                     (Z =   1)

read_vps: Pseudopotential generation method:
read_vps: ATM4.2.7  Troullier-Martins                       
Valence charge for ps generation:    1.00000

xc_check: Exchange-correlation functional:
xc_check: GGA Perdew, Burke & Ernzerhof 1996
V l=0 = -2*Zval/r beyond r=  0.0098
V l=1 = -2*Zval/r beyond r=  0.5817
V l=2 = -2*Zval/r beyond r=  1.9372
All V_l potentials equal beyond r=  1.9372
This should be close to max(r_c) in ps generation
All pots = -2*Zval/r beyond r=  1.9372

VLOCAL1: 99.0% of the norm of Vloc inside     11.567 Ry
VLOCAL1: 99.9% of the norm of Vloc inside     26.362 Ry
atom: Maximum radius for 4*pi*r*r*local-pseudopot. charge    2.25106
atom: Maximum radius for r*vlocal+2*Zval:    1.91306
GHOST: No ghost state for L =  0
GHOST: No ghost state for L =  1
GHOST: No ghost state for L =  2

KBgen: Kleinman-Bylander projectors: 
   l= 0   rc=  2.036604   el= -0.477180   Ekb= -6.081590   kbcos= -0.277285
   l= 1   rc=  2.195416   el=  0.001076   Ekb= -0.926943   kbcos= -0.034643
   l= 2   rc=  2.251056   el=  0.002010   Ekb= -0.130941   kbcos= -0.009788

KBgen: Total number of Kleinman-Bylander projectors:    9
atom: -------------------------------------------------------------------------

atom: SANKEY-TYPE ORBITALS:
atom: Selected multiple-zeta basis: split     

SPLIT: Orbitals with angular momentum L= 0

SPLIT: Basis orbitals for state 1s

SPLIT: PAO cut-off radius determined from an
SPLIT: energy shift=  0.002000 Ry

   izeta = 1
                 lambda =    1.000000
                     rc =    6.518340
                 energy =   -0.475305
                kinetic =    0.912139
    potential(screened) =   -1.387444
       potential(ionic) =   -1.907295

   izeta = 2
                 rmatch =    2.141150
              splitnorm =    0.620000
                 energy =    0.566467
                kinetic =    3.772856
    potential(screened) =   -3.206389
       potential(ionic) =   -3.759093

POLgen: Perturbative polarization orbital with L=  1

POLgen: Polarization orbital for state 1s

   izeta = 1
                     rc =    6.518340
                 energy =    0.533861
                kinetic =    1.121086
    potential(screened) =   -0.587225
       potential(ionic) =   -1.053027
atom: Total number of Sankey-type orbitals:  5

atm_pop: Valence configuration (for local Pseudopot. screening):
 1s( 1.00)                                                            
Vna: chval, zval:    1.00000   1.00000

Vna:  Cut-off radius for the neutral-atom potential:   6.518340

atom: _________________________________________________________________________

<basis_specs>
===============================================================================
N                    Z=   7    Mass=  14.010        Charge= 0.17977+309
Lmxo=1 Lmxkb= 3    BasisType=split      Semic=F
L=0  Nsemic=0  Cnfigmx=2
          i=1  nzeta=2  polorb=0  (2s)
            splnorm:   0.28000    
               vcte:    0.0000    
               rinn:    0.0000    
               qcoe:    0.0000    
               qyuk:    0.0000    
               qwid:   0.10000E-01
                rcs:    0.0000      0.0000    
            lambdas:    1.0000      1.0000    
L=1  Nsemic=0  Cnfigmx=2
          i=1  nzeta=2  polorb=1  (2p)
            splnorm:   0.28000    
               vcte:    0.0000    
               rinn:    0.0000    
               qcoe:    0.0000    
               qyuk:    0.0000    
               qwid:   0.10000E-01
                rcs:    0.0000      0.0000    
            lambdas:    1.0000      1.0000    
-------------------------------------------------------------------------------
L=0  Nkbl=1  erefs: 0.17977+309
L=1  Nkbl=1  erefs: 0.17977+309
L=2  Nkbl=1  erefs: 0.17977+309
L=3  Nkbl=1  erefs: 0.17977+309
===============================================================================
</basis_specs>

atom: Called for N                     (Z =   7)

read_vps: Pseudopotential generation method:
read_vps: ATM4.2.7  Troullier-Martins                       
Valence charge for ps generation:    5.00000

xc_check: Exchange-correlation functional:
xc_check: GGA Perdew, Burke & Ernzerhof 1996
V l=0 = -2*Zval/r beyond r=  1.2889
V l=1 = -2*Zval/r beyond r=  1.2889
V l=2 = -2*Zval/r beyond r=  3.4178
V l=3 = -2*Zval/r beyond r=  2.4084
All V_l potentials equal beyond r=  3.3753
This should be close to max(r_c) in ps generation
All pots = -2*Zval/r beyond r=  3.4178

VLOCAL1: 99.0% of the norm of Vloc inside      3.810 Ry
VLOCAL1: 99.9% of the norm of Vloc inside      8.683 Ry
atom: Maximum radius for 4*pi*r*r*local-pseudopot. charge    4.02088
atom: Maximum radius for r*vlocal+2*Zval:    3.54838
GHOST: No ghost state for L =  0
GHOST: No ghost state for L =  1
GHOST: No ghost state for L =  2
GHOST: No ghost state for L =  3

KBgen: Kleinman-Bylander projectors: 
   l= 0   rc=  3.417763   el= -1.365098   Ekb= -4.433130   kbcos= -0.707855
   l= 1   rc=  3.375302   el= -0.521201   Ekb=-13.264039   kbcos= -0.535594
   l= 2   rc=  3.872880   el=  0.001991   Ekb= -0.641094   kbcos= -0.062456
   l= 3   rc=  3.970931   el=  0.003093   Ekb= -0.474517   kbcos= -0.018236

KBgen: Total number of Kleinman-Bylander projectors:   16
atom: -------------------------------------------------------------------------

atom: SANKEY-TYPE ORBITALS:
atom: Selected multiple-zeta basis: split     

SPLIT: Orbitals with angular momentum L= 0

SPLIT: Basis orbitals for state 2s

SPLIT: PAO cut-off radius determined from an
SPLIT: energy shift=  0.002000 Ry

   izeta = 1
                 lambda =    1.000000
                     rc =    4.730425
                 energy =   -1.363399
                kinetic =    1.245246
    potential(screened) =   -2.608645
       potential(ionic) =   -8.121105

   izeta = 2
                 rmatch =    2.531849
              splitnorm =    0.280000
                 energy =   -0.959908
                kinetic =    2.409435
    potential(screened) =   -3.369343
       potential(ionic) =   -9.427975

SPLIT: Orbitals with angular momentum L= 1

SPLIT: Basis orbitals for state 2p

SPLIT: PAO cut-off radius determined from an
SPLIT: energy shift=  0.002000 Ry

   izeta = 1
                 lambda =    1.000000
                     rc =    5.924108
                 energy =   -0.519262
                kinetic =    3.672940
    potential(screened) =   -4.192202
       potential(ionic) =   -9.518354

   izeta = 2
                 rmatch =    2.531849
              splitnorm =    0.280000
                 energy =   -0.104258
                kinetic =    6.807538
    potential(screened) =   -6.911796
       potential(ionic) =  -13.149920

POLgen: Perturbative polarization orbital with L=  2

POLgen: Polarization orbital for state 2p

   izeta = 1
                     rc =    5.924108
                 energy =    1.427508
                kinetic =    2.872379
    potential(screened) =   -1.444871
       potential(ionic) =   -5.563644
atom: Total number of Sankey-type orbitals: 13

atm_pop: Valence configuration (for local Pseudopot. screening):
 2s( 2.00)                                                            
 2p( 3.00)                                                            
Vna: chval, zval:    5.00000   5.00000

Vna:  Cut-off radius for the neutral-atom potential:   5.924108

atom: _________________________________________________________________________

<basis_specs>
===============================================================================
Si                   Z=  14    Mass=  28.090        Charge= 0.17977+309
Lmxo=1 Lmxkb= 3    BasisType=split      Semic=F
L=0  Nsemic=0  Cnfigmx=3
          i=1  nzeta=2  polorb=0  (3s)
            splnorm:   0.28000    
               vcte:    0.0000    
               rinn:    0.0000    
               qcoe:    0.0000    
               qyuk:    0.0000    
               qwid:   0.10000E-01
                rcs:    0.0000      0.0000    
            lambdas:    1.0000      1.0000    
L=1  Nsemic=0  Cnfigmx=3
          i=1  nzeta=2  polorb=1  (3p)
            splnorm:   0.28000    
               vcte:    0.0000    
               rinn:    0.0000    
               qcoe:    0.0000    
               qyuk:    0.0000    
               qwid:   0.10000E-01
                rcs:    0.0000      0.0000    
            lambdas:    1.0000      1.0000    
-------------------------------------------------------------------------------
L=0  Nkbl=1  erefs: 0.17977+309
L=1  Nkbl=1  erefs: 0.17977+309
L=2  Nkbl=1  erefs: 0.17977+309
L=3  Nkbl=1  erefs: 0.17977+309
===============================================================================
</basis_specs>

atom: Called for Si                    (Z =  14)

read_vps: Pseudopotential generation method:
read_vps: ATM4.2.7  Troullier-Martins                       
Valence charge for ps generation:    4.00000

xc_check: Exchange-correlation functional:
xc_check: GGA Perdew, Burke & Ernzerhof 1996
V l=0 = -2*Zval/r beyond r=  2.7826
V l=1 = -2*Zval/r beyond r=  2.7826
V l=2 = -2*Zval/r beyond r=  2.9253
V l=3 = -2*Zval/r beyond r=  2.7826
All V_l potentials equal beyond r=  2.8530
This should be close to max(r_c) in ps generation
All pots = -2*Zval/r beyond r=  2.9253

VLOCAL1: 99.0% of the norm of Vloc inside      5.333 Ry
VLOCAL1: 99.9% of the norm of Vloc inside     12.154 Ry
atom: Maximum radius for 4*pi*r*r*local-pseudopot. charge    3.39869
atom: Maximum radius for r*vlocal+2*Zval:    2.96205
GHOST: No ghost state for L =  0
GHOST: No ghost state for L =  1
GHOST: No ghost state for L =  2
GHOST: No ghost state for L =  3

KBgen: Kleinman-Bylander projectors: 
   l= 0   rc=  3.075247   el= -0.794092   Ekb=  5.879390   kbcos=  0.167461
   l= 1   rc=  3.153101   el= -0.300068   Ekb=  2.642817   kbcos=  0.058301
   l= 2   rc=  3.273594   el=  0.001958   Ekb= -1.185135   kbcos= -0.104411
   l= 3   rc=  3.232927   el=  0.003046   Ekb= -0.497174   kbcos= -0.015889

KBgen: Total number of Kleinman-Bylander projectors:   16
atom: -------------------------------------------------------------------------

atom: SANKEY-TYPE ORBITALS:
atom: Selected multiple-zeta basis: split     

SPLIT: Orbitals with angular momentum L= 0

SPLIT: Basis orbitals for state 3s

SPLIT: PAO cut-off radius determined from an
SPLIT: energy shift=  0.002000 Ry

   izeta = 1
                 lambda =    1.000000
                     rc =    6.429618
                 energy =   -0.792283
                kinetic =    0.525293
    potential(screened) =   -1.317576
       potential(ionic) =   -3.744923

   izeta = 2
                 rmatch =    3.998416
              splitnorm =    0.280000
                 energy =   -0.583081
                kinetic =    1.069570
    potential(screened) =   -1.652651
       potential(ionic) =   -4.235185

SPLIT: Orbitals with angular momentum L= 1

SPLIT: Basis orbitals for state 3p

SPLIT: PAO cut-off radius determined from an
SPLIT: energy shift=  0.002000 Ry

   izeta = 1
                 lambda =    1.000000
                     rc =    8.464845
                 energy =   -0.298236
                kinetic =    0.785360
    potential(screened) =   -1.083596
       potential(ionic) =   -3.273779

   izeta = 2
                 rmatch =    4.587816
              splitnorm =    0.280000
                 energy =   -0.131871
                kinetic =    1.403687
    potential(screened) =   -1.535557
       potential(ionic) =   -4.015310

POLgen: Perturbative polarization orbital with L=  2

POLgen: Polarization orbital for state 3p

   izeta = 1
                     rc =    8.464845
                 energy =    0.321949
                kinetic =    1.055677
    potential(screened) =   -0.733728
       potential(ionic) =   -2.672950
atom: Total number of Sankey-type orbitals: 13

atm_pop: Valence configuration (for local Pseudopot. screening):
 3s( 2.00)                                                            
 3p( 2.00)                                                            
Vna: chval, zval:    4.00000   4.00000

Vna:  Cut-off radius for the neutral-atom potential:   8.464845

atom: _________________________________________________________________________

<basis_specs>
===============================================================================
O                    Z=   8    Mass=  16.000        Charge= 0.17977+309
Lmxo=1 Lmxkb= 3    BasisType=split      Semic=F
L=0  Nsemic=0  Cnfigmx=2
          i=1  nzeta=2  polorb=0  (2s)
            splnorm:   0.28000    
               vcte:    0.0000    
               rinn:    0.0000    
               qcoe:    0.0000    
               qyuk:    0.0000    
               qwid:   0.10000E-01
                rcs:    0.0000      0.0000    
            lambdas:    1.0000      1.0000    
L=1  Nsemic=0  Cnfigmx=2
          i=1  nzeta=2  polorb=1  (2p)
            splnorm:   0.28000    
               vcte:    0.0000    
               rinn:    0.0000    
               qcoe:    0.0000    
               qyuk:    0.0000    
               qwid:   0.10000E-01
                rcs:    0.0000      0.0000    
            lambdas:    1.0000      1.0000    
-------------------------------------------------------------------------------
L=0  Nkbl=1  erefs: 0.17977+309
L=1  Nkbl=1  erefs: 0.17977+309
L=2  Nkbl=1  erefs: 0.17977+309
L=3  Nkbl=1  erefs: 0.17977+309
===============================================================================
</basis_specs>

atom: Called for O                     (Z =   8)

read_vps: Pseudopotential generation method:
read_vps: ATM4.2.7  Troullier-Martins                       
Valence charge for ps generation:    6.00000

xc_check: Exchange-correlation functional:
xc_check: GGA Perdew, Burke & Ernzerhof 1996
V l=0 = -2*Zval/r beyond r=  1.1000
V l=1 = -2*Zval/r beyond r=  1.1000
V l=2 = -2*Zval/r beyond r=  2.2154
V l=3 = -2*Zval/r beyond r=  1.1000
All V_l potentials equal beyond r=  2.2154
This should be close to max(r_c) in ps generation
All pots = -2*Zval/r beyond r=  2.2154

VLOCAL1: 99.0% of the norm of Vloc inside      8.845 Ry
VLOCAL1: 99.9% of the norm of Vloc inside     20.157 Ry
atom: Maximum radius for 4*pi*r*r*local-pseudopot. charge    2.67231
atom: Maximum radius for r*vlocal+2*Zval:    2.32897
GHOST: No ghost state for L =  0
GHOST: No ghost state for L =  1
GHOST: No ghost state for L =  2
GHOST: No ghost state for L =  3

KBgen: Kleinman-Bylander projectors: 
   l= 0   rc=  2.243238   el= -1.759686   Ekb=**********   kbcos= -0.171774
   l= 1   rc=  2.328968   el= -0.663873   Ekb=-14.506792   kbcos= -0.519897
   l= 2   rc=  2.573941   el=  0.002031   Ekb= -1.137373   kbcos= -0.019581
   l= 3   rc=  2.606321   el=  0.003153   Ekb= -1.013546   kbcos= -0.003122

KBgen: Total number of Kleinman-Bylander projectors:   16
atom: -------------------------------------------------------------------------

atom: SANKEY-TYPE ORBITALS:
atom: Selected multiple-zeta basis: split     

SPLIT: Orbitals with angular momentum L= 0

SPLIT: Basis orbitals for state 2s

SPLIT: PAO cut-off radius determined from an
SPLIT: energy shift=  0.002000 Ry

   izeta = 1
                 lambda =    1.000000
                     rc =    4.243912
                 energy =   -1.758270
                kinetic =    3.286084
    potential(screened) =   -5.044353
       potential(ionic) =  -12.921184

   izeta = 2
                 rmatch =    2.187845
              splitnorm =    0.280000
                 energy =   -0.885018
                kinetic =    8.134434
    potential(screened) =   -9.019452
       potential(ionic) =  -17.710645

SPLIT: Orbitals with angular momentum L= 1

SPLIT: Basis orbitals for state 2p

SPLIT: PAO cut-off radius determined from an
SPLIT: energy shift=  0.002000 Ry

   izeta = 1
                 lambda =    1.000000
                     rc =    5.314825
                 energy =   -0.661986
                kinetic =    4.917472
    potential(screened) =   -5.579458
       potential(ionic) =  -13.236259

   izeta = 2
                 rmatch =    2.160663
              splitnorm =    0.280000
                 energy =   -0.068760
                kinetic =    9.183374
    potential(screened) =   -9.252135
       potential(ionic) =  -18.274251

POLgen: Perturbative polarization orbital with L=  2

POLgen: Polarization orbital for state 2p

   izeta = 1
                     rc =    5.314825
                 energy =    1.970580
                kinetic =    3.886128
    potential(screened) =   -1.915547
       potential(ionic) =   -7.749584
atom: Total number of Sankey-type orbitals: 13

atm_pop: Valence configuration (for local Pseudopot. screening):
 2s( 2.00)                                                            
 2p( 4.00)                                                            
Vna: chval, zval:    6.00000   6.00000

Vna:  Cut-off radius for the neutral-atom potential:   5.314825

atom: _________________________________________________________________________

prinput: Basis input ----------------------------------------------------------

PAO.BasisType split     

%block ChemicalSpeciesLabel
    1    1 H                       # Species index, atomic number, species label
    2    7 N                       # Species index, atomic number, species label
    3   14 Si                      # Species index, atomic number, species label
    4    8 O                       # Species index, atomic number, species label
%endblock ChemicalSpeciesLabel

%block PAO.Basis                 # Define Basis set
H                     1                    # Species label, number of l-shells
 n=1   0   2 P   1                   # n, l, Nzeta, Polarization, NzetaPol
   6.518      2.141   
   1.000      1.000   
N                     2                    # Species label, number of l-shells
 n=2   0   2                         # n, l, Nzeta 
   4.730      2.532   
   1.000      1.000   
 n=2   1   2 P   1                   # n, l, Nzeta, Polarization, NzetaPol
   5.924      2.532   
   1.000      1.000   
Si                    2                    # Species label, number of l-shells
 n=3   0   2                         # n, l, Nzeta 
   6.430      3.998   
   1.000      1.000   
 n=3   1   2 P   1                   # n, l, Nzeta, Polarization, NzetaPol
   8.465      4.588   
   1.000      1.000   
O                     2                    # Species label, number of l-shells
 n=2   0   2                         # n, l, Nzeta 
   4.244      2.188   
   1.000      1.000   
 n=2   1   2 P   1                   # n, l, Nzeta, Polarization, NzetaPol
   5.315      2.161   
   1.000      1.000   
%endblock PAO.Basis

prinput: ----------------------------------------------------------------------

Dumping basis to NetCDF file H.ion.nc
Dumping basis to NetCDF file N.ion.nc
Dumping basis to NetCDF file Si.ion.nc
Dumping basis to NetCDF file O.ion.nc
coor:   Atomic-coordinates input format  =     Cartesian coordinates
coor:                                          (in Angstroms)

siesta: Atomic coordinates (Bohr) and species
siesta:     -2.63212  13.62489   0.00000  1        1
siesta:     -3.96718  12.13194   0.00000  2        2
siesta:     -7.23695  12.96599   0.00000  3        3
siesta:     -7.53133  15.78167   0.00000  1        4
siesta:    -10.11561  10.02008   0.00000  3        5
siesta:    -12.91843  10.47897   0.00000  1        6
siesta:     -7.85098   6.40452   0.00000  3        7
siesta:     -9.29856   3.50810   0.00000  2        8
siesta:     -8.18316   1.69923   0.00000  1        9
siesta:    -11.28584   3.35605   0.00000  1       10
siesta:     -4.60783   6.50878   0.00000  2       11
siesta:     -2.57633   9.02276   0.00000  3       12
siesta:      0.46362   8.98721   0.00000  4       13
siesta:     10.61355 -14.07759   0.00000  1       14
siesta:      8.65886 -13.66658   0.00000  2       15
siesta:      6.22979 -16.04876   0.00000  3       16
siesta:      7.18318 -18.71532  -0.00000  1       17
siesta:      3.13570 -15.14356   0.00000  2       18
siesta:      3.17659 -11.72506  -0.00000  3       19
siesta:      1.03072  -8.10005   0.00000  3       20
siesta:     -1.95457  -7.45403   0.00000  4       21
siesta:      3.27352  -5.43711   0.00000  2       22
siesta:      2.28576  -3.64645  -0.00000  1       23
siesta:      6.63017  -5.24735   0.00000  3       24
siesta:      7.81751  -2.22872   0.00000  2       25
siesta:      6.69523  -0.49602   0.00000  1       26
siesta:      9.79567  -1.98858  -0.00000  1       27
siesta:      8.75489  -7.70105  -0.00000  2       28
siesta:      7.16982 -10.55666   0.00000  3       29

siesta: Automatic unit cell vectors (Ang):
siesta:   21.286428    0.000000    0.000000
siesta:    0.000000   27.669102    0.000000
siesta:    0.000000    0.000000    9.854683

siesta: System type = molecule  

initatomlists: Number of atoms, orbitals, and projectors:     29   297   394

siesta: ******************** Simulation parameters ****************************
siesta:
siesta: The following are some of the parameters of the simulation.
siesta: A complete list of the parameters used, including default values,
siesta: can be found in file out.fdf
siesta:
redata: Spin configuration                          = spin-orbit
redata: Number of spin components                   = 8
redata: Time-Reversal Symmetry                      = F
redata: Spin spiral                                 = F
############################################################
This spin-orbit implementation uses a local approximation.
From 4.2 and onwards the full non-local approximation is implemented
You are strongly advised to use >=4.2 versions!
############################################################
redata: Long output                                 =   F
redata: Number of Atomic Species                    =        4
redata: Charge density info will appear in .RHO file
redata: Write Mulliken Pop.                         = NO
redata: Matel table size (NRTAB)                    =     1024
redata: Mesh Cutoff                                 =   340.0000 Ry
redata: Net charge of the system                    =     0.0000 |e|
redata: Min. number of SCF Iter                     =        1
redata: Max. number of SCF Iter                     =      600
redata: SCF convergence failure will abort job
redata: SCF mix quantity                            = Hamiltonian
redata: Mix DM or H after convergence               =   F
redata: Recompute H after scf cycle                 =   F
redata: Mix DM in first SCF step                    =   T
redata: Write Pulay info on disk                    =   F
redata: New DM Occupancy tolerance                  = 0.000000000001
redata: No kicks to SCF
redata: DM Mixing Weight for Kicks                  =     0.5000
redata: Require Harris convergence for SCF          =   F
redata: Harris energy tolerance for SCF             =     0.000100 eV
redata: Require DM convergence for SCF              =   T
redata: DM tolerance for SCF                        =     0.000008
redata: Require EDM convergence for SCF             =   F
redata: EDM tolerance for SCF                       =     0.001000 eV
redata: Require H convergence for SCF               =   T
redata: Hamiltonian tolerance for SCF               =     0.000001 eV
redata: Require (free) Energy convergence for SCF   =   F
redata: (free) Energy tolerance for SCF             =     0.000100 eV
redata: Using Saved Data (generic)                  =   F
redata: Use continuation files for DM               =   T
redata: Neglect nonoverlap interactions             =   F
redata: Method of Calculation                       = Diagonalization
redata: Electronic Temperature                      =   299.9978 K
redata: Fix the spin of the system                  =   F
redata: Dynamics option                             = Single-point calculation
mix.SCF: Pulay mixing                            = Pulay
mix.SCF:    Variant                              = stable
mix.SCF:    History steps                        = 6
mix.SCF:    Linear mixing weight                 =     0.250000
mix.SCF:    Mixing weight                        =     0.250000
mix.SCF:    SVD condition                        = 0.1000E-07
mix.SCF:    Restart steps                        = 24
mix.SCF:    Restart save steps                   = 3
mix.SCF: Spin-component mixing                   all
redata: Save all siesta data in one NC              =   F
redata: ***********************************************************************

%block SCF.Mixers
  Pulay
%endblock SCF.Mixers

%block SCF.Mixer.Pulay
  # Mixing method
  method pulay
  variant stable

  # Mixing options
  weight 0.2500
  weight.linear 0.2500
  history 6
  restart 24
  restart.save 3
%endblock SCF.Mixer.Pulay

DM_history_depth set to one: no extrapolation allowed by default for geometry relaxation
Size of DM history Fstack: 1
Total number of electrons:    98.000000
Total ionic charge:    98.000000

* ProcessorY, Blocksize:    2  24


* Orbital distribution balance (max,min):    57    48


Time-reversal symmetry not used.

siesta: k-grid: Number of k-points =     1
siesta: k-grid: Cutoff (effective) =     4.927 Ang
siesta: k-grid: Supercell and displacements
siesta: k-grid:    1   0   0      0.000
siesta: k-grid:    0   1   0      0.000
siesta: k-grid:    0   0   1      0.000

diag: Algorithm                                     = ELPA-1stage
diag: Parallel over k                               =   F
diag: Use parallel 2D distribution                  =   T
diag: Parallel block-size                           = 24
diag: Parallel distribution                         =     2 x     3
diag: Used triangular part                          = Lower
diag: Absolute tolerance                            =  0.100E-15
diag: Orthogonalization factor                      =  0.100E-05
diag: Memory factor                                 =  1.0000


ts: **************************************************************
ts: Save H and S matrices                           =    F
ts: Save DM and EDM matrices                        =    F
ts: Only save the overlap matrix S                  =    F
ts: **************************************************************

************************ Begin: TS CHECKS AND WARNINGS ************************
************************ End: TS CHECKS AND WARNINGS **************************


                     ====================================
                        Single-point calculation
                     ====================================

outcoor: Atomic coordinates (Ang):                          
   -1.39285527    7.20997824    0.00000000   1       1  H
   -2.09934200    6.41994206    0.00000000   2       2  N
   -3.82962891    6.86130597    0.00000000   3       3  Si
   -3.98540859    8.35129823    0.00000000   1       4  H
   -5.35295053    5.30239845    0.00000000   3       5  Si
   -6.83613816    5.54522881    0.00000000   1       6  H
   -4.15455967    3.38912229    0.00000000   3       7  Si
   -4.92058513    1.85640555    0.00000000   2       8  N
   -4.33033858    0.89919252    0.00000000   1       9  H
   -5.97220745    1.77594532    0.00000000   1      10  H
   -2.43835961    3.44429660    0.00000000   2      11  N
   -1.36333699    4.77463544    0.00000000   3      12  Si
    0.24533633    4.75582518    0.00000000   4      13  O
    5.61644830   -7.44953905    0.00000000   1      14  H
    4.58206954   -7.23203760    0.00000000   2      15  N
    3.29666389   -8.49263600    0.00000000   3      16  Si
    3.80117524   -9.90371886    0.00000000   1      17  H
    1.65934232   -8.01362137    0.00000000   2      18  N
    1.68097912   -6.20463398    0.00000000   3      19  Si
    0.54543521   -4.28636135    0.00000000   3      20  Si
   -1.03431493   -3.94450034    0.00000000   4      21  O
    1.73226934   -2.87719605    0.00000000   2      22  N
    1.20957366   -1.92961761    0.00000000   1      23  H
    3.50853448   -2.77677601    0.00000000   3      24  Si
    4.13684451   -1.17938608    0.00000000   2      25  N
    3.54296161   -0.26248101    0.00000000   1      26  H
    5.18364407   -1.05231197    0.00000000   1      27  H
    4.63288658   -4.07521596    0.00000000   2      28  N
    3.79410501   -5.58634043    0.00000000   3      29  Si

outcell: Unit cell vectors (Ang):
       21.286428    0.000000    0.000000
        0.000000   27.669102    0.000000
        0.000000    0.000000    9.854683

outcell: Cell vector modules (Ang)   :   21.286428   27.669102    9.854683
outcell: Cell angles (23,13,12) (deg):     90.0000     90.0000     90.0000
outcell: Cell volume (Ang**3)        :   5804.1753
<dSpData1D:S at geom step 0
  <sparsity:sparsity for geom step 0
    nrows_g=297 nrows=57 sparsity=.0950 nnzs=8377, refcount: 8>
  <dData1D:(new from dSpData1D) n=8377, refcount: 1>
refcount: 1>
new_DM -- step:     1
Initializing Density Matrix...

Attempting to read DM from file... Failed...
DM filled with atomic data:
<dSpData2D:DM initialized from atoms
  <sparsity:sparsity for geom step 0
    nrows_g=297 nrows=57 sparsity=.0950 nnzs=8377, refcount: 9>
  <dData2D:DM n=8377 m=8, refcount: 1>
refcount: 1>
     spin moment: S , {S} =   56.00000   0.00000   0.00000  56.00000
No. of atoms with KB's overlaping orbs in proc 0. Max # of overlaps:      28     142

Initializing spin-orbit part of the Hamiltonian
  Adding spin-orbit effects for H 
  Adding spin-orbit effects for N 
  Adding spin-orbit effects for Si
  Adding spin-orbit effects for O 


New grid distribution:   1
           1       1:  120    1:   80    1:   20
           2       1:  120    1:   80   21:   40
           3       1:  120    1:   80   41:   60
           4       1:  120   81:  160    1:   20
           5       1:  120   81:  160   21:   40
           6       1:  120   81:  160   41:   60

InitMesh: MESH =   240 x   320 x   120 =     9216000
InitMesh: (bp) =   120 x   160 x    60 =     1152000
InitMesh: Mesh cutoff (required, used) =   340.000   351.333 Ry
ExtMesh (bp) on 0 =   224 x   184 x   132 =     5440512
New grid distribution:   2
           1       1:   88    1:  114    1:   60
           2      89:  120   30:  114    1:   60
           3      89:  120    1:   29    1:   60
           4       1:   14  115:  160    1:   60
           5      15:  120  135:  160    1:   60
           6      15:  120  115:  134    1:   60
New grid distribution:   3
           1       1:   76    1:   92    1:   60
           2      77:  120    1:   31    1:   60
           3       1:   19   93:  160    1:   60
           4      20:  120  133:  160    1:   60
           5      20:  120   93:  132    1:   60
           6      77:  120   32:   92    1:   60
Setting up quadratic distribution...
ExtMesh (bp) on 0 =   192 x   218 x   172 =     7199232
PhiOnMesh: Number of (b)points on node 0 =               601920
PhiOnMesh: nlist on node 0 =              2493720

stepf: Fermi-Dirac step function

siesta: Program's energy decomposition (eV):
siesta: Ebs     =      -625.992371
siesta: Eions   =      3585.165840
siesta: Ena     =       381.828398
siesta: Ekin    =      3368.669262
siesta: Enl     =     -3297.038846
siesta: Eso     =        -0.003411
siesta: Edftu   =         0.000000
siesta: DEna    =       153.493412
siesta: DUscf   =        81.901504
siesta: DUext   =         0.000000
siesta: Exc     =     -1203.989451
siesta: eta*DQ  =         0.000000
siesta: Emadel  =         0.000000
siesta: Emeta   =         0.000000
siesta: Emolmec =         0.000000
siesta: Ekinion =         0.000000
siesta: Eharris =     -4020.457560
siesta: Etot    =     -4100.304972
siesta: FreeEng =     -4100.306007

        iscf     Eharris(eV)        E_KS(eV)     FreeEng(eV)     dDmax    Ef(eV) dHmax(eV)
   scf:    1    -4020.457560    -4100.304972    -4100.306007  0.965646 -4.903679 21.938543
     spin moment: S , {S} =    2.00582  -0.00000   0.00000   2.00582
timer: Routine,Calls,Time,% = IterSCF        1       6.505  24.93
   scf:    2    -4146.570077    -4135.605763    -4135.608171  0.449165 -4.223006 11.475507
     spin moment: S , {S} =    1.98623  -0.00000  -0.00000   1.98623
   scf:    3    -4105.717929    -4132.832381    -4132.846924  0.421290 -4.338203 12.246714
     spin moment: S , {S} =    2.15007  -0.00000   0.00000   2.15007
   scf:    4    -4149.597529    -4144.829730    -4144.829731  0.322080 -3.919599  7.403340
     spin moment: S , {S} =    0.00010  -0.00000  -0.00000   0.00010
   scf:    5    -4146.199748    -4145.618796    -4145.618796  0.036471 -3.719010  4.737183
     spin moment: S , {S} =    0.00006  -0.00000   0.00000   0.00006
   scf:    6    -4146.391793    -4146.014561    -4146.014561  0.024291 -3.647158  2.329128
     spin moment: S , {S} =    0.00003  -0.00000   0.00000   0.00003
   scf:    7    -4146.371877    -4146.189288    -4146.189288  0.021555 -3.547149  0.891703
     spin moment: S , {S} =    0.00001   0.00000  -0.00000   0.00001
   scf:    8    -4146.308806    -4146.247083    -4146.247083  0.012204 -3.790999  0.507970
     spin moment: S , {S} =    0.00000  -0.00000  -0.00000   0.00000
   scf:    9    -4146.285865    -4146.265794    -4146.265794  0.006582 -3.746078  0.389013
     spin moment: S , {S} =    0.00000   0.00000  -0.00000   0.00000
   scf:   10    -4146.318122    -4146.285207    -4146.285207  0.022209 -3.785552  0.240521
     spin moment: S , {S} =    0.00000  -0.00000  -0.00000  -0.00000
   scf:   11    -4146.289193    -4146.287216    -4146.287216  0.005742 -3.775350  0.066358
     spin moment: S , {S} =    0.00000   0.00000  -0.00000  -0.00000
   scf:   12    -4146.288480    -4146.287863    -4146.287863  0.001052 -3.770613  0.029901
     spin moment: S , {S} =    0.00000   0.00000  -0.00000  -0.00000
   scf:   13    -4146.288384    -4146.288120    -4146.288120  0.001198 -3.767639  0.019541
     spin moment: S , {S} =    0.00000   0.00000  -0.00000  -0.00000
   scf:   14    -4146.288397    -4146.288252    -4146.288252  0.000887 -3.767406  0.011194
     spin moment: S , {S} =    0.00000   0.00000  -0.00000  -0.00000
   scf:   15    -4146.288358    -4146.288302    -4146.288302  0.000780 -3.766337  0.007493
     spin moment: S , {S} =    0.00000   0.00000  -0.00000  -0.00000
   scf:   16    -4146.288365    -4146.288331    -4146.288331  0.000745 -3.765666  0.005519
     spin moment: S , {S} =    0.00000   0.00000  -0.00000   0.00000
   scf:   17    -4146.288349    -4146.288339    -4146.288339  0.000409 -3.765560  0.004024
     spin moment: S , {S} =    0.00000   0.00000  -0.00000   0.00000
   scf:   18    -4146.288347    -4146.288343    -4146.288343  0.000275 -3.765744  0.002684
     spin moment: S , {S} =    0.00000   0.00000  -0.00000   0.00000
   scf:   19    -4146.288347    -4146.288344    -4146.288344  0.000228 -3.765919  0.001782
     spin moment: S , {S} =    0.00000   0.00000  -0.00000   0.00000
   scf:   20    -4146.288346    -4146.288345    -4146.288345  0.000122 -3.765947  0.001277
     spin moment: S , {S} =    0.00000   0.00000  -0.00000   0.00000
   scf:   21    -4146.288347    -4146.288346    -4146.288346  0.000178 -3.765921  0.000667
     spin moment: S , {S} =    0.00000   0.00000  -0.00000   0.00000
   scf:   22    -4146.288346    -4146.288346    -4146.288346  0.000112 -3.765890  0.000221
     spin moment: S , {S} =    0.00000   0.00000  -0.00000   0.00000
   scf:   23    -4146.288346    -4146.288346    -4146.288346  0.000033 -3.765884  0.000171
     spin moment: S , {S} =    0.00000   0.00000  -0.00000   0.00000
   scf:   24    -4146.288346    -4146.288346    -4146.288346  0.000014 -3.765890  0.000102
     spin moment: S , {S} =    0.00000   0.00000  -0.00000   0.00000
mix: Pulay -- resetting history
   scf:   25    -4146.288346    -4146.288346    -4146.288346  0.000008 -3.765895  0.000045
     spin moment: S , {S} =    0.00000   0.00000  -0.00000   0.00000
   scf:   26    -4146.288346    -4146.288346    -4146.288346  0.000003 -3.765896  0.000030
     spin moment: S , {S} =    0.00000   0.00000  -0.00000   0.00000
   scf:   27    -4146.288346    -4146.288346    -4146.288346  0.000003 -3.765894  0.000019
     spin moment: S , {S} =    0.00000   0.00000  -0.00000  -0.00000
   scf:   28    -4146.288346    -4146.288346    -4146.288346  0.000002 -3.765893  0.000010
     spin moment: S , {S} =    0.00000   0.00000  -0.00000  -0.00000
   scf:   29    -4146.288346    -4146.288346    -4146.288346  0.000001 -3.765892  0.000006
     spin moment: S , {S} =    0.00000   0.00000  -0.00000  -0.00000
   scf:   30    -4146.288346    -4146.288346    -4146.288346  0.000001 -3.765892  0.000002
     spin moment: S , {S} =    0.00000   0.00000  -0.00000  -0.00000
   scf:   31    -4146.288346    -4146.288346    -4146.288346  0.000000 -3.765892  0.000002
     spin moment: S , {S} =    0.00000   0.00000  -0.00000  -0.00000
   scf:   32    -4146.288346    -4146.288346    -4146.288346  0.000000 -3.765892  0.000001
     spin moment: S , {S} =    0.00000   0.00000  -0.00000  -0.00000
   scf:   33    -4146.288346    -4146.288346    -4146.288346  0.000000 -3.765892  0.000001
     spin moment: S , {S} =    0.00000   0.00000  -0.00000  -0.00000

SCF Convergence by DM+H criterion
max |DM_out - DM_in|         :     0.0000000974
max |H_out - H_in|      (eV) :     0.0000006884
SCF cycle converged after 33 iterations

Using DM_out to compute the final energy and forces
No. of atoms with KB's overlaping orbs in proc 0. Max # of overlaps:      28     142

siesta: E_KS(eV) =            -4146.2883

siesta: E_KS - E_eggbox =     -4146.2883
     spin moment: S , {S} =    0.00000   0.00000  -0.00000  -0.00000

siesta: Atomic forces (eV/Ang):
     1    0.015871   -0.052116    0.000000
     2   -0.548217    0.302073    0.000000
     3    0.441384   -0.020763    0.000000
     4   -0.114827    0.141551    0.000000
     5   -0.215380   -0.227126   -0.000000
     6    0.076478   -0.056387   -0.000000
     7    1.221110    1.082921    0.000000
     8    0.774417   -2.350668   -0.000000
     9   -1.324016    1.810117   -0.000000
    10    0.155825   -0.278506    0.000000
    11   -1.064666   -0.346455   -0.000000
    12    1.268092   -0.229816   -0.000000
    13    2.139478    0.033662   -0.000000
    14   -0.042360    0.030488    0.000000
    15    0.107019    0.043760   -0.000000
    16    0.022131   -0.017955    0.000000
    17   -0.022371    0.027535    0.000000
    18   -0.014411    0.061361    0.000000
    19    0.265081    0.027536   -0.000000
    20   -1.405125   -0.194019    0.000000
    21   -3.125935   -2.129010   -0.000000
    22    0.388100    0.785191    0.000000
    23    0.230064   -0.588515   -0.000000
    24   -0.343764   -1.021587   -0.000000
    25   -0.483488    1.602519    0.000000
    26    0.993606   -1.112996   -0.000000
    27   -0.123361    0.173335   -0.000000
    28    0.066351    0.743987   -0.000000
    29   -0.318658   -0.433917    0.000000
----------------------------------------
   Tot   -0.981572   -2.193800    0.000000
----------------------------------------
   Max    3.125935
   Res    0.733455    sqrt( Sum f_i^2 / 3N )
----------------------------------------
   Max    3.125935    constrained

Stress tensor Voigt[x,y,z,yz,xz,xy] (kbar):        1.17        0.35       -0.09        0.00       -0.00       -1.14
(Free)E + p*V (eV/cell)    -4148.0197
Target enthalpy (eV/cell)    -4146.2883

siesta: Eigenvalues (eV):
ik =     1
  -21.9648  -21.9648  -21.7555  -21.7555  -21.6118  -21.6118  -21.5503  -21.5503  -21.2527  -21.2527
  -20.9940  -20.9940  -20.8897  -20.8897  -19.8638  -19.8638  -19.3796  -19.3796  -19.3556  -19.3556
  -14.7316  -14.7316  -13.9343  -13.9343  -13.3289  -13.3289  -13.2418  -13.2418  -13.0932  -13.0932
  -12.9574  -12.9574  -12.8821  -12.8821  -12.5334  -12.5334  -12.4274  -12.4274  -12.0180  -12.0180
  -11.4871  -11.4871  -10.7968  -10.7968  -10.7914  -10.7914  -10.7818  -10.7818  -10.0558  -10.0558
   -9.5326   -9.5326   -9.3059   -9.3059   -8.8728   -8.8728   -8.7202   -8.7202   -8.6958   -8.6958
   -8.6595   -8.6595   -8.3808   -8.3808   -8.2163   -8.2163   -7.8447   -7.8447   -7.6483   -7.6483
   -7.5343   -7.5343   -7.3829   -7.3829   -7.2939   -7.2939   -6.9403   -6.9403   -6.7179   -6.7179
   -6.5378   -6.5378   -6.4515   -6.4515   -6.1345   -6.1345   -6.1076   -6.1076   -6.0647   -6.0647
   -5.6559   -5.6559   -5.6162   -5.6162   -5.4252   -5.4252   -4.3263   -4.3263   -3.2076   -3.2076
   -2.3325   -2.3325   -2.3232   -2.3232   -2.2830   -2.2830   -1.9533   -1.9533   -1.8770   -1.8770
   -1.8310   -1.8310   -1.7690   -1.7690   -1.6146   -1.6146   -1.5698   -1.5698   -0.9618   -0.9618
   -0.9382   -0.9382   -0.8385   -0.8385   -0.4398   -0.4398   -0.1252   -0.1252    0.0074    0.0074
    0.2248    0.2248    0.3842    0.3842    0.5267    0.5267    0.7146    0.7146    0.7416    0.7416
    0.9461    0.9461    1.1801    1.1801    1.3392    1.3392    1.3465    1.3465    1.4588    1.4588
    1.6892    1.6892    1.8247    1.8247    1.9149    1.9149    2.2713    2.2713    2.7069    2.7069
    2.7140    2.7140    2.8264    2.8264    2.9340    2.9340    3.1643    3.1643    3.3494    3.3494
    3.3503    3.3503    3.6879    3.6879    3.7847    3.7847    4.1278    4.1278    4.2079    4.2079
    4.4528    4.4528    4.4792    4.4792    4.5545    4.5545    4.5992    4.5992    4.7613    4.7613
    4.9125    4.9125    4.9533    4.9533    5.2033    5.2033    5.5394    5.5394    5.6383    5.6383
    5.7161    5.7161    5.8035    5.8035    5.8118    5.8118    5.8730    5.8730    5.9509    5.9509
    6.1904    6.1904    6.3312    6.3312    6.6469    6.6469    6.6568    6.6568    6.8664    6.8664
    7.0505    7.0505    7.1432    7.1432    7.3904    7.3904    7.4686    7.4686    7.7310    7.7310
    7.8249    7.8249    7.9701    7.9701    8.1223    8.1223    8.2261    8.2261    8.3172    8.3172
    8.4371    8.4371    8.6793    8.6793    8.8136    8.8136    8.9239    8.9239    9.1565    9.1565
    9.1609    9.1609    9.1851    9.1851    9.7707    9.7707    9.8024    9.8024    9.8408    9.8408
   10.0295   10.0295   10.1953   10.1953   10.4139   10.4139   10.6777   10.6777   10.7490   10.7490
   10.8922   10.8922   10.9364   10.9364   11.2192   11.2192   11.6610   11.6610   11.6664   11.6664
   11.7802   11.7802   11.8928   11.8928   12.0128   12.0128   12.3236   12.3236   12.7477   12.7477
   12.7591   12.7591   12.7672   12.7672   13.2287   13.2287   13.4768   13.4768   13.5914   13.5914
   13.8280   13.8280   14.1410   14.1410   14.2247   14.2247   14.5649   14.5649   14.7108   14.7108
   14.9070   14.9070   15.3753   15.3753   15.9737   15.9737   16.4217   16.4217   16.7412   16.7412
   16.8844   16.8844   17.3409   17.3409   17.6167   17.6167   18.1207   18.1207   18.3585   18.3585
   18.5806   18.5806   19.2471   19.2471   19.3218   19.3218   19.8394   19.8394   20.3083   20.3083
   20.9887   20.9887   21.2686   21.2686   21.9001   21.9001   22.2840   22.2840   22.2877   22.2877
   22.9032   22.9032   23.1821   23.1821   23.6383   23.6383   23.7984   23.7984   23.8820   23.8820
   24.8423   24.8423   25.2962   25.2962   26.0101   26.0101   26.6539   26.6539   27.3485   27.3485
   28.0537   28.0537   28.8817   28.8817   29.1777   29.1777   29.3222   29.3222   29.6437   29.6437
   29.9061   29.9061   30.0270   30.0270   30.2026   30.2026   30.6553   30.6553   30.7806   30.7806
   30.9789   30.9789   31.2350   31.2350   31.5382   31.5382   31.6678   31.6678   32.0423   32.0423
   32.5895   32.5895   33.7500   33.7500   34.5770   34.5770   34.7012   34.7012   34.9722   34.9722
   35.0346   35.0346   35.1351   35.1351   35.4809   35.4809   35.5687   35.5687   35.9681   35.9681
   36.6914   36.6914   36.7542   36.7542   37.0023   37.0023   37.1943   37.1943   37.4256   37.4256
   38.2010   38.2010   38.2807   38.2807   39.2836   39.2836   39.4051   39.4051   39.7300   39.7300
   40.3872   40.3872   40.5000   40.5000   40.5102   40.5102   40.6733   40.6733   40.8412   40.8412
   40.8817   40.8817   41.2142   41.2142   42.4871   42.4871   42.7625   42.7625   42.9093   42.9093
   43.2883   43.2883   43.8097   43.8097   43.8374   43.8374   43.9422   43.9422   44.3360   44.3360
   44.6168   44.6168   44.7274   44.7274   44.9794   44.9794   45.3412   45.3412   46.0917   46.0917
   46.1272   46.1272   46.9469   46.9469   47.2875   47.2875   48.8522   48.8522   49.0090   49.0090
   49.3744   49.3744   50.2743   50.2743   50.4888   50.4888   51.0066   51.0066   51.0291   51.0291
   51.5971   51.5971   51.6841   51.6841   52.6739   52.6739   52.6805   52.6805   54.2172   54.2172
   54.3161   54.3161   54.4480   54.4480   54.4719   54.4719   55.6330   55.6330   55.7029   55.7029
   55.8103   55.8103   55.8892   55.8892   56.4264   56.4264   57.9845   57.9845   58.2763   58.2763
   58.5498   58.5498   60.0600   60.0600   60.2004   60.2004   60.3985   60.3985   61.0534   61.0534
   61.8641   61.8641   61.8657   61.8657   62.0636   62.0636   64.6842   64.6842   66.5807   66.5807
   66.7215   66.7215   67.1238   67.1238   68.0823   68.0823   68.4012   68.4012   70.8186   70.8186
   73.6932   73.6932   80.1772   80.1772   91.0027   91.0027   92.0760   92.0760   93.1883   93.1883
   98.2628   98.2628   98.4838   98.4838   99.5075   99.5075  103.0286  103.0286  103.5614  103.5614
  109.9672  109.9672  111.5115  111.5115  123.9805  123.9805  126.2687  126.2687  129.0355  129.0355
  135.0670  135.0670  138.1036  138.1036
siesta: Fermi energy =      -3.765892 eV

siesta: Program's energy decomposition (eV):
siesta: Ebs     =     -1135.489662
siesta: Eions   =      3585.165840
siesta: Ena     =       381.828398
siesta: Ekin    =      2902.650172
siesta: Enl     =     -2787.238359
siesta: Eso     =        -0.004279
siesta: Edftu   =         0.000000
siesta: DEna    =        46.872664
siesta: DUscf   =        14.364073
siesta: DUext   =         0.000000
siesta: Exc     =     -1119.595176
siesta: eta*DQ  =         0.000000
siesta: Emadel  =         0.000000
siesta: Emeta   =         0.000000
siesta: Emolmec =         0.000000
siesta: Ekinion =         0.000000
siesta: Eharris =     -4146.288346
siesta: Etot    =     -4146.288346
siesta: FreeEng =     -4146.288346

siesta: Final energy (eV):
siesta:  Band Struct. =   -1135.489662
siesta:       Kinetic =    2902.650172
siesta:       Hartree =    8086.681627
siesta:       Edftu   =       0.000000
siesta:       Eso     =      -0.004279
siesta:    Ext. field =       0.000000
siesta:   Exch.-corr. =   -1119.595176
siesta:  Ion-electron =  -18758.142814
siesta:       Ion-ion =    4742.122124
siesta:       Ekinion =       0.000000
siesta:         Total =   -4146.288346
siesta:         Fermi =      -3.765892

siesta: Atomic forces (eV/Ang):
siesta:      1    0.015871   -0.052116    0.000000
siesta:      2   -0.548217    0.302073    0.000000
siesta:      3    0.441384   -0.020763    0.000000
siesta:      4   -0.114827    0.141551    0.000000
siesta:      5   -0.215380   -0.227126   -0.000000
siesta:      6    0.076478   -0.056387   -0.000000
siesta:      7    1.221110    1.082921    0.000000
siesta:      8    0.774417   -2.350668   -0.000000
siesta:      9   -1.324016    1.810117   -0.000000
siesta:     10    0.155825   -0.278506    0.000000
siesta:     11   -1.064666   -0.346455   -0.000000
siesta:     12    1.268092   -0.229816   -0.000000
siesta:     13    2.139478    0.033662   -0.000000
siesta:     14   -0.042360    0.030488    0.000000
siesta:     15    0.107019    0.043760   -0.000000
siesta:     16    0.022131   -0.017955    0.000000
siesta:     17   -0.022371    0.027535    0.000000
siesta:     18   -0.014411    0.061361    0.000000
siesta:     19    0.265081    0.027536   -0.000000
siesta:     20   -1.405125   -0.194019    0.000000
siesta:     21   -3.125935   -2.129010   -0.000000
siesta:     22    0.388100    0.785191    0.000000
siesta:     23    0.230064   -0.588515   -0.000000
siesta:     24   -0.343764   -1.021587   -0.000000
siesta:     25   -0.483488    1.602519    0.000000
siesta:     26    0.993606   -1.112996   -0.000000
siesta:     27   -0.123361    0.173335   -0.000000
siesta:     28    0.066351    0.743987   -0.000000
siesta:     29   -0.318658   -0.433917    0.000000
siesta: ----------------------------------------
siesta:    Tot   -0.981572   -2.193800    0.000000

siesta: Stress tensor (static) (eV/Ang**3):
siesta:     0.000729   -0.000708   -0.000000
siesta:    -0.000708    0.000221   -0.000000
siesta:    -0.000000    0.000000   -0.000054

siesta: Cell volume =       5804.175255 Ang**3

siesta: Pressure (static):
siesta:                Solid            Molecule  Units
siesta:          -0.00000325         -0.00000716  Ry/Bohr**3
siesta:          -0.00029830         -0.00065734  eV/Ang**3
siesta:          -0.47792838         -1.05318399  kBar
(Free)E+ p_basis*V_orbitals  =       -4126.437929
(Free)Eharris+ p_basis*V_orbitals  =       -4126.437929
     spin moment: S , {S} =    0.00000   0.00000  -0.00000  -0.00000

siesta: Electric dipole (a.u.)  =    0.058050    1.494754    0.000000
siesta: Electric dipole (Debye) =    0.147550    3.799288    0.000000

cite: Please see "GC.bib" for an exhaustive BiBTeX file.
cite: Please clearly indicate Siesta version in published work: v4.1.5-1-g384057250
cite: This calculation has made use of the following articles
cite: which are encouraged to be cited in a published work.
        Primary SIESTA paper
          DOI: www.doi.org/10.1088/0953-8984/14/11/302
        Spin-orbit coupling (on-site approximation)
          DOI: www.doi.org/10.1088/0953-8984/19/19/489001


WARNING: alloc-realloc-dealloc name mismatch
         Name: atomlist isa
         Size:              -116. Bytes
         Node:     0
         Subsequent mismatches will not be reported
>> End of run:  16-OCT-2023  19:21:29
Job completed
