Siesta Version  : v4.1.5-1-g384057250
Architecture    : gcc
Compiler version: GNU Fortran (Debian 10.2.1-6) 10.2.1 20210110
Compiler flags  : mpifort -O2 -fPIC -ftree-vectorize -fallow-argument-mismatch
PP flags        : -DFC_HAVE_ABORT -DMPI -DSIESTA__FLOOK -DSIESTA__METIS -DSIESTA__MUMPS -DCDF -DNCDF -DNCDF_4 -DNCDF_PARALLEL -DSIESTA__MRRR -DSIESTA__ELPA
Libraries       : libncdf.a libfdict.a  -lflookall -ldl -lnetcdff -lnetcdf -lhdf5_hl -lhdf5 -lhdf5_fortran -lz -lscalapack-openmpi -lopenblas -lmetis -lzmumps -lcmumps -ldmumps -lmumps_common -lpord -lsmumps -lesmumps -lscotch -lscotcherr -fopenmp -lelpa
PARALLEL version
NetCDF support
NetCDF-4 support
NetCDF-4 MPI-IO support
METIS ordering support
Lua support

* Running on 6 nodes in parallel
>> Start of run:  16-OCT-2023  19:16:48

                           ***********************       
                           *  WELCOME TO SIESTA  *       
                           ***********************       

reinit: Reading from standard input
reinit: Dumped input in INPUT_TMP.63790
************************** Dump of input data file ****************************
# mpirun -np 4 siesta-4.1.5 < GC.fdf > GC.out &
SystemLabel      GC
NumberOfAtoms    29
NumberOfSpecies  4
%block ChemicalSpeciesLabel
    1    1  H
    2    7  N
    3   14  Si
    4    8  O
%endblock ChemicalSpeciesLabel
############################################
# This overrides Defaults.fdf configuration
############################################
MD.TypeOfRun                CG # CG, Verlet
MD.Steps                    0
MaxSCFIterations            600
AtomicCoordinatesFormat NotScaledCartesianAng
%block AtomicCoordinatesAndAtomicSpecies
    -1.3097999169582324 7.086366940559602 0.0  1  1  H
    -2.0162866469582323 6.296330760559601 0.0  2  2  N
    -3.746573556958232 6.737694670559601 0.0  3  3  Si
    -3.9023532369582323 8.227686930559601 0.0  1  4  H
    -5.269895176958233 5.178787150559601 0.0  3  5  Si
    -6.753082806958233 5.421617510559601 0.0  1  6  H
    -4.071504316958232 3.265510990559601 0.0  3  7  Si
    -4.837529776958233 1.732794250559601 0.0  2  8  N
    -4.247283226958232 0.7755812205596011 0.0  1  9  H
    -5.889152096958233 1.652334020559601 0.0  1  10  H
    -2.3553042569582323 3.320685300559601 0.0  2  11  N
    -1.2802816369582324 4.651024140559601 0.0  3  12  Si
    0.32839168304176747 4.632213880559601 0.0  4  13  O
    5.6164483 -7.44953905 0.0  1  14  H
    4.58206954 -7.2320376 0.0  2  15  N
    3.29666389 -8.492636 0.0  3  16  Si
    3.80117524 -9.90371886 -0.0  1  17  H
    1.65934232 -8.01362137 0.0  2  18  N
    1.68097912 -6.20463398 -0.0  3  19  Si
    0.54543521 -4.28636135 0.0  3  20  Si
    -1.03431493 -3.94450034 0.0  4  21  O
    1.73226934 -2.87719605 0.0  2  22  N
    1.20957366 -1.92961761 -0.0  1  23  H
    3.50853448 -2.77677601 0.0  3  24  Si
    4.13684451 -1.17938608 0.0  2  25  N
    3.54296161 -0.26248101 0.0  1  26  H
    5.18364407 -1.05231197 -0.0  1  27  H
    4.63288658 -4.07521596 -0.0  2  28  N
    3.79410501 -5.58634043 0.0  3  29  Si
%endblock AtomicCoordinatesAndAtomicSpecies
%include ../../../../Defaults.fdf
************************** End of input data file *****************************

reinit: -----------------------------------------------------------------------
reinit: System Name: 
reinit: -----------------------------------------------------------------------
reinit: System Label: GC
reinit: -----------------------------------------------------------------------

initatom: Reading input for the pseudopotentials and atomic orbitals ----------
Species number:   1 Atomic number:    1 Label: H
Species number:   2 Atomic number:    7 Label: N
Species number:   3 Atomic number:   14 Label: Si
Species number:   4 Atomic number:    8 Label: O

Ground state valence configuration:   1s01
Reading pseudopotential information in formatted form from H.psf

Pseudopotential generated from a relativistic atomic calculation

Valence configuration for pseudopotential generation:
1s( 1.00) rc: 0.01
2p( 0.00) rc: 0.60
3d( 0.00) rc: 1.99
4f( 0.00) rc: 2.49
Ground state valence configuration:   2s02  2p03
Reading pseudopotential information in formatted form from N.psf

Pseudopotential generated from a relativistic atomic calculation

Valence configuration for pseudopotential generation:
2s( 2.00) rc: 0.94
2p( 3.00) rc: 0.59
3d( 0.00) rc: 3.46
4f( 0.00) rc: 2.47
Ground state valence configuration:   3s02  3p02
Reading pseudopotential information in formatted form from Si.psf

Pseudopotential generated from a relativistic atomic calculation

Valence configuration for pseudopotential generation:
3s( 2.00) rc: 1.67
3p( 2.00) rc: 2.04
3d( 0.00) rc: 2.89
4f( 0.00) rc: 2.49
Ground state valence configuration:   2s02  2p04
Reading pseudopotential information in formatted form from O.psf

Pseudopotential generated from a relativistic atomic calculation

Valence configuration for pseudopotential generation:
2s( 2.00) rc: 0.45
2p( 4.00) rc: 0.92
3d( 0.00) rc: 2.24
4f( 0.00) rc: 0.25
For H, standard SIESTA heuristics set lmxkb to 2
 (one more than the basis l, including polarization orbitals).
Use PS.lmax or PS.KBprojectors blocks to override.
For N, standard SIESTA heuristics set lmxkb to 3
 (one more than the basis l, including polarization orbitals).
Use PS.lmax or PS.KBprojectors blocks to override.
For Si, standard SIESTA heuristics set lmxkb to 3
 (one more than the basis l, including polarization orbitals).
Use PS.lmax or PS.KBprojectors blocks to override.
For O, standard SIESTA heuristics set lmxkb to 3
 (one more than the basis l, including polarization orbitals).
Use PS.lmax or PS.KBprojectors blocks to override.

<basis_specs>
===============================================================================
H                    Z=   1    Mass=  1.0100        Charge= 0.17977+309
Lmxo=0 Lmxkb= 2    BasisType=split      Semic=F
L=0  Nsemic=0  Cnfigmx=1
          i=1  nzeta=2  polorb=1  (1s)
            splnorm:   0.62000    
               vcte:    0.0000    
               rinn:    0.0000    
               qcoe:    0.0000    
               qyuk:    0.0000    
               qwid:   0.10000E-01
                rcs:    0.0000      0.0000    
            lambdas:    1.0000      1.0000    
-------------------------------------------------------------------------------
L=0  Nkbl=1  erefs: 0.17977+309
L=1  Nkbl=1  erefs: 0.17977+309
L=2  Nkbl=1  erefs: 0.17977+309
===============================================================================
</basis_specs>

atom: Called for H                     (Z =   1)

read_vps: Pseudopotential generation method:
read_vps: ATM4.2.7  Troullier-Martins                       
Valence charge for ps generation:    1.00000

xc_check: Exchange-correlation functional:
xc_check: GGA Perdew, Burke & Ernzerhof 1996
V l=0 = -2*Zval/r beyond r=  0.0098
V l=1 = -2*Zval/r beyond r=  0.5817
V l=2 = -2*Zval/r beyond r=  1.9372
All V_l potentials equal beyond r=  1.9372
This should be close to max(r_c) in ps generation
All pots = -2*Zval/r beyond r=  1.9372

VLOCAL1: 99.0% of the norm of Vloc inside     11.567 Ry
VLOCAL1: 99.9% of the norm of Vloc inside     26.362 Ry
atom: Maximum radius for 4*pi*r*r*local-pseudopot. charge    2.25106
atom: Maximum radius for r*vlocal+2*Zval:    1.91306
GHOST: No ghost state for L =  0
GHOST: No ghost state for L =  1
GHOST: No ghost state for L =  2

KBgen: Kleinman-Bylander projectors: 
   l= 0   rc=  2.036604   el= -0.477180   Ekb= -6.081590   kbcos= -0.277285
   l= 1   rc=  2.195416   el=  0.001076   Ekb= -0.926943   kbcos= -0.034643
   l= 2   rc=  2.251056   el=  0.002010   Ekb= -0.130941   kbcos= -0.009788

KBgen: Total number of Kleinman-Bylander projectors:    9
atom: -------------------------------------------------------------------------

atom: SANKEY-TYPE ORBITALS:
atom: Selected multiple-zeta basis: split     

SPLIT: Orbitals with angular momentum L= 0

SPLIT: Basis orbitals for state 1s

SPLIT: PAO cut-off radius determined from an
SPLIT: energy shift=  0.002000 Ry

   izeta = 1
                 lambda =    1.000000
                     rc =    6.518340
                 energy =   -0.475305
                kinetic =    0.912139
    potential(screened) =   -1.387444
       potential(ionic) =   -1.907295

   izeta = 2
                 rmatch =    2.141150
              splitnorm =    0.620000
                 energy =    0.566467
                kinetic =    3.772856
    potential(screened) =   -3.206389
       potential(ionic) =   -3.759093

POLgen: Perturbative polarization orbital with L=  1

POLgen: Polarization orbital for state 1s

   izeta = 1
                     rc =    6.518340
                 energy =    0.533861
                kinetic =    1.121086
    potential(screened) =   -0.587225
       potential(ionic) =   -1.053027
atom: Total number of Sankey-type orbitals:  5

atm_pop: Valence configuration (for local Pseudopot. screening):
 1s( 1.00)                                                            
Vna: chval, zval:    1.00000   1.00000

Vna:  Cut-off radius for the neutral-atom potential:   6.518340

atom: _________________________________________________________________________

<basis_specs>
===============================================================================
N                    Z=   7    Mass=  14.010        Charge= 0.17977+309
Lmxo=1 Lmxkb= 3    BasisType=split      Semic=F
L=0  Nsemic=0  Cnfigmx=2
          i=1  nzeta=2  polorb=0  (2s)
            splnorm:   0.28000    
               vcte:    0.0000    
               rinn:    0.0000    
               qcoe:    0.0000    
               qyuk:    0.0000    
               qwid:   0.10000E-01
                rcs:    0.0000      0.0000    
            lambdas:    1.0000      1.0000    
L=1  Nsemic=0  Cnfigmx=2
          i=1  nzeta=2  polorb=1  (2p)
            splnorm:   0.28000    
               vcte:    0.0000    
               rinn:    0.0000    
               qcoe:    0.0000    
               qyuk:    0.0000    
               qwid:   0.10000E-01
                rcs:    0.0000      0.0000    
            lambdas:    1.0000      1.0000    
-------------------------------------------------------------------------------
L=0  Nkbl=1  erefs: 0.17977+309
L=1  Nkbl=1  erefs: 0.17977+309
L=2  Nkbl=1  erefs: 0.17977+309
L=3  Nkbl=1  erefs: 0.17977+309
===============================================================================
</basis_specs>

atom: Called for N                     (Z =   7)

read_vps: Pseudopotential generation method:
read_vps: ATM4.2.7  Troullier-Martins                       
Valence charge for ps generation:    5.00000

xc_check: Exchange-correlation functional:
xc_check: GGA Perdew, Burke & Ernzerhof 1996
V l=0 = -2*Zval/r beyond r=  1.2889
V l=1 = -2*Zval/r beyond r=  1.2889
V l=2 = -2*Zval/r beyond r=  3.4178
V l=3 = -2*Zval/r beyond r=  2.4084
All V_l potentials equal beyond r=  3.3753
This should be close to max(r_c) in ps generation
All pots = -2*Zval/r beyond r=  3.4178

VLOCAL1: 99.0% of the norm of Vloc inside      3.810 Ry
VLOCAL1: 99.9% of the norm of Vloc inside      8.683 Ry
atom: Maximum radius for 4*pi*r*r*local-pseudopot. charge    4.02088
atom: Maximum radius for r*vlocal+2*Zval:    3.54838
GHOST: No ghost state for L =  0
GHOST: No ghost state for L =  1
GHOST: No ghost state for L =  2
GHOST: No ghost state for L =  3

KBgen: Kleinman-Bylander projectors: 
   l= 0   rc=  3.417763   el= -1.365098   Ekb= -4.433130   kbcos= -0.707855
   l= 1   rc=  3.375302   el= -0.521201   Ekb=-13.264039   kbcos= -0.535594
   l= 2   rc=  3.872880   el=  0.001991   Ekb= -0.641094   kbcos= -0.062456
   l= 3   rc=  3.970931   el=  0.003093   Ekb= -0.474517   kbcos= -0.018236

KBgen: Total number of Kleinman-Bylander projectors:   16
atom: -------------------------------------------------------------------------

atom: SANKEY-TYPE ORBITALS:
atom: Selected multiple-zeta basis: split     

SPLIT: Orbitals with angular momentum L= 0

SPLIT: Basis orbitals for state 2s

SPLIT: PAO cut-off radius determined from an
SPLIT: energy shift=  0.002000 Ry

   izeta = 1
                 lambda =    1.000000
                     rc =    4.730425
                 energy =   -1.363399
                kinetic =    1.245246
    potential(screened) =   -2.608645
       potential(ionic) =   -8.121105

   izeta = 2
                 rmatch =    2.531849
              splitnorm =    0.280000
                 energy =   -0.959908
                kinetic =    2.409435
    potential(screened) =   -3.369343
       potential(ionic) =   -9.427975

SPLIT: Orbitals with angular momentum L= 1

SPLIT: Basis orbitals for state 2p

SPLIT: PAO cut-off radius determined from an
SPLIT: energy shift=  0.002000 Ry

   izeta = 1
                 lambda =    1.000000
                     rc =    5.924108
                 energy =   -0.519262
                kinetic =    3.672940
    potential(screened) =   -4.192202
       potential(ionic) =   -9.518354

   izeta = 2
                 rmatch =    2.531849
              splitnorm =    0.280000
                 energy =   -0.104258
                kinetic =    6.807538
    potential(screened) =   -6.911796
       potential(ionic) =  -13.149920

POLgen: Perturbative polarization orbital with L=  2

POLgen: Polarization orbital for state 2p

   izeta = 1
                     rc =    5.924108
                 energy =    1.427508
                kinetic =    2.872379
    potential(screened) =   -1.444871
       potential(ionic) =   -5.563644
atom: Total number of Sankey-type orbitals: 13

atm_pop: Valence configuration (for local Pseudopot. screening):
 2s( 2.00)                                                            
 2p( 3.00)                                                            
Vna: chval, zval:    5.00000   5.00000

Vna:  Cut-off radius for the neutral-atom potential:   5.924108

atom: _________________________________________________________________________

<basis_specs>
===============================================================================
Si                   Z=  14    Mass=  28.090        Charge= 0.17977+309
Lmxo=1 Lmxkb= 3    BasisType=split      Semic=F
L=0  Nsemic=0  Cnfigmx=3
          i=1  nzeta=2  polorb=0  (3s)
            splnorm:   0.28000    
               vcte:    0.0000    
               rinn:    0.0000    
               qcoe:    0.0000    
               qyuk:    0.0000    
               qwid:   0.10000E-01
                rcs:    0.0000      0.0000    
            lambdas:    1.0000      1.0000    
L=1  Nsemic=0  Cnfigmx=3
          i=1  nzeta=2  polorb=1  (3p)
            splnorm:   0.28000    
               vcte:    0.0000    
               rinn:    0.0000    
               qcoe:    0.0000    
               qyuk:    0.0000    
               qwid:   0.10000E-01
                rcs:    0.0000      0.0000    
            lambdas:    1.0000      1.0000    
-------------------------------------------------------------------------------
L=0  Nkbl=1  erefs: 0.17977+309
L=1  Nkbl=1  erefs: 0.17977+309
L=2  Nkbl=1  erefs: 0.17977+309
L=3  Nkbl=1  erefs: 0.17977+309
===============================================================================
</basis_specs>

atom: Called for Si                    (Z =  14)

read_vps: Pseudopotential generation method:
read_vps: ATM4.2.7  Troullier-Martins                       
Valence charge for ps generation:    4.00000

xc_check: Exchange-correlation functional:
xc_check: GGA Perdew, Burke & Ernzerhof 1996
V l=0 = -2*Zval/r beyond r=  2.7826
V l=1 = -2*Zval/r beyond r=  2.7826
V l=2 = -2*Zval/r beyond r=  2.9253
V l=3 = -2*Zval/r beyond r=  2.7826
All V_l potentials equal beyond r=  2.8530
This should be close to max(r_c) in ps generation
All pots = -2*Zval/r beyond r=  2.9253

VLOCAL1: 99.0% of the norm of Vloc inside      5.333 Ry
VLOCAL1: 99.9% of the norm of Vloc inside     12.154 Ry
atom: Maximum radius for 4*pi*r*r*local-pseudopot. charge    3.39869
atom: Maximum radius for r*vlocal+2*Zval:    2.96205
GHOST: No ghost state for L =  0
GHOST: No ghost state for L =  1
GHOST: No ghost state for L =  2
GHOST: No ghost state for L =  3

KBgen: Kleinman-Bylander projectors: 
   l= 0   rc=  3.075247   el= -0.794092   Ekb=  5.879390   kbcos=  0.167461
   l= 1   rc=  3.153101   el= -0.300068   Ekb=  2.642817   kbcos=  0.058301
   l= 2   rc=  3.273594   el=  0.001958   Ekb= -1.185135   kbcos= -0.104411
   l= 3   rc=  3.232927   el=  0.003046   Ekb= -0.497174   kbcos= -0.015889

KBgen: Total number of Kleinman-Bylander projectors:   16
atom: -------------------------------------------------------------------------

atom: SANKEY-TYPE ORBITALS:
atom: Selected multiple-zeta basis: split     

SPLIT: Orbitals with angular momentum L= 0

SPLIT: Basis orbitals for state 3s

SPLIT: PAO cut-off radius determined from an
SPLIT: energy shift=  0.002000 Ry

   izeta = 1
                 lambda =    1.000000
                     rc =    6.429618
                 energy =   -0.792283
                kinetic =    0.525293
    potential(screened) =   -1.317576
       potential(ionic) =   -3.744923

   izeta = 2
                 rmatch =    3.998416
              splitnorm =    0.280000
                 energy =   -0.583081
                kinetic =    1.069570
    potential(screened) =   -1.652651
       potential(ionic) =   -4.235185

SPLIT: Orbitals with angular momentum L= 1

SPLIT: Basis orbitals for state 3p

SPLIT: PAO cut-off radius determined from an
SPLIT: energy shift=  0.002000 Ry

   izeta = 1
                 lambda =    1.000000
                     rc =    8.464845
                 energy =   -0.298236
                kinetic =    0.785360
    potential(screened) =   -1.083596
       potential(ionic) =   -3.273779

   izeta = 2
                 rmatch =    4.587816
              splitnorm =    0.280000
                 energy =   -0.131871
                kinetic =    1.403687
    potential(screened) =   -1.535557
       potential(ionic) =   -4.015310

POLgen: Perturbative polarization orbital with L=  2

POLgen: Polarization orbital for state 3p

   izeta = 1
                     rc =    8.464845
                 energy =    0.321949
                kinetic =    1.055677
    potential(screened) =   -0.733728
       potential(ionic) =   -2.672950
atom: Total number of Sankey-type orbitals: 13

atm_pop: Valence configuration (for local Pseudopot. screening):
 3s( 2.00)                                                            
 3p( 2.00)                                                            
Vna: chval, zval:    4.00000   4.00000

Vna:  Cut-off radius for the neutral-atom potential:   8.464845

atom: _________________________________________________________________________

<basis_specs>
===============================================================================
O                    Z=   8    Mass=  16.000        Charge= 0.17977+309
Lmxo=1 Lmxkb= 3    BasisType=split      Semic=F
L=0  Nsemic=0  Cnfigmx=2
          i=1  nzeta=2  polorb=0  (2s)
            splnorm:   0.28000    
               vcte:    0.0000    
               rinn:    0.0000    
               qcoe:    0.0000    
               qyuk:    0.0000    
               qwid:   0.10000E-01
                rcs:    0.0000      0.0000    
            lambdas:    1.0000      1.0000    
L=1  Nsemic=0  Cnfigmx=2
          i=1  nzeta=2  polorb=1  (2p)
            splnorm:   0.28000    
               vcte:    0.0000    
               rinn:    0.0000    
               qcoe:    0.0000    
               qyuk:    0.0000    
               qwid:   0.10000E-01
                rcs:    0.0000      0.0000    
            lambdas:    1.0000      1.0000    
-------------------------------------------------------------------------------
L=0  Nkbl=1  erefs: 0.17977+309
L=1  Nkbl=1  erefs: 0.17977+309
L=2  Nkbl=1  erefs: 0.17977+309
L=3  Nkbl=1  erefs: 0.17977+309
===============================================================================
</basis_specs>

atom: Called for O                     (Z =   8)

read_vps: Pseudopotential generation method:
read_vps: ATM4.2.7  Troullier-Martins                       
Valence charge for ps generation:    6.00000

xc_check: Exchange-correlation functional:
xc_check: GGA Perdew, Burke & Ernzerhof 1996
V l=0 = -2*Zval/r beyond r=  1.1000
V l=1 = -2*Zval/r beyond r=  1.1000
V l=2 = -2*Zval/r beyond r=  2.2154
V l=3 = -2*Zval/r beyond r=  1.1000
All V_l potentials equal beyond r=  2.2154
This should be close to max(r_c) in ps generation
All pots = -2*Zval/r beyond r=  2.2154

VLOCAL1: 99.0% of the norm of Vloc inside      8.845 Ry
VLOCAL1: 99.9% of the norm of Vloc inside     20.157 Ry
atom: Maximum radius for 4*pi*r*r*local-pseudopot. charge    2.67231
atom: Maximum radius for r*vlocal+2*Zval:    2.32897
GHOST: No ghost state for L =  0
GHOST: No ghost state for L =  1
GHOST: No ghost state for L =  2
GHOST: No ghost state for L =  3

KBgen: Kleinman-Bylander projectors: 
   l= 0   rc=  2.243238   el= -1.759686   Ekb=**********   kbcos= -0.171774
   l= 1   rc=  2.328968   el= -0.663873   Ekb=-14.506792   kbcos= -0.519897
   l= 2   rc=  2.573941   el=  0.002031   Ekb= -1.137373   kbcos= -0.019581
   l= 3   rc=  2.606321   el=  0.003153   Ekb= -1.013546   kbcos= -0.003122

KBgen: Total number of Kleinman-Bylander projectors:   16
atom: -------------------------------------------------------------------------

atom: SANKEY-TYPE ORBITALS:
atom: Selected multiple-zeta basis: split     

SPLIT: Orbitals with angular momentum L= 0

SPLIT: Basis orbitals for state 2s

SPLIT: PAO cut-off radius determined from an
SPLIT: energy shift=  0.002000 Ry

   izeta = 1
                 lambda =    1.000000
                     rc =    4.243912
                 energy =   -1.758270
                kinetic =    3.286084
    potential(screened) =   -5.044353
       potential(ionic) =  -12.921184

   izeta = 2
                 rmatch =    2.187845
              splitnorm =    0.280000
                 energy =   -0.885018
                kinetic =    8.134434
    potential(screened) =   -9.019452
       potential(ionic) =  -17.710645

SPLIT: Orbitals with angular momentum L= 1

SPLIT: Basis orbitals for state 2p

SPLIT: PAO cut-off radius determined from an
SPLIT: energy shift=  0.002000 Ry

   izeta = 1
                 lambda =    1.000000
                     rc =    5.314825
                 energy =   -0.661986
                kinetic =    4.917472
    potential(screened) =   -5.579458
       potential(ionic) =  -13.236259

   izeta = 2
                 rmatch =    2.160663
              splitnorm =    0.280000
                 energy =   -0.068760
                kinetic =    9.183374
    potential(screened) =   -9.252135
       potential(ionic) =  -18.274251

POLgen: Perturbative polarization orbital with L=  2

POLgen: Polarization orbital for state 2p

   izeta = 1
                     rc =    5.314825
                 energy =    1.970580
                kinetic =    3.886128
    potential(screened) =   -1.915547
       potential(ionic) =   -7.749584
atom: Total number of Sankey-type orbitals: 13

atm_pop: Valence configuration (for local Pseudopot. screening):
 2s( 2.00)                                                            
 2p( 4.00)                                                            
Vna: chval, zval:    6.00000   6.00000

Vna:  Cut-off radius for the neutral-atom potential:   5.314825

atom: _________________________________________________________________________

prinput: Basis input ----------------------------------------------------------

PAO.BasisType split     

%block ChemicalSpeciesLabel
    1    1 H                       # Species index, atomic number, species label
    2    7 N                       # Species index, atomic number, species label
    3   14 Si                      # Species index, atomic number, species label
    4    8 O                       # Species index, atomic number, species label
%endblock ChemicalSpeciesLabel

%block PAO.Basis                 # Define Basis set
H                     1                    # Species label, number of l-shells
 n=1   0   2 P   1                   # n, l, Nzeta, Polarization, NzetaPol
   6.518      2.141   
   1.000      1.000   
N                     2                    # Species label, number of l-shells
 n=2   0   2                         # n, l, Nzeta 
   4.730      2.532   
   1.000      1.000   
 n=2   1   2 P   1                   # n, l, Nzeta, Polarization, NzetaPol
   5.924      2.532   
   1.000      1.000   
Si                    2                    # Species label, number of l-shells
 n=3   0   2                         # n, l, Nzeta 
   6.430      3.998   
   1.000      1.000   
 n=3   1   2 P   1                   # n, l, Nzeta, Polarization, NzetaPol
   8.465      4.588   
   1.000      1.000   
O                     2                    # Species label, number of l-shells
 n=2   0   2                         # n, l, Nzeta 
   4.244      2.188   
   1.000      1.000   
 n=2   1   2 P   1                   # n, l, Nzeta, Polarization, NzetaPol
   5.315      2.161   
   1.000      1.000   
%endblock PAO.Basis

prinput: ----------------------------------------------------------------------

Dumping basis to NetCDF file H.ion.nc
Dumping basis to NetCDF file N.ion.nc
Dumping basis to NetCDF file Si.ion.nc
Dumping basis to NetCDF file O.ion.nc
coor:   Atomic-coordinates input format  =     Cartesian coordinates
coor:                                          (in Angstroms)

siesta: Atomic coordinates (Bohr) and species
siesta:     -2.47516  13.39130   0.00000  1        1
siesta:     -3.81023  11.89835   0.00000  2        2
siesta:     -7.08000  12.73240   0.00000  3        3
siesta:     -7.37438  15.54808   0.00000  1        4
siesta:     -9.95866   9.78649   0.00000  3        5
siesta:    -12.76148  10.24538   0.00000  1        6
siesta:     -7.69403   6.17092   0.00000  3        7
siesta:     -9.14161   3.27451   0.00000  2        8
siesta:     -8.02621   1.46564   0.00000  1        9
siesta:    -11.12889   3.12246   0.00000  1       10
siesta:     -4.45088   6.27519   0.00000  2       11
siesta:     -2.41938   8.78917   0.00000  3       12
siesta:      0.62057   8.75362   0.00000  4       13
siesta:     10.61355 -14.07759   0.00000  1       14
siesta:      8.65886 -13.66658   0.00000  2       15
siesta:      6.22979 -16.04876   0.00000  3       16
siesta:      7.18318 -18.71532  -0.00000  1       17
siesta:      3.13570 -15.14356   0.00000  2       18
siesta:      3.17659 -11.72506  -0.00000  3       19
siesta:      1.03072  -8.10005   0.00000  3       20
siesta:     -1.95457  -7.45403   0.00000  4       21
siesta:      3.27352  -5.43711   0.00000  2       22
siesta:      2.28576  -3.64645  -0.00000  1       23
siesta:      6.63017  -5.24735   0.00000  3       24
siesta:      7.81751  -2.22872   0.00000  2       25
siesta:      6.69523  -0.49602   0.00000  1       26
siesta:      9.79567  -1.98858  -0.00000  1       27
siesta:      8.75489  -7.70105  -0.00000  2       28
siesta:      7.16982 -10.55666   0.00000  3       29

siesta: Automatic unit cell vectors (Ang):
siesta:   21.195067    0.000000    0.000000
siesta:    0.000000   27.533129    0.000000
siesta:    0.000000    0.000000    9.854683

siesta: System type = molecule  

initatomlists: Number of atoms, orbitals, and projectors:     29   297   394

siesta: ******************** Simulation parameters ****************************
siesta:
siesta: The following are some of the parameters of the simulation.
siesta: A complete list of the parameters used, including default values,
siesta: can be found in file out.fdf
siesta:
redata: Spin configuration                          = spin-orbit
redata: Number of spin components                   = 8
redata: Time-Reversal Symmetry                      = F
redata: Spin spiral                                 = F
############################################################
This spin-orbit implementation uses a local approximation.
From 4.2 and onwards the full non-local approximation is implemented
You are strongly advised to use >=4.2 versions!
############################################################
redata: Long output                                 =   F
redata: Number of Atomic Species                    =        4
redata: Charge density info will appear in .RHO file
redata: Write Mulliken Pop.                         = NO
redata: Matel table size (NRTAB)                    =     1024
redata: Mesh Cutoff                                 =   340.0000 Ry
redata: Net charge of the system                    =     0.0000 |e|
redata: Min. number of SCF Iter                     =        1
redata: Max. number of SCF Iter                     =      600
redata: SCF convergence failure will abort job
redata: SCF mix quantity                            = Hamiltonian
redata: Mix DM or H after convergence               =   F
redata: Recompute H after scf cycle                 =   F
redata: Mix DM in first SCF step                    =   T
redata: Write Pulay info on disk                    =   F
redata: New DM Occupancy tolerance                  = 0.000000000001
redata: No kicks to SCF
redata: DM Mixing Weight for Kicks                  =     0.5000
redata: Require Harris convergence for SCF          =   F
redata: Harris energy tolerance for SCF             =     0.000100 eV
redata: Require DM convergence for SCF              =   T
redata: DM tolerance for SCF                        =     0.000008
redata: Require EDM convergence for SCF             =   F
redata: EDM tolerance for SCF                       =     0.001000 eV
redata: Require H convergence for SCF               =   T
redata: Hamiltonian tolerance for SCF               =     0.000001 eV
redata: Require (free) Energy convergence for SCF   =   F
redata: (free) Energy tolerance for SCF             =     0.000100 eV
redata: Using Saved Data (generic)                  =   F
redata: Use continuation files for DM               =   T
redata: Neglect nonoverlap interactions             =   F
redata: Method of Calculation                       = Diagonalization
redata: Electronic Temperature                      =   299.9978 K
redata: Fix the spin of the system                  =   F
redata: Dynamics option                             = Single-point calculation
mix.SCF: Pulay mixing                            = Pulay
mix.SCF:    Variant                              = stable
mix.SCF:    History steps                        = 6
mix.SCF:    Linear mixing weight                 =     0.250000
mix.SCF:    Mixing weight                        =     0.250000
mix.SCF:    SVD condition                        = 0.1000E-07
mix.SCF:    Restart steps                        = 24
mix.SCF:    Restart save steps                   = 3
mix.SCF: Spin-component mixing                   all
redata: Save all siesta data in one NC              =   F
redata: ***********************************************************************

%block SCF.Mixers
  Pulay
%endblock SCF.Mixers

%block SCF.Mixer.Pulay
  # Mixing method
  method pulay
  variant stable

  # Mixing options
  weight 0.2500
  weight.linear 0.2500
  history 6
  restart 24
  restart.save 3
%endblock SCF.Mixer.Pulay

DM_history_depth set to one: no extrapolation allowed by default for geometry relaxation
Size of DM history Fstack: 1
Total number of electrons:    98.000000
Total ionic charge:    98.000000

* ProcessorY, Blocksize:    2  24


* Orbital distribution balance (max,min):    57    48


Time-reversal symmetry not used.

siesta: k-grid: Number of k-points =     1
siesta: k-grid: Cutoff (effective) =     4.927 Ang
siesta: k-grid: Supercell and displacements
siesta: k-grid:    1   0   0      0.000
siesta: k-grid:    0   1   0      0.000
siesta: k-grid:    0   0   1      0.000

diag: Algorithm                                     = ELPA-1stage
diag: Parallel over k                               =   F
diag: Use parallel 2D distribution                  =   T
diag: Parallel block-size                           = 24
diag: Parallel distribution                         =     2 x     3
diag: Used triangular part                          = Lower
diag: Absolute tolerance                            =  0.100E-15
diag: Orthogonalization factor                      =  0.100E-05
diag: Memory factor                                 =  1.0000


ts: **************************************************************
ts: Save H and S matrices                           =    F
ts: Save DM and EDM matrices                        =    F
ts: Only save the overlap matrix S                  =    F
ts: **************************************************************

************************ Begin: TS CHECKS AND WARNINGS ************************
************************ End: TS CHECKS AND WARNINGS **************************


                     ====================================
                        Single-point calculation
                     ====================================

outcoor: Atomic coordinates (Ang):                          
   -1.30979992    7.08636694    0.00000000   1       1  H
   -2.01628665    6.29633076    0.00000000   2       2  N
   -3.74657356    6.73769467    0.00000000   3       3  Si
   -3.90235324    8.22768693    0.00000000   1       4  H
   -5.26989518    5.17878715    0.00000000   3       5  Si
   -6.75308281    5.42161751    0.00000000   1       6  H
   -4.07150432    3.26551099    0.00000000   3       7  Si
   -4.83752978    1.73279425    0.00000000   2       8  N
   -4.24728323    0.77558122    0.00000000   1       9  H
   -5.88915210    1.65233402    0.00000000   1      10  H
   -2.35530426    3.32068530    0.00000000   2      11  N
   -1.28028164    4.65102414    0.00000000   3      12  Si
    0.32839168    4.63221388    0.00000000   4      13  O
    5.61644830   -7.44953905    0.00000000   1      14  H
    4.58206954   -7.23203760    0.00000000   2      15  N
    3.29666389   -8.49263600    0.00000000   3      16  Si
    3.80117524   -9.90371886    0.00000000   1      17  H
    1.65934232   -8.01362137    0.00000000   2      18  N
    1.68097912   -6.20463398    0.00000000   3      19  Si
    0.54543521   -4.28636135    0.00000000   3      20  Si
   -1.03431493   -3.94450034    0.00000000   4      21  O
    1.73226934   -2.87719605    0.00000000   2      22  N
    1.20957366   -1.92961761    0.00000000   1      23  H
    3.50853448   -2.77677601    0.00000000   3      24  Si
    4.13684451   -1.17938608    0.00000000   2      25  N
    3.54296161   -0.26248101    0.00000000   1      26  H
    5.18364407   -1.05231197    0.00000000   1      27  H
    4.63288658   -4.07521596    0.00000000   2      28  N
    3.79410501   -5.58634043    0.00000000   3      29  Si

outcell: Unit cell vectors (Ang):
       21.195067    0.000000    0.000000
        0.000000   27.533129    0.000000
        0.000000    0.000000    9.854683

outcell: Cell vector modules (Ang)   :   21.195067   27.533129    9.854683
outcell: Cell angles (23,13,12) (deg):     90.0000     90.0000     90.0000
outcell: Cell volume (Ang**3)        :   5750.8632
<dSpData1D:S at geom step 0
  <sparsity:sparsity for geom step 0
    nrows_g=297 nrows=57 sparsity=.0950 nnzs=8377, refcount: 8>
  <dData1D:(new from dSpData1D) n=8377, refcount: 1>
refcount: 1>
new_DM -- step:     1
Initializing Density Matrix...

Attempting to read DM from file... Failed...
DM filled with atomic data:
<dSpData2D:DM initialized from atoms
  <sparsity:sparsity for geom step 0
    nrows_g=297 nrows=57 sparsity=.0950 nnzs=8377, refcount: 9>
  <dData2D:DM n=8377 m=8, refcount: 1>
refcount: 1>
     spin moment: S , {S} =   56.00000   0.00000   0.00000  56.00000
No. of atoms with KB's overlaping orbs in proc 0. Max # of overlaps:      28     142

Initializing spin-orbit part of the Hamiltonian
  Adding spin-orbit effects for H 
  Adding spin-orbit effects for N 
  Adding spin-orbit effects for Si
  Adding spin-orbit effects for O 


New grid distribution:   1
           1       1:  120    1:   80    1:   20
           2       1:  120    1:   80   21:   40
           3       1:  120    1:   80   41:   60
           4       1:  120   81:  160    1:   20
           5       1:  120   81:  160   21:   40
           6       1:  120   81:  160   41:   60

InitMesh: MESH =   240 x   320 x   120 =     9216000
InitMesh: (bp) =   120 x   160 x    60 =     1152000
InitMesh: Mesh cutoff (required, used) =   340.000   354.368 Ry
ExtMesh (bp) on 0 =   224 x   188 x   132 =     5558784
New grid distribution:   2
           1       1:   88    1:  114    1:   60
           2      89:  120   29:  114    1:   60
           3      89:  120    1:   28    1:   60
           4       1:   14  115:  160    1:   60
           5      15:  120  135:  160    1:   60
           6      15:  120  115:  134    1:   60
New grid distribution:   3
           1       1:   75    1:   93    1:   60
           2      76:  120   31:   93    1:   60
           3      76:  120    1:   30    1:   60
           4       1:   19   94:  160    1:   60
           5      20:  120   94:  132    1:   60
           6      20:  120  133:  160    1:   60
Setting up quadratic distribution...
ExtMesh (bp) on 0 =   192 x   222 x   172 =     7331328
PhiOnMesh: Number of (b)points on node 0 =               601920
PhiOnMesh: nlist on node 0 =              2525505

stepf: Fermi-Dirac step function

siesta: Program's energy decomposition (eV):
siesta: Ebs     =      -625.530235
siesta: Eions   =      3585.165840
siesta: Ena     =       381.828398
siesta: Ekin    =      3368.784828
siesta: Enl     =     -3297.144377
siesta: Eso     =        -0.003411
siesta: Edftu   =         0.000000
siesta: DEna    =       153.491286
siesta: DUscf   =        81.884592
siesta: DUext   =         0.000000
siesta: Exc     =     -1204.039815
siesta: eta*DQ  =         0.000000
siesta: Emadel  =         0.000000
siesta: Emeta   =         0.000000
siesta: Emolmec =         0.000000
siesta: Ekinion =         0.000000
siesta: Eharris =     -4020.547722
siesta: Etot    =     -4100.364339
siesta: FreeEng =     -4100.365373

        iscf     Eharris(eV)        E_KS(eV)     FreeEng(eV)     dDmax    Ef(eV) dHmax(eV)
   scf:    1    -4020.547722    -4100.364339    -4100.365373  0.965705 -4.903676 21.950405
     spin moment: S , {S} =    2.00582   0.00000   0.00000   2.00582
timer: Routine,Calls,Time,% = IterSCF        1       6.561  25.03
   scf:    2    -4146.679768    -4135.680793    -4135.683162  0.449486 -4.221914 11.402586
     spin moment: S , {S} =    1.98652  -0.00000   0.00000   1.98652
   scf:    3    -4106.140753    -4132.985097    -4132.998765  0.421541 -4.338166 12.196287
     spin moment: S , {S} =    2.13553  -0.00000   0.00000   2.13553
   scf:    4    -4149.618217    -4144.879902    -4144.879902  0.322381 -3.918376  7.390204
     spin moment: S , {S} =    0.00010  -0.00000  -0.00000   0.00010
   scf:    5    -4146.243774    -4145.665723    -4145.665723  0.036336 -3.715806  4.728351
     spin moment: S , {S} =    0.00006  -0.00000   0.00000   0.00006
   scf:    6    -4146.441484    -4146.062930    -4146.062930  0.024315 -3.639190  2.318332
     spin moment: S , {S} =    0.00003  -0.00000  -0.00000   0.00003
   scf:    7    -4146.419825    -4146.237485    -4146.237485  0.021498 -3.538123  0.890198
     spin moment: S , {S} =    0.00001   0.00000  -0.00000   0.00001
   scf:    8    -4146.357232    -4146.295390    -4146.295390  0.012223 -3.781727  0.506019
     spin moment: S , {S} =    0.00000   0.00000  -0.00000   0.00000
   scf:    9    -4146.334158    -4146.314095    -4146.314095  0.006571 -3.736923  0.386945
     spin moment: S , {S} =    0.00000   0.00000  -0.00000   0.00000
   scf:   10    -4146.366242    -4146.333525    -4146.333525  0.022059 -3.786742  0.237482
     spin moment: S , {S} =    0.00000   0.00000  -0.00000  -0.00000
   scf:   11    -4146.337471    -4146.335509    -4146.335509  0.005754 -3.777125  0.065776
     spin moment: S , {S} =    0.00000   0.00000  -0.00000  -0.00000
   scf:   12    -4146.336748    -4146.336142    -4146.336142  0.001042 -3.769890  0.029413
     spin moment: S , {S} =    0.00000   0.00000  -0.00000  -0.00000
   scf:   13    -4146.336653    -4146.336395    -4146.336395  0.001212 -3.769399  0.019181
     spin moment: S , {S} =    0.00000   0.00000  -0.00000  -0.00000
   scf:   14    -4146.336667    -4146.336525    -4146.336525  0.000916 -3.766722  0.010938
     spin moment: S , {S} =    0.00000   0.00000  -0.00000  -0.00000
   scf:   15    -4146.336628    -4146.336573    -4146.336573  0.000791 -3.765664  0.007643
     spin moment: S , {S} =    0.00000   0.00000  -0.00000  -0.00000
   scf:   16    -4146.336637    -4146.336602    -4146.336602  0.000767 -3.767462  0.005597
     spin moment: S , {S} =    0.00000   0.00000  -0.00000   0.00000
   scf:   17    -4146.336620    -4146.336610    -4146.336610  0.000416 -3.767365  0.004087
     spin moment: S , {S} =    0.00000   0.00000  -0.00000   0.00000
   scf:   18    -4146.336618    -4146.336614    -4146.336614  0.000287 -3.767553  0.002703
     spin moment: S , {S} =    0.00000   0.00000  -0.00000   0.00000
   scf:   19    -4146.336618    -4146.336616    -4146.336616  0.000231 -3.767723  0.001799
     spin moment: S , {S} =    0.00000   0.00000  -0.00000   0.00000
   scf:   20    -4146.336617    -4146.336617    -4146.336617  0.000128 -3.767749  0.001279
     spin moment: S , {S} =    0.00000   0.00000  -0.00000   0.00000
   scf:   21    -4146.336618    -4146.336617    -4146.336617  0.000180 -3.767719  0.000655
     spin moment: S , {S} =    0.00000   0.00000  -0.00000   0.00000
   scf:   22    -4146.336618    -4146.336617    -4146.336617  0.000114 -3.767687  0.000229
     spin moment: S , {S} =    0.00000   0.00000  -0.00000   0.00000
   scf:   23    -4146.336618    -4146.336618    -4146.336618  0.000031 -3.767682  0.000178
     spin moment: S , {S} =    0.00000   0.00000  -0.00000   0.00000
   scf:   24    -4146.336618    -4146.336618    -4146.336618  0.000013 -3.767690  0.000104
     spin moment: S , {S} =    0.00000   0.00000  -0.00000   0.00000
mix: Pulay -- resetting history
   scf:   25    -4146.336618    -4146.336618    -4146.336618  0.000007 -3.767696  0.000044
     spin moment: S , {S} =    0.00000   0.00000  -0.00000   0.00000
   scf:   26    -4146.336618    -4146.336618    -4146.336618  0.000003 -3.767696  0.000030
     spin moment: S , {S} =    0.00000   0.00000  -0.00000   0.00000
   scf:   27    -4146.336618    -4146.336618    -4146.336618  0.000003 -3.767694  0.000020
     spin moment: S , {S} =    0.00000   0.00000  -0.00000  -0.00000
   scf:   28    -4146.336618    -4146.336618    -4146.336618  0.000002 -3.767692  0.000010
     spin moment: S , {S} =    0.00000   0.00000  -0.00000  -0.00000
   scf:   29    -4146.336618    -4146.336618    -4146.336618  0.000001 -3.767692  0.000006
     spin moment: S , {S} =    0.00000   0.00000  -0.00000  -0.00000
   scf:   30    -4146.336618    -4146.336618    -4146.336618  0.000001 -3.767692  0.000002
     spin moment: S , {S} =    0.00000   0.00000  -0.00000  -0.00000
   scf:   31    -4146.336618    -4146.336618    -4146.336618  0.000000 -3.767692  0.000002
     spin moment: S , {S} =    0.00000   0.00000  -0.00000  -0.00000
   scf:   32    -4146.336618    -4146.336618    -4146.336618  0.000000 -3.767692  0.000001
     spin moment: S , {S} =    0.00000   0.00000  -0.00000  -0.00000
   scf:   33    -4146.336618    -4146.336618    -4146.336618  0.000000 -3.767692  0.000001
     spin moment: S , {S} =    0.00000   0.00000  -0.00000  -0.00000

SCF Convergence by DM+H criterion
max |DM_out - DM_in|         :     0.0000001048
max |H_out - H_in|      (eV) :     0.0000005105
SCF cycle converged after 33 iterations

Using DM_out to compute the final energy and forces
No. of atoms with KB's overlaping orbs in proc 0. Max # of overlaps:      28     142

siesta: E_KS(eV) =            -4146.3366

siesta: E_KS - E_eggbox =     -4146.3366
     spin moment: S , {S} =    0.00000   0.00000  -0.00000  -0.00000

siesta: Atomic forces (eV/Ang):
     1    0.012989   -0.069834   -0.000000
     2   -0.534834    0.301692   -0.000000
     3    0.439244   -0.021264    0.000000
     4   -0.069564    0.146059    0.000000
     5   -0.213180   -0.226692   -0.000000
     6    0.023959    0.052473    0.000000
     7    1.217600    1.076885    0.000000
     8    0.800759   -2.335856    0.000000
     9   -1.152865    1.814745   -0.000000
    10    0.083966   -0.321668    0.000000
    11   -1.045218   -0.338505   -0.000000
    12    1.263497   -0.233119   -0.000000
    13    2.348379    2.509602    0.000000
    14    0.027886   -0.013253    0.000000
    15    0.052787    0.001826   -0.000000
    16    0.022394   -0.019619    0.000000
    17   -0.103153    0.175948    0.000000
    18   -0.036600    0.035976    0.000000
    19    0.262793    0.028998   -0.000000
    20   -1.399890   -0.193272    0.000000
    21   -2.160025   -2.379107   -0.000000
    22    0.381077    0.788663    0.000000
    23    0.229491   -0.598960    0.000000
    24   -0.342840   -1.014163   -0.000000
    25   -0.489320    1.596607    0.000000
    26    0.725137   -1.153061   -0.000000
    27   -0.059745    0.188495   -0.000000
    28    0.045435    0.752698   -0.000000
    29   -0.317038   -0.431272    0.000000
----------------------------------------
   Tot    0.013121    0.121025    0.000000
----------------------------------------
   Max    2.509602
   Res    0.751625    sqrt( Sum f_i^2 / 3N )
----------------------------------------
   Max    2.509602    constrained

Stress tensor Voigt[x,y,z,yz,xz,xy] (kbar):        1.17        0.30       -0.09        0.00       -0.00       -1.14
(Free)E + p*V (eV/cell)    -4147.9854
Target enthalpy (eV/cell)    -4146.3366

siesta: Eigenvalues (eV):
ik =     1
  -21.9576  -21.9576  -21.7577  -21.7577  -21.6089  -21.6089  -21.5626  -21.5626  -21.2505  -21.2505
  -20.9966  -20.9966  -20.8880  -20.8880  -19.8603  -19.8603  -19.3778  -19.3778  -19.3575  -19.3575
  -14.7330  -14.7330  -13.9311  -13.9311  -13.3293  -13.3293  -13.2366  -13.2366  -13.0913  -13.0913
  -12.9500  -12.9500  -12.8813  -12.8813  -12.5292  -12.5292  -12.4272  -12.4272  -12.0197  -12.0197
  -11.4822  -11.4822  -10.7940  -10.7940  -10.7929  -10.7929  -10.7783  -10.7783  -10.0579  -10.0579
   -9.5344   -9.5344   -9.3029   -9.3029   -8.8709   -8.8709   -8.7183   -8.7183   -8.6910   -8.6910
   -8.6606   -8.6606   -8.3826   -8.3826   -8.2134   -8.2134   -7.8439   -7.8439   -7.6465   -7.6465
   -7.5415   -7.5415   -7.3778   -7.3778   -7.2943   -7.2943   -6.9360   -6.9360   -6.7200   -6.7200
   -6.5356   -6.5356   -6.4538   -6.4538   -6.1324   -6.1324   -6.1085   -6.1085   -6.0673   -6.0673
   -5.6652   -5.6652   -5.6084   -5.6084   -5.4274   -5.4274   -4.3246   -4.3246   -3.2088   -3.2088
   -2.3309   -2.3309   -2.3205   -2.3205   -2.2839   -2.2839   -1.9497   -1.9497   -1.8748   -1.8748
   -1.8320   -1.8320   -1.7703   -1.7703   -1.6103   -1.6103   -1.5710   -1.5710   -0.9595   -0.9595
   -0.9410   -0.9410   -0.8352   -0.8352   -0.4373   -0.4373   -0.1280   -0.1280    0.0106    0.0106
    0.2362    0.2362    0.3861    0.3861    0.5289    0.5289    0.7139    0.7139    0.7467    0.7467
    0.9478    0.9478    1.1862    1.1862    1.3408    1.3408    1.3467    1.3467    1.4574    1.4574
    1.6918    1.6918    1.8250    1.8250    1.9157    1.9157    2.2754    2.2754    2.7089    2.7089
    2.7159    2.7159    2.8257    2.8257    2.9393    2.9393    3.1630    3.1630    3.3475    3.3475
    3.3530    3.3530    3.6924    3.6924    3.7871    3.7871    4.1262    4.1262    4.2127    4.2127
    4.4516    4.4516    4.4735    4.4735    4.5579    4.5579    4.5984    4.5984    4.7642    4.7642
    4.9181    4.9181    4.9514    4.9514    5.2059    5.2059    5.5369    5.5369    5.6422    5.6422
    5.7204    5.7204    5.8002    5.8002    5.8171    5.8171    5.8785    5.8785    5.9526    5.9526
    6.1899    6.1899    6.3331    6.3331    6.6499    6.6499    6.6541    6.6541    6.8642    6.8642
    7.0496    7.0496    7.1455    7.1455    7.3926    7.3926    7.4722    7.4722    7.7331    7.7331
    7.8224    7.8224    7.9702    7.9702    8.1207    8.1207    8.2290    8.2290    8.3143    8.3143
    8.4425    8.4425    8.6809    8.6809    8.8166    8.8166    8.9235    8.9235    9.1579    9.1579
    9.1629    9.1629    9.1854    9.1854    9.7666    9.7666    9.8052    9.8052    9.8407    9.8407
   10.0296   10.0296   10.1936   10.1936   10.4157   10.4157   10.6862   10.6862   10.7536   10.7536
   10.8975   10.8975   10.9384   10.9384   11.2162   11.2162   11.6621   11.6621   11.6711   11.6711
   11.7867   11.7867   11.8902   11.8902   12.0153   12.0153   12.3276   12.3276   12.7455   12.7455
   12.7569   12.7569   12.7685   12.7685   13.2318   13.2318   13.4764   13.4764   13.5951   13.5951
   13.8261   13.8261   14.1392   14.1392   14.2276   14.2276   14.5694   14.5694   14.7129   14.7129
   14.9038   14.9038   15.3737   15.3737   15.9752   15.9752   16.4237   16.4237   16.7393   16.7393
   16.8864   16.8864   17.3407   17.3407   17.6158   17.6158   18.1238   18.1238   18.3636   18.3636
   18.5828   18.5828   19.2446   19.2446   19.3238   19.3238   19.8432   19.8432   20.3064   20.3064
   20.9885   20.9885   21.2678   21.2678   21.9007   21.9007   22.2865   22.2865   22.2883   22.2883
   22.9012   22.9012   23.1849   23.1849   23.6423   23.6423   23.8014   23.8014   23.8806   23.8806
   24.8421   24.8421   25.2969   25.2969   26.0076   26.0076   26.6575   26.6575   27.3471   27.3471
   28.0659   28.0659   28.8869   28.8869   29.1757   29.1757   29.3279   29.3279   29.6427   29.6427
   29.9107   29.9107   30.0305   30.0305   30.2005   30.2005   30.6591   30.6591   30.7844   30.7844
   30.9806   30.9806   31.2327   31.2327   31.5356   31.5356   31.6642   31.6642   32.0462   32.0462
   32.5884   32.5884   33.7530   33.7530   34.5778   34.5778   34.6967   34.6967   34.9698   34.9698
   35.0283   35.0283   35.1302   35.1302   35.4819   35.4819   35.5725   35.5725   35.9616   35.9616
   36.6957   36.6957   36.7604   36.7604   37.0058   37.0058   37.1995   37.1995   37.4329   37.4329
   38.2020   38.2020   38.2861   38.2861   39.2878   39.2878   39.4007   39.4007   39.7281   39.7281
   40.3890   40.3890   40.5030   40.5030   40.5113   40.5113   40.6673   40.6673   40.8483   40.8483
   40.8847   40.8847   41.2166   41.2166   42.4851   42.4851   42.7688   42.7688   42.9064   42.9064
   43.2907   43.2907   43.8066   43.8066   43.8406   43.8406   43.9453   43.9453   44.3351   44.3351
   44.6188   44.6188   44.7261   44.7261   44.9838   44.9838   45.3454   45.3454   46.0892   46.0892
   46.1327   46.1327   46.9488   46.9488   47.2899   47.2899   48.8542   48.8542   49.0052   49.0052
   49.3789   49.3789   50.2774   50.2774   50.4857   50.4857   51.0062   51.0062   51.0271   51.0271
   51.6018   51.6018   51.6796   51.6796   52.6747   52.6747   52.6823   52.6823   54.2238   54.2238
   54.3135   54.3135   54.4510   54.4510   54.4748   54.4748   55.6343   55.6343   55.7044   55.7044
   55.8108   55.8108   55.8901   55.8901   56.4233   56.4233   57.9826   57.9826   58.2806   58.2806
   58.5534   58.5534   60.0640   60.0640   60.2074   60.2074   60.3931   60.3931   61.0504   61.0504
   61.8622   61.8622   61.8705   61.8705   62.0660   62.0660   64.6851   64.6851   66.5784   66.5784
   66.7188   66.7188   67.0980   67.0980   68.0893   68.0893   68.3983   68.3983   70.8165   70.8165
   73.6977   73.6977   80.1752   80.1752   91.0048   91.0048   92.0733   92.0733   93.1766   93.1766
   98.2223   98.2223   98.4951   98.4951   99.5402   99.5402  102.9764  102.9764  103.5508  103.5508
  109.9753  109.9753  111.5112  111.5112  123.9899  123.9899  126.2633  126.2633  129.0414  129.0414
  135.0685  135.0685  138.1174  138.1174
siesta: Fermi energy =      -3.767692 eV

siesta: Program's energy decomposition (eV):
siesta: Ebs     =     -1135.417079
siesta: Eions   =      3585.165840
siesta: Ena     =       381.828398
siesta: Ekin    =      2902.761977
siesta: Enl     =     -2787.346890
siesta: Eso     =        -0.004278
siesta: Edftu   =         0.000000
siesta: DEna    =        46.874019
siesta: DUscf   =        14.362396
siesta: DUext   =         0.000000
siesta: Exc     =     -1119.646400
siesta: eta*DQ  =         0.000000
siesta: Emadel  =         0.000000
siesta: Emeta   =         0.000000
siesta: Emolmec =         0.000000
siesta: Ekinion =         0.000000
siesta: Eharris =     -4146.336618
siesta: Etot    =     -4146.336618
siesta: FreeEng =     -4146.336618

siesta: Final energy (eV):
siesta:  Band Struct. =   -1135.417079
siesta:       Kinetic =    2902.761977
siesta:       Hartree =    8091.325897
siesta:       Edftu   =       0.000000
siesta:       Eso     =      -0.004278
siesta:    Ext. field =       0.000000
siesta:   Exch.-corr. =   -1119.646400
siesta:  Ion-electron =  -18767.411334
siesta:       Ion-ion =    4746.637520
siesta:       Ekinion =       0.000000
siesta:         Total =   -4146.336618
siesta:         Fermi =      -3.767692

siesta: Atomic forces (eV/Ang):
siesta:      1    0.012989   -0.069834   -0.000000
siesta:      2   -0.534834    0.301692   -0.000000
siesta:      3    0.439244   -0.021264    0.000000
siesta:      4   -0.069564    0.146059    0.000000
siesta:      5   -0.213180   -0.226692   -0.000000
siesta:      6    0.023959    0.052473    0.000000
siesta:      7    1.217600    1.076885    0.000000
siesta:      8    0.800759   -2.335856    0.000000
siesta:      9   -1.152865    1.814745   -0.000000
siesta:     10    0.083966   -0.321668    0.000000
siesta:     11   -1.045218   -0.338505   -0.000000
siesta:     12    1.263497   -0.233119   -0.000000
siesta:     13    2.348379    2.509602    0.000000
siesta:     14    0.027886   -0.013253    0.000000
siesta:     15    0.052787    0.001826   -0.000000
siesta:     16    0.022394   -0.019619    0.000000
siesta:     17   -0.103153    0.175948    0.000000
siesta:     18   -0.036600    0.035976    0.000000
siesta:     19    0.262793    0.028998   -0.000000
siesta:     20   -1.399890   -0.193272    0.000000
siesta:     21   -2.160025   -2.379107   -0.000000
siesta:     22    0.381077    0.788663    0.000000
siesta:     23    0.229491   -0.598960    0.000000
siesta:     24   -0.342840   -1.014163   -0.000000
siesta:     25   -0.489320    1.596607    0.000000
siesta:     26    0.725137   -1.153061   -0.000000
siesta:     27   -0.059745    0.188495   -0.000000
siesta:     28    0.045435    0.752698   -0.000000
siesta:     29   -0.317038   -0.431272    0.000000
siesta: ----------------------------------------
siesta:    Tot    0.013121    0.121025    0.000000

siesta: Stress tensor (static) (eV/Ang**3):
siesta:     0.000729   -0.000713   -0.000000
siesta:    -0.000713    0.000189   -0.000000
siesta:    -0.000000    0.000000   -0.000058

siesta: Cell volume =       5750.863206 Ang**3

siesta: Pressure (static):
siesta:                Solid            Molecule  Units
siesta:          -0.00000312         -0.00001428  Ry/Bohr**3
siesta:          -0.00028670         -0.00131071  eV/Ang**3
siesta:          -0.45935284         -2.10001052  kBar
(Free)E+ p_basis*V_orbitals  =       -4126.486200
(Free)Eharris+ p_basis*V_orbitals  =       -4126.486200
     spin moment: S , {S} =    0.00000   0.00000  -0.00000  -0.00000

siesta: Electric dipole (a.u.)  =    0.053860    1.499748    0.000000
siesta: Electric dipole (Debye) =    0.136899    3.811981    0.000000

cite: Please see "GC.bib" for an exhaustive BiBTeX file.
cite: Please clearly indicate Siesta version in published work: v4.1.5-1-g384057250
cite: This calculation has made use of the following articles
cite: which are encouraged to be cited in a published work.
        Primary SIESTA paper
          DOI: www.doi.org/10.1088/0953-8984/14/11/302
        Spin-orbit coupling (on-site approximation)
          DOI: www.doi.org/10.1088/0953-8984/19/19/489001


WARNING: alloc-realloc-dealloc name mismatch
         Name: atomlist isa
         Size:              -116. Bytes
         Node:     0
         Subsequent mismatches will not be reported
>> End of run:  16-OCT-2023  19:19:09
Job completed
