Siesta Version  : v4.1.5-1-g384057250
Architecture    : gcc
Compiler version: GNU Fortran (Ubuntu 11.3.0-1ubuntu1~22.04) 11.3.0
Compiler flags  : mpifort -O2 -fPIC -ftree-vectorize -fallow-argument-mismatch
PP flags        : -DFC_HAVE_ABORT -DMPI -DSIESTA__FLOOK -DSIESTA__METIS -DSIESTA__MUMPS -DCDF -DNCDF -DNCDF_4 -DNCDF_PARALLEL -DSIESTA__MRRR -DSIESTA__ELPA
Libraries       : libncdf.a libfdict.a  -lflookall -ldl -lnetcdff -lnetcdf -lhdf5_hl -lhdf5 -lhdf5_fortran -lz -lscalapack-openmpi -lopenblas -lmetis -lzmumps -lcmumps -ldmumps -lmumps_common -lpord -lsmumps -lesmumps -lscotch -lscotcherr -fopenmp -lelpa
PARALLEL version
NetCDF support
NetCDF-4 support
NetCDF-4 MPI-IO support
METIS ordering support
Lua support

* Running on 4 nodes in parallel
>> Start of run:  22-MAY-2023  16:32:45

                           ***********************       
                           *  WELCOME TO SIESTA  *       
                           ***********************       

reinit: Reading from standard input
reinit: Dumped input in INPUT_TMP.18640
************************** Dump of input data file ****************************
SystemLabel      GC
NumberOfAtoms    29
NumberOfSpecies  4
%block ChemicalSpeciesLabel
    1    8  O
    2    7  N
    3   14  Si
    4    1  H
%endblock ChemicalSpeciesLabel
# Single point calculation
MD.TypeOfRun                CG
MD.Steps                    0
SCF.MustConverge            F # In case it does not. There can be 2 very close atoms
AtomicCoordinatesFormat NotScaledCartesianAng
%block AtomicCoordinatesAndAtomicSpecies
0.854927710    3.902811360    0.000000000       1
-3.151486600   0.823854130    0.000000000       2
1.928518680    1.174000900    0.000000000       2
0.979899500    -1.830275890   0.000000000       2
-2.159258930   -2.028004800   0.000000000       2
3.785319770    -1.112700660   0.000000000       2
-1.345933810   0.976250250    0.000000000       3
-0.599439880   -1.096077170   0.000000000       3
0.453182890    2.350510230    0.000000000       3
2.133302030    -0.576510800   0.000000000       3
-3.516065660   -0.842056510   0.000000000       3
2.824527830    1.754723110    0.000000000       4
-4.877551690   -1.469214660   0.000000000       4
3.994952020    -2.143204000   0.000000000       4
4.620903610    -0.483666060   0.000000000       4
-2.279085180   -3.081514090   0.000000000       4
4.289388084    4.634154158    0.000000000       3
6.158347574    5.893797788    0.000000000       3
5.699415194    1.892415938    0.000000000       3
7.767007914    4.399007158    0.000000000       3
4.348918034    2.949201698    0.000000000       2
2.659388884    5.264214388    0.000000000       2
7.343304064    2.683506348    0.000000000       2
6.438711274    7.364020308    0.000000000       4
9.262419294    4.617859698    0.000000000       4
2.414929894    6.282680338    0.000000000       4
1.832647704    4.607366258    0.000000000       4
5.758690954    0.309973908    0.000000000       1
8.114959654    1.956538988    0.000000000       4
%endblock AtomicCoordinatesAndAtomicSpecies
%include ../../../Defaults.fdf
************************** End of input data file *****************************

reinit: -----------------------------------------------------------------------
reinit: System Name: 
reinit: -----------------------------------------------------------------------
reinit: System Label: GC
reinit: -----------------------------------------------------------------------

initatom: Reading input for the pseudopotentials and atomic orbitals ----------
Species number:   1 Atomic number:    8 Label: O
Species number:   2 Atomic number:    7 Label: N
Species number:   3 Atomic number:   14 Label: Si
Species number:   4 Atomic number:    1 Label: H

Ground state valence configuration:   2s02  2p04
Reading pseudopotential information in formatted form from O.psf

Pseudopotential generated from a relativistic atomic calculation

Valence configuration for pseudopotential generation:
2s( 2.00) rc: 0.45
2p( 4.00) rc: 0.92
3d( 0.00) rc: 2.24
4f( 0.00) rc: 0.25
Ground state valence configuration:   2s02  2p03
Reading pseudopotential information in formatted form from N.psf

Pseudopotential generated from a relativistic atomic calculation

Valence configuration for pseudopotential generation:
2s( 2.00) rc: 0.94
2p( 3.00) rc: 0.59
3d( 0.00) rc: 3.46
4f( 0.00) rc: 2.47
Ground state valence configuration:   3s02  3p02
Reading pseudopotential information in formatted form from Si.psf

Pseudopotential generated from a relativistic atomic calculation

Valence configuration for pseudopotential generation:
3s( 2.00) rc: 1.67
3p( 2.00) rc: 2.04
3d( 0.00) rc: 2.89
4f( 0.00) rc: 2.49
Ground state valence configuration:   1s01
Reading pseudopotential information in formatted form from H.psf

Pseudopotential generated from a relativistic atomic calculation

Valence configuration for pseudopotential generation:
1s( 1.00) rc: 0.01
2p( 0.00) rc: 0.60
3d( 0.00) rc: 1.99
4f( 0.00) rc: 2.49
For O, standard SIESTA heuristics set lmxkb to 3
 (one more than the basis l, including polarization orbitals).
Use PS.lmax or PS.KBprojectors blocks to override.
For N, standard SIESTA heuristics set lmxkb to 3
 (one more than the basis l, including polarization orbitals).
Use PS.lmax or PS.KBprojectors blocks to override.
For Si, standard SIESTA heuristics set lmxkb to 3
 (one more than the basis l, including polarization orbitals).
Use PS.lmax or PS.KBprojectors blocks to override.
For H, standard SIESTA heuristics set lmxkb to 2
 (one more than the basis l, including polarization orbitals).
Use PS.lmax or PS.KBprojectors blocks to override.

<basis_specs>
===============================================================================
O                    Z=   8    Mass=  16.000        Charge= 0.17977+309
Lmxo=1 Lmxkb= 3    BasisType=split      Semic=F
L=0  Nsemic=0  Cnfigmx=2
          i=1  nzeta=2  polorb=0  (2s)
            splnorm:   0.28000    
               vcte:    0.0000    
               rinn:    0.0000    
               qcoe:    0.0000    
               qyuk:    0.0000    
               qwid:   0.10000E-01
                rcs:    0.0000      0.0000    
            lambdas:    1.0000      1.0000    
L=1  Nsemic=0  Cnfigmx=2
          i=1  nzeta=2  polorb=1  (2p)
            splnorm:   0.28000    
               vcte:    0.0000    
               rinn:    0.0000    
               qcoe:    0.0000    
               qyuk:    0.0000    
               qwid:   0.10000E-01
                rcs:    0.0000      0.0000    
            lambdas:    1.0000      1.0000    
-------------------------------------------------------------------------------
L=0  Nkbl=1  erefs: 0.17977+309
L=1  Nkbl=1  erefs: 0.17977+309
L=2  Nkbl=1  erefs: 0.17977+309
L=3  Nkbl=1  erefs: 0.17977+309
===============================================================================
</basis_specs>

atom: Called for O                     (Z =   8)

read_vps: Pseudopotential generation method:
read_vps: ATM4.2.7  Troullier-Martins                       
Valence charge for ps generation:    6.00000

xc_check: Exchange-correlation functional:
xc_check: GGA Perdew, Burke & Ernzerhof 1996
V l=0 = -2*Zval/r beyond r=  1.1000
V l=1 = -2*Zval/r beyond r=  1.1000
V l=2 = -2*Zval/r beyond r=  2.2154
V l=3 = -2*Zval/r beyond r=  1.1000
All V_l potentials equal beyond r=  2.2154
This should be close to max(r_c) in ps generation
All pots = -2*Zval/r beyond r=  2.2154

VLOCAL1: 99.0% of the norm of Vloc inside      8.845 Ry
VLOCAL1: 99.9% of the norm of Vloc inside     20.157 Ry
atom: Maximum radius for 4*pi*r*r*local-pseudopot. charge    2.67231
atom: Maximum radius for r*vlocal+2*Zval:    2.32897
GHOST: No ghost state for L =  0
GHOST: No ghost state for L =  1
GHOST: No ghost state for L =  2
GHOST: No ghost state for L =  3

KBgen: Kleinman-Bylander projectors: 
   l= 0   rc=  2.243238   el= -1.759686   Ekb=**********   kbcos= -0.171774
   l= 1   rc=  2.328968   el= -0.663873   Ekb=-14.506792   kbcos= -0.519897
   l= 2   rc=  2.573941   el=  0.002031   Ekb= -1.137373   kbcos= -0.019581
   l= 3   rc=  2.606321   el=  0.003153   Ekb= -1.013546   kbcos= -0.003122

KBgen: Total number of Kleinman-Bylander projectors:   16
atom: -------------------------------------------------------------------------

atom: SANKEY-TYPE ORBITALS:
atom: Selected multiple-zeta basis: split     

SPLIT: Orbitals with angular momentum L= 0

SPLIT: Basis orbitals for state 2s

SPLIT: PAO cut-off radius determined from an
SPLIT: energy shift=  0.002000 Ry

   izeta = 1
                 lambda =    1.000000
                     rc =    4.243912
                 energy =   -1.758270
                kinetic =    3.286084
    potential(screened) =   -5.044353
       potential(ionic) =  -12.921184

   izeta = 2
                 rmatch =    2.187845
              splitnorm =    0.280000
                 energy =   -0.885018
                kinetic =    8.134434
    potential(screened) =   -9.019452
       potential(ionic) =  -17.710645

SPLIT: Orbitals with angular momentum L= 1

SPLIT: Basis orbitals for state 2p

SPLIT: PAO cut-off radius determined from an
SPLIT: energy shift=  0.002000 Ry

   izeta = 1
                 lambda =    1.000000
                     rc =    5.314825
                 energy =   -0.661986
                kinetic =    4.917472
    potential(screened) =   -5.579458
       potential(ionic) =  -13.236259

   izeta = 2
                 rmatch =    2.160663
              splitnorm =    0.280000
                 energy =   -0.068760
                kinetic =    9.183374
    potential(screened) =   -9.252135
       potential(ionic) =  -18.274251

POLgen: Perturbative polarization orbital with L=  2

POLgen: Polarization orbital for state 2p

   izeta = 1
                     rc =    5.314825
                 energy =    1.970580
                kinetic =    3.886128
    potential(screened) =   -1.915547
       potential(ionic) =   -7.749584
atom: Total number of Sankey-type orbitals: 13

atm_pop: Valence configuration (for local Pseudopot. screening):
 2s( 2.00)                                                            
 2p( 4.00)                                                            
Vna: chval, zval:    6.00000   6.00000

Vna:  Cut-off radius for the neutral-atom potential:   5.314825

atom: _________________________________________________________________________

<basis_specs>
===============================================================================
N                    Z=   7    Mass=  14.010        Charge= 0.17977+309
Lmxo=1 Lmxkb= 3    BasisType=split      Semic=F
L=0  Nsemic=0  Cnfigmx=2
          i=1  nzeta=2  polorb=0  (2s)
            splnorm:   0.28000    
               vcte:    0.0000    
               rinn:    0.0000    
               qcoe:    0.0000    
               qyuk:    0.0000    
               qwid:   0.10000E-01
                rcs:    0.0000      0.0000    
            lambdas:    1.0000      1.0000    
L=1  Nsemic=0  Cnfigmx=2
          i=1  nzeta=2  polorb=1  (2p)
            splnorm:   0.28000    
               vcte:    0.0000    
               rinn:    0.0000    
               qcoe:    0.0000    
               qyuk:    0.0000    
               qwid:   0.10000E-01
                rcs:    0.0000      0.0000    
            lambdas:    1.0000      1.0000    
-------------------------------------------------------------------------------
L=0  Nkbl=1  erefs: 0.17977+309
L=1  Nkbl=1  erefs: 0.17977+309
L=2  Nkbl=1  erefs: 0.17977+309
L=3  Nkbl=1  erefs: 0.17977+309
===============================================================================
</basis_specs>

atom: Called for N                     (Z =   7)

read_vps: Pseudopotential generation method:
read_vps: ATM4.2.7  Troullier-Martins                       
Valence charge for ps generation:    5.00000

xc_check: Exchange-correlation functional:
xc_check: GGA Perdew, Burke & Ernzerhof 1996
V l=0 = -2*Zval/r beyond r=  1.2889
V l=1 = -2*Zval/r beyond r=  1.2889
V l=2 = -2*Zval/r beyond r=  3.4178
V l=3 = -2*Zval/r beyond r=  2.4084
All V_l potentials equal beyond r=  3.3753
This should be close to max(r_c) in ps generation
All pots = -2*Zval/r beyond r=  3.4178

VLOCAL1: 99.0% of the norm of Vloc inside      3.810 Ry
VLOCAL1: 99.9% of the norm of Vloc inside      8.683 Ry
atom: Maximum radius for 4*pi*r*r*local-pseudopot. charge    4.02088
atom: Maximum radius for r*vlocal+2*Zval:    3.54838
GHOST: No ghost state for L =  0
GHOST: No ghost state for L =  1
GHOST: No ghost state for L =  2
GHOST: No ghost state for L =  3

KBgen: Kleinman-Bylander projectors: 
   l= 0   rc=  3.417763   el= -1.365098   Ekb= -4.433130   kbcos= -0.707855
   l= 1   rc=  3.375302   el= -0.521201   Ekb=-13.264039   kbcos= -0.535594
   l= 2   rc=  3.872880   el=  0.001991   Ekb= -0.641094   kbcos= -0.062456
   l= 3   rc=  3.970931   el=  0.003093   Ekb= -0.474517   kbcos= -0.018236

KBgen: Total number of Kleinman-Bylander projectors:   16
atom: -------------------------------------------------------------------------

atom: SANKEY-TYPE ORBITALS:
atom: Selected multiple-zeta basis: split     

SPLIT: Orbitals with angular momentum L= 0

SPLIT: Basis orbitals for state 2s

SPLIT: PAO cut-off radius determined from an
SPLIT: energy shift=  0.002000 Ry

   izeta = 1
                 lambda =    1.000000
                     rc =    4.730425
                 energy =   -1.363399
                kinetic =    1.245246
    potential(screened) =   -2.608645
       potential(ionic) =   -8.121105

   izeta = 2
                 rmatch =    2.531849
              splitnorm =    0.280000
                 energy =   -0.959908
                kinetic =    2.409435
    potential(screened) =   -3.369343
       potential(ionic) =   -9.427975

SPLIT: Orbitals with angular momentum L= 1

SPLIT: Basis orbitals for state 2p

SPLIT: PAO cut-off radius determined from an
SPLIT: energy shift=  0.002000 Ry

   izeta = 1
                 lambda =    1.000000
                     rc =    5.924108
                 energy =   -0.519262
                kinetic =    3.672940
    potential(screened) =   -4.192202
       potential(ionic) =   -9.518354

   izeta = 2
                 rmatch =    2.531849
              splitnorm =    0.280000
                 energy =   -0.104258
                kinetic =    6.807538
    potential(screened) =   -6.911796
       potential(ionic) =  -13.149920

POLgen: Perturbative polarization orbital with L=  2

POLgen: Polarization orbital for state 2p

   izeta = 1
                     rc =    5.924108
                 energy =    1.427508
                kinetic =    2.872379
    potential(screened) =   -1.444871
       potential(ionic) =   -5.563644
atom: Total number of Sankey-type orbitals: 13

atm_pop: Valence configuration (for local Pseudopot. screening):
 2s( 2.00)                                                            
 2p( 3.00)                                                            
Vna: chval, zval:    5.00000   5.00000

Vna:  Cut-off radius for the neutral-atom potential:   5.924108

atom: _________________________________________________________________________

<basis_specs>
===============================================================================
Si                   Z=  14    Mass=  28.090        Charge= 0.17977+309
Lmxo=1 Lmxkb= 3    BasisType=split      Semic=F
L=0  Nsemic=0  Cnfigmx=3
          i=1  nzeta=2  polorb=0  (3s)
            splnorm:   0.28000    
               vcte:    0.0000    
               rinn:    0.0000    
               qcoe:    0.0000    
               qyuk:    0.0000    
               qwid:   0.10000E-01
                rcs:    0.0000      0.0000    
            lambdas:    1.0000      1.0000    
L=1  Nsemic=0  Cnfigmx=3
          i=1  nzeta=2  polorb=1  (3p)
            splnorm:   0.28000    
               vcte:    0.0000    
               rinn:    0.0000    
               qcoe:    0.0000    
               qyuk:    0.0000    
               qwid:   0.10000E-01
                rcs:    0.0000      0.0000    
            lambdas:    1.0000      1.0000    
-------------------------------------------------------------------------------
L=0  Nkbl=1  erefs: 0.17977+309
L=1  Nkbl=1  erefs: 0.17977+309
L=2  Nkbl=1  erefs: 0.17977+309
L=3  Nkbl=1  erefs: 0.17977+309
===============================================================================
</basis_specs>

atom: Called for Si                    (Z =  14)

read_vps: Pseudopotential generation method:
read_vps: ATM4.2.7  Troullier-Martins                       
Valence charge for ps generation:    4.00000

xc_check: Exchange-correlation functional:
xc_check: GGA Perdew, Burke & Ernzerhof 1996
V l=0 = -2*Zval/r beyond r=  2.7826
V l=1 = -2*Zval/r beyond r=  2.7826
V l=2 = -2*Zval/r beyond r=  2.9253
V l=3 = -2*Zval/r beyond r=  2.7826
All V_l potentials equal beyond r=  2.8530
This should be close to max(r_c) in ps generation
All pots = -2*Zval/r beyond r=  2.9253

VLOCAL1: 99.0% of the norm of Vloc inside      5.333 Ry
VLOCAL1: 99.9% of the norm of Vloc inside     12.154 Ry
atom: Maximum radius for 4*pi*r*r*local-pseudopot. charge    3.39869
atom: Maximum radius for r*vlocal+2*Zval:    2.96205
GHOST: No ghost state for L =  0
GHOST: No ghost state for L =  1
GHOST: No ghost state for L =  2
GHOST: No ghost state for L =  3

KBgen: Kleinman-Bylander projectors: 
   l= 0   rc=  3.075247   el= -0.794092   Ekb=  5.879390   kbcos=  0.167461
   l= 1   rc=  3.153101   el= -0.300068   Ekb=  2.642817   kbcos=  0.058301
   l= 2   rc=  3.273594   el=  0.001958   Ekb= -1.185135   kbcos= -0.104411
   l= 3   rc=  3.232927   el=  0.003046   Ekb= -0.497174   kbcos= -0.015889

KBgen: Total number of Kleinman-Bylander projectors:   16
atom: -------------------------------------------------------------------------

atom: SANKEY-TYPE ORBITALS:
atom: Selected multiple-zeta basis: split     

SPLIT: Orbitals with angular momentum L= 0

SPLIT: Basis orbitals for state 3s

SPLIT: PAO cut-off radius determined from an
SPLIT: energy shift=  0.002000 Ry

   izeta = 1
                 lambda =    1.000000
                     rc =    6.429618
                 energy =   -0.792283
                kinetic =    0.525293
    potential(screened) =   -1.317576
       potential(ionic) =   -3.744923

   izeta = 2
                 rmatch =    3.998416
              splitnorm =    0.280000
                 energy =   -0.583081
                kinetic =    1.069570
    potential(screened) =   -1.652651
       potential(ionic) =   -4.235185

SPLIT: Orbitals with angular momentum L= 1

SPLIT: Basis orbitals for state 3p

SPLIT: PAO cut-off radius determined from an
SPLIT: energy shift=  0.002000 Ry

   izeta = 1
                 lambda =    1.000000
                     rc =    8.464845
                 energy =   -0.298236
                kinetic =    0.785360
    potential(screened) =   -1.083596
       potential(ionic) =   -3.273779

   izeta = 2
                 rmatch =    4.587816
              splitnorm =    0.280000
                 energy =   -0.131871
                kinetic =    1.403687
    potential(screened) =   -1.535557
       potential(ionic) =   -4.015310

POLgen: Perturbative polarization orbital with L=  2

POLgen: Polarization orbital for state 3p

   izeta = 1
                     rc =    8.464845
                 energy =    0.321949
                kinetic =    1.055677
    potential(screened) =   -0.733728
       potential(ionic) =   -2.672950
atom: Total number of Sankey-type orbitals: 13

atm_pop: Valence configuration (for local Pseudopot. screening):
 3s( 2.00)                                                            
 3p( 2.00)                                                            
Vna: chval, zval:    4.00000   4.00000

Vna:  Cut-off radius for the neutral-atom potential:   8.464845

atom: _________________________________________________________________________

<basis_specs>
===============================================================================
H                    Z=   1    Mass=  1.0100        Charge= 0.17977+309
Lmxo=0 Lmxkb= 2    BasisType=split      Semic=F
L=0  Nsemic=0  Cnfigmx=1
          i=1  nzeta=2  polorb=1  (1s)
            splnorm:   0.62000    
               vcte:    0.0000    
               rinn:    0.0000    
               qcoe:    0.0000    
               qyuk:    0.0000    
               qwid:   0.10000E-01
                rcs:    0.0000      0.0000    
            lambdas:    1.0000      1.0000    
-------------------------------------------------------------------------------
L=0  Nkbl=1  erefs: 0.17977+309
L=1  Nkbl=1  erefs: 0.17977+309
L=2  Nkbl=1  erefs: 0.17977+309
===============================================================================
</basis_specs>

atom: Called for H                     (Z =   1)

read_vps: Pseudopotential generation method:
read_vps: ATM4.2.7  Troullier-Martins                       
Valence charge for ps generation:    1.00000

xc_check: Exchange-correlation functional:
xc_check: GGA Perdew, Burke & Ernzerhof 1996
V l=0 = -2*Zval/r beyond r=  0.0098
V l=1 = -2*Zval/r beyond r=  0.5817
V l=2 = -2*Zval/r beyond r=  1.9372
All V_l potentials equal beyond r=  1.9372
This should be close to max(r_c) in ps generation
All pots = -2*Zval/r beyond r=  1.9372

VLOCAL1: 99.0% of the norm of Vloc inside     11.567 Ry
VLOCAL1: 99.9% of the norm of Vloc inside     26.362 Ry
atom: Maximum radius for 4*pi*r*r*local-pseudopot. charge    2.25106
atom: Maximum radius for r*vlocal+2*Zval:    1.91306
GHOST: No ghost state for L =  0
GHOST: No ghost state for L =  1
GHOST: No ghost state for L =  2

KBgen: Kleinman-Bylander projectors: 
   l= 0   rc=  2.036604   el= -0.477180   Ekb= -6.081590   kbcos= -0.277285
   l= 1   rc=  2.195416   el=  0.001076   Ekb= -0.926943   kbcos= -0.034643
   l= 2   rc=  2.251056   el=  0.002010   Ekb= -0.130941   kbcos= -0.009788

KBgen: Total number of Kleinman-Bylander projectors:    9
atom: -------------------------------------------------------------------------

atom: SANKEY-TYPE ORBITALS:
atom: Selected multiple-zeta basis: split     

SPLIT: Orbitals with angular momentum L= 0

SPLIT: Basis orbitals for state 1s

SPLIT: PAO cut-off radius determined from an
SPLIT: energy shift=  0.002000 Ry

   izeta = 1
                 lambda =    1.000000
                     rc =    6.518340
                 energy =   -0.475305
                kinetic =    0.912139
    potential(screened) =   -1.387444
       potential(ionic) =   -1.907295

   izeta = 2
                 rmatch =    2.141150
              splitnorm =    0.620000
                 energy =    0.566467
                kinetic =    3.772856
    potential(screened) =   -3.206389
       potential(ionic) =   -3.759093

POLgen: Perturbative polarization orbital with L=  1

POLgen: Polarization orbital for state 1s

   izeta = 1
                     rc =    6.518340
                 energy =    0.533861
                kinetic =    1.121086
    potential(screened) =   -0.587225
       potential(ionic) =   -1.053027
atom: Total number of Sankey-type orbitals:  5

atm_pop: Valence configuration (for local Pseudopot. screening):
 1s( 1.00)                                                            
Vna: chval, zval:    1.00000   1.00000

Vna:  Cut-off radius for the neutral-atom potential:   6.518340

atom: _________________________________________________________________________

prinput: Basis input ----------------------------------------------------------

PAO.BasisType split     

%block ChemicalSpeciesLabel
    1    8 O                       # Species index, atomic number, species label
    2    7 N                       # Species index, atomic number, species label
    3   14 Si                      # Species index, atomic number, species label
    4    1 H                       # Species index, atomic number, species label
%endblock ChemicalSpeciesLabel

%block PAO.Basis                 # Define Basis set
O                     2                    # Species label, number of l-shells
 n=2   0   2                         # n, l, Nzeta 
   4.244      2.188   
   1.000      1.000   
 n=2   1   2 P   1                   # n, l, Nzeta, Polarization, NzetaPol
   5.315      2.161   
   1.000      1.000   
N                     2                    # Species label, number of l-shells
 n=2   0   2                         # n, l, Nzeta 
   4.730      2.532   
   1.000      1.000   
 n=2   1   2 P   1                   # n, l, Nzeta, Polarization, NzetaPol
   5.924      2.532   
   1.000      1.000   
Si                    2                    # Species label, number of l-shells
 n=3   0   2                         # n, l, Nzeta 
   6.430      3.998   
   1.000      1.000   
 n=3   1   2 P   1                   # n, l, Nzeta, Polarization, NzetaPol
   8.465      4.588   
   1.000      1.000   
H                     1                    # Species label, number of l-shells
 n=1   0   2 P   1                   # n, l, Nzeta, Polarization, NzetaPol
   6.518      2.141   
   1.000      1.000   
%endblock PAO.Basis

prinput: ----------------------------------------------------------------------

Dumping basis to NetCDF file O.ion.nc
Dumping basis to NetCDF file N.ion.nc
Dumping basis to NetCDF file Si.ion.nc
Dumping basis to NetCDF file H.ion.nc
coor:   Atomic-coordinates input format  =     Cartesian coordinates
coor:                                          (in Angstroms)

siesta: Atomic coordinates (Bohr) and species
siesta:      1.61558   7.37525   0.00000  1        1
siesta:     -5.95545   1.55686   0.00000  2        2
siesta:      3.64437   2.21854   0.00000  2        3
siesta:      1.85174  -3.45872   0.00000  2        4
siesta:     -4.08041  -3.83238   0.00000  2        5
siesta:      7.15322  -2.10270   0.00000  2        6
siesta:     -2.54345   1.84485   0.00000  3        7
siesta:     -1.13278  -2.07129   0.00000  3        8
siesta:      0.85639   4.44182   0.00000  3        9
siesta:      4.03136  -1.08945   0.00000  3       10
siesta:     -6.64440  -1.59126   0.00000  3       11
siesta:      5.33759   3.31595   0.00000  4       12
siesta:     -9.21724  -2.77641   0.00000  4       13
siesta:      7.54937  -4.05007   0.00000  4       14
siesta:      8.73225  -0.91400   0.00000  4       15
siesta:     -4.30685  -5.82322   0.00000  4       16
siesta:      8.10577   8.75729   0.00000  3       17
siesta:     11.63759  11.13767   0.00000  3       18
siesta:     10.77034   3.57615   0.00000  3       19
siesta:     14.67752   8.31292   0.00000  3       20
siesta:      8.21827   5.57319   0.00000  2       21
siesta:      5.02552   9.94793   0.00000  2       22
siesta:     13.87684   5.07109   0.00000  2       23
siesta:     12.16741  13.91599   0.00000  4       24
siesta:     17.50344   8.72649   0.00000  4       25
siesta:      4.56356  11.87255   0.00000  4       26
siesta:      3.46320   8.70666   0.00000  4       27
siesta:     10.88235   0.58577   0.00000  1       28
siesta:     15.33506   3.69732   0.00000  4       29

siesta: Automatic unit cell vectors (Ang):
siesta:   23.142551    0.000000    0.000000
siesta:    0.000000   19.078671    0.000000
siesta:    0.000000    0.000000    9.854683

siesta: System type = molecule  

initatomlists: Number of atoms, orbitals, and projectors:     29   297   394

siesta: ******************** Simulation parameters ****************************
siesta:
siesta: The following are some of the parameters of the simulation.
siesta: A complete list of the parameters used, including default values,
siesta: can be found in file out.fdf
siesta:
redata: Spin configuration                          = spin-orbit
redata: Number of spin components                   = 8
redata: Time-Reversal Symmetry                      = F
redata: Spin spiral                                 = F
############################################################
This spin-orbit implementation uses a local approximation.
From 4.2 and onwards the full non-local approximation is implemented
You are strongly advised to use >=4.2 versions!
############################################################
redata: Long output                                 =   F
redata: Number of Atomic Species                    =        4
redata: Charge density info will appear in .RHO file
redata: Write Mulliken Pop.                         = Atomic and Orbital charges
redata: Matel table size (NRTAB)                    =     1024
redata: Mesh Cutoff                                 =   340.0000 Ry
redata: Net charge of the system                    =     0.0000 |e|
redata: Min. number of SCF Iter                     =        1
redata: Max. number of SCF Iter                     =      200
redata: SCF mix quantity                            = Hamiltonian
redata: Mix DM or H after convergence               =   F
redata: Recompute H after scf cycle                 =   F
redata: Mix DM in first SCF step                    =   T
redata: Write Pulay info on disk                    =   F
redata: New DM Occupancy tolerance                  = 0.000000000001
redata: No kicks to SCF
redata: DM Mixing Weight for Kicks                  =     0.5000
redata: Require Harris convergence for SCF          =   F
redata: Harris energy tolerance for SCF             =     0.000100 eV
redata: Require DM convergence for SCF              =   T
redata: DM tolerance for SCF                        =     0.000008
redata: Require EDM convergence for SCF             =   F
redata: EDM tolerance for SCF                       =     0.001000 eV
redata: Require H convergence for SCF               =   T
redata: Hamiltonian tolerance for SCF               =     0.000001 eV
redata: Require (free) Energy convergence for SCF   =   F
redata: (free) Energy tolerance for SCF             =     0.000100 eV
redata: Using Saved Data (generic)                  =   F
redata: Use continuation files for DM               =   F
redata: Neglect nonoverlap interactions             =   F
redata: Method of Calculation                       = Diagonalization
redata: Electronic Temperature                      =   299.9978 K
redata: Fix the spin of the system                  =   F
redata: Dynamics option                             = Single-point calculation
mix.SCF: Pulay mixing                            = Pulay
mix.SCF:    Variant                              = stable
mix.SCF:    History steps                        = 6
mix.SCF:    Linear mixing weight                 =     0.250000
mix.SCF:    Mixing weight                        =     0.250000
mix.SCF:    SVD condition                        = 0.1000E-07
mix.SCF:    Restart steps                        = 24
mix.SCF:    Restart save steps                   = 3
mix.SCF: Spin-component mixing                   all
redata: Save all siesta data in one NC              =   F
redata: ***********************************************************************

%block SCF.Mixers
  Pulay
%endblock SCF.Mixers

%block SCF.Mixer.Pulay
  # Mixing method
  method pulay
  variant stable

  # Mixing options
  weight 0.2500
  weight.linear 0.2500
  history 6
  restart 24
  restart.save 3
%endblock SCF.Mixer.Pulay

DM_history_depth set to one: no extrapolation allowed by default for geometry relaxation
Size of DM history Fstack: 1
Total number of electrons:    98.000000
Total ionic charge:    98.000000

* ProcessorY, Blocksize:    2  24


* Orbital distribution balance (max,min):    81    72


Time-reversal symmetry not used.

siesta: k-grid: Number of k-points =     1
siesta: k-grid: Cutoff (effective) =     4.927 Ang
siesta: k-grid: Supercell and displacements
siesta: k-grid:    1   0   0      0.000
siesta: k-grid:    0   1   0      0.000
siesta: k-grid:    0   0   1      0.000

diag: Algorithm                                     = ELPA-1stage
diag: Parallel over k                               =   F
diag: Use parallel 2D distribution                  =   T
diag: Parallel block-size                           = 24
diag: Parallel distribution                         =     2 x     2
diag: Used triangular part                          = Lower
diag: Absolute tolerance                            =  0.100E-15
diag: Orthogonalization factor                      =  0.100E-05
diag: Memory factor                                 =  1.0000


ts: **************************************************************
ts: Save H and S matrices                           =    F
ts: Save DM and EDM matrices                        =    F
ts: Only save the overlap matrix S                  =    F
ts: **************************************************************

************************ Begin: TS CHECKS AND WARNINGS ************************
************************ End: TS CHECKS AND WARNINGS **************************


                     ====================================
                        Single-point calculation
                     ====================================

outcoor: Atomic coordinates (Ang):                          
    0.85492771    3.90281136    0.00000000   1       1  O
   -3.15148660    0.82385413    0.00000000   2       2  N
    1.92851868    1.17400090    0.00000000   2       3  N
    0.97989950   -1.83027589    0.00000000   2       4  N
   -2.15925893   -2.02800480    0.00000000   2       5  N
    3.78531977   -1.11270066    0.00000000   2       6  N
   -1.34593381    0.97625025    0.00000000   3       7  Si
   -0.59943988   -1.09607717    0.00000000   3       8  Si
    0.45318289    2.35051023    0.00000000   3       9  Si
    2.13330203   -0.57651080    0.00000000   3      10  Si
   -3.51606566   -0.84205651    0.00000000   3      11  Si
    2.82452783    1.75472311    0.00000000   4      12  H
   -4.87755169   -1.46921466    0.00000000   4      13  H
    3.99495202   -2.14320400    0.00000000   4      14  H
    4.62090361   -0.48366606    0.00000000   4      15  H
   -2.27908518   -3.08151409    0.00000000   4      16  H
    4.28938808    4.63415416    0.00000000   3      17  Si
    6.15834757    5.89379779    0.00000000   3      18  Si
    5.69941519    1.89241594    0.00000000   3      19  Si
    7.76700791    4.39900716    0.00000000   3      20  Si
    4.34891803    2.94920170    0.00000000   2      21  N
    2.65938888    5.26421439    0.00000000   2      22  N
    7.34330406    2.68350635    0.00000000   2      23  N
    6.43871127    7.36402031    0.00000000   4      24  H
    9.26241929    4.61785970    0.00000000   4      25  H
    2.41492989    6.28268034    0.00000000   4      26  H
    1.83264770    4.60736626    0.00000000   4      27  H
    5.75869095    0.30997391    0.00000000   1      28  O
    8.11495965    1.95653899    0.00000000   4      29  H

outcell: Unit cell vectors (Ang):
       23.142551    0.000000    0.000000
        0.000000   19.078671    0.000000
        0.000000    0.000000    9.854683

outcell: Cell vector modules (Ang)   :   23.142551   19.078671    9.854683
outcell: Cell angles (23,13,12) (deg):     90.0000     90.0000     90.0000
outcell: Cell volume (Ang**3)        :   4351.1295
<dSpData1D:S at geom step 0
  <sparsity:sparsity for geom step 0
    nrows_g=297 nrows=81 sparsity=.2394 nnzs=21121, refcount: 8>
  <dData1D:(new from dSpData1D) n=21121, refcount: 1>
refcount: 1>
new_DM -- step:     1
Initializing Density Matrix...
DM filled with atomic data:
<dSpData2D:DM initialized from atoms
  <sparsity:sparsity for geom step 0
    nrows_g=297 nrows=81 sparsity=.2394 nnzs=21121, refcount: 9>
  <dData2D:DM n=21121 m=8, refcount: 1>
refcount: 1>
     spin moment: S , {S} =   56.00000   0.00000   0.00000  56.00000
No. of atoms with KB's overlaping orbs in proc 0. Max # of overlaps:      29     215

Initializing spin-orbit part of the Hamiltonian
  Adding spin-orbit effects for O 
  Adding spin-orbit effects for N 
  Adding spin-orbit effects for Si
  Adding spin-orbit effects for H 


New grid distribution:   1
           1       1:  135    1:   54    1:   30
           2       1:  135    1:   54   31:   60
           3       1:  135   55:  108    1:   30
           4       1:  135   55:  108   31:   60

InitMesh: MESH =   270 x   216 x   120 =     6998400
InitMesh: (bp) =   135 x   108 x    60 =      874800
InitMesh: Mesh cutoff (required, used) =   340.000   354.253 Ry
ExtMesh (bp) on 0 =   243 x   158 x   142 =     5451948
New grid distribution:   2
           1      31:  135    1:   24    1:   60
           2       1:   30    1:   22    1:   60
           3      31:  135   25:  108    1:   60
           4       1:   30   23:  108    1:   60
New grid distribution:   3
           1      44:  135    1:   33    1:   60
           2       1:   43    1:   37    1:   60
           3      44:  135   34:  108    1:   60
           4       1:   43   38:  108    1:   60
Setting up quadratic distribution...
ExtMesh (bp) on 0 =   213 x   128 x   172 =     4689408
PhiOnMesh: Number of (b)points on node 0 =               151200
PhiOnMesh: nlist on node 0 =              2614272

stepf: Fermi-Dirac step function

siesta: Program's energy decomposition (eV):
siesta: Ebs     =      -596.772725
siesta: Eions   =      3585.165840
siesta: Ena     =       385.664332
siesta: Ekin    =      3384.286142
siesta: Enl     =     -3316.142023
siesta: Eso     =        -0.003437
siesta: Edftu   =         0.000000
siesta: DEna    =       157.284442
siesta: DUscf   =        80.351969
siesta: DUext   =         0.000000
siesta: Exc     =     -1208.137300
siesta: eta*DQ  =         0.000000
siesta: Emadel  =         0.000000
siesta: Emeta   =         0.000000
siesta: Emolmec =         0.000000
siesta: Ekinion =         0.000000
siesta: Eharris =     -4018.013835
siesta: Etot    =     -4101.861714
siesta: FreeEng =     -4101.863284

        iscf     Eharris(eV)        E_KS(eV)     FreeEng(eV)     dDmax    Ef(eV) dHmax(eV)
   scf:    1    -4018.013835    -4101.861714    -4101.863284  0.954373 -4.894191 21.055550
     spin moment: S , {S} =    2.00804   0.00000   0.00000   2.00804
timer: Routine,Calls,Time,% = IterSCF        1      11.730  15.60
   scf:    2    -4151.006481    -4137.883400    -4137.889077  0.475770 -4.181661 10.996261
     spin moment: S , {S} =    1.95836   0.00000   0.00000   1.95836
   scf:    3    -4114.280197    -4135.667777    -4135.701876  0.438932 -4.250418 10.692701
     spin moment: S , {S} =    2.00566  -0.00000  -0.00000   2.00566
   scf:    4    -4149.844716    -4145.372642    -4145.372648  0.244429 -3.898837  5.765236
     spin moment: S , {S} =    0.00012  -0.00000  -0.00000   0.00012
   scf:    5    -4146.607359    -4146.098233    -4146.098233  0.038274 -3.717153  4.531458
     spin moment: S , {S} =    0.00006  -0.00000  -0.00000   0.00006
   scf:    6    -4146.961908    -4146.535484    -4146.535484  0.028980 -3.627746  2.182888
     spin moment: S , {S} =    0.00003  -0.00000   0.00000   0.00003
   scf:    7    -4146.900713    -4146.722831    -4146.722831  0.021205 -3.669439  0.797685
     spin moment: S , {S} =    0.00001   0.00000  -0.00000   0.00001
   scf:    8    -4146.848048    -4146.783517    -4146.783517  0.012930 -3.779544  0.384032
     spin moment: S , {S} =    0.00000   0.00000   0.00000   0.00000
   scf:    9    -4146.817976    -4146.800369    -4146.800369  0.006873 -3.775377  0.253444
     spin moment: S , {S} =    0.00000  -0.00000  -0.00000   0.00000
   scf:   10    -4146.838434    -4146.817540    -4146.817540  0.012056 -3.800874  0.131875
     spin moment: S , {S} =    0.00000  -0.00000  -0.00000  -0.00000
   scf:   11    -4146.824431    -4146.820715    -4146.820715  0.005943 -3.777379  0.062744
     spin moment: S , {S} =    0.00000  -0.00000   0.00000   0.00000
   scf:   12    -4146.822731    -4146.821671    -4146.821671  0.003135 -3.773831  0.039095
     spin moment: S , {S} =    0.00000  -0.00000  -0.00000   0.00000
   scf:   13    -4146.823083    -4146.822320    -4146.822320  0.003052 -3.770184  0.032514
     spin moment: S , {S} =    0.00000  -0.00000   0.00000   0.00000
   scf:   14    -4146.823516    -4146.822820    -4146.822820  0.004124 -3.767593  0.016834
     spin moment: S , {S} =    0.00000  -0.00000  -0.00000   0.00000
   scf:   15    -4146.823122    -4146.822943    -4146.822943  0.002348 -3.766647  0.009647
     spin moment: S , {S} =    0.00000  -0.00000  -0.00000   0.00000
   scf:   16    -4146.823008    -4146.822971    -4146.822971  0.001059 -3.767250  0.006361
     spin moment: S , {S} =    0.00000  -0.00000  -0.00000   0.00000
   scf:   17    -4146.822997    -4146.822982    -4146.822982  0.000686 -3.767575  0.003456
     spin moment: S , {S} =    0.00000  -0.00000  -0.00000  -0.00000
   scf:   18    -4146.822994    -4146.822987    -4146.822987  0.000434 -3.767690  0.001736
     spin moment: S , {S} =    0.00000  -0.00000  -0.00000  -0.00000
   scf:   19    -4146.822992    -4146.822989    -4146.822989  0.000253 -3.767650  0.000855
     spin moment: S , {S} =    0.00000  -0.00000  -0.00000  -0.00000
   scf:   20    -4146.822991    -4146.822990    -4146.822990  0.000145 -3.767547  0.000434
     spin moment: S , {S} =    0.00000  -0.00000  -0.00000  -0.00000
   scf:   21    -4146.822990    -4146.822990    -4146.822990  0.000114 -3.767475  0.000209
     spin moment: S , {S} =    0.00000  -0.00000  -0.00000  -0.00000
   scf:   22    -4146.822990    -4146.822990    -4146.822990  0.000012 -3.767451  0.000113
     spin moment: S , {S} =    0.00000  -0.00000  -0.00000  -0.00000
   scf:   23    -4146.822990    -4146.822990    -4146.822990  0.000006 -3.767451  0.000069
     spin moment: S , {S} =    0.00000  -0.00000  -0.00000  -0.00000
   scf:   24    -4146.822990    -4146.822990    -4146.822990  0.000005 -3.767453  0.000035
     spin moment: S , {S} =    0.00000  -0.00000  -0.00000  -0.00000
mix: Pulay -- resetting history
   scf:   25    -4146.822990    -4146.822990    -4146.822990  0.000003 -3.767456  0.000016
     spin moment: S , {S} =    0.00000  -0.00000  -0.00000  -0.00000
   scf:   26    -4146.822990    -4146.822990    -4146.822990  0.000001 -3.767456  0.000010
     spin moment: S , {S} =    0.00000  -0.00000  -0.00000  -0.00000
   scf:   27    -4146.822990    -4146.822990    -4146.822990  0.000001 -3.767455  0.000005
     spin moment: S , {S} =    0.00000  -0.00000  -0.00000  -0.00000
   scf:   28    -4146.822990    -4146.822990    -4146.822990  0.000000 -3.767454  0.000002
     spin moment: S , {S} =    0.00000  -0.00000  -0.00000  -0.00000
   scf:   29    -4146.822990    -4146.822990    -4146.822990  0.000000 -3.767454  0.000001
     spin moment: S , {S} =    0.00000  -0.00000  -0.00000  -0.00000
   scf:   30    -4146.822990    -4146.822990    -4146.822990  0.000000 -3.767454  0.000001
     spin moment: S , {S} =    0.00000  -0.00000  -0.00000   0.00000

SCF Convergence by DM+H criterion
max |DM_out - DM_in|         :     0.0000001226
max |H_out - H_in|      (eV) :     0.0000005423
SCF cycle converged after 30 iterations

Using DM_out to compute the final energy and forces
No. of atoms with KB's overlaping orbs in proc 0. Max # of overlaps:      29     215

siesta: E_KS(eV) =            -4146.8230

siesta: E_KS - E_eggbox =     -4146.8230
     spin moment: S , {S} =    0.00000  -0.00000  -0.00000   0.00000

siesta: Atomic forces (eV/Ang):
     1   -2.985501   -4.532201    0.000000
     2   -0.053140   -0.012772   -0.000000
     3   -1.174762    0.317163    0.000000
     4   -0.969586   -0.071499   -0.000000
     5   -0.099432    0.099564    0.000000
     6   -2.893836   -1.389269   -0.000000
     7   -0.073076    0.335747    0.000000
     8    0.546498   -0.333889    0.000000
     9    0.152908   -1.797714   -0.000000
    10    1.307368   -0.372364    0.000000
    11   -0.000033    0.049020   -0.000000
    12    0.461961    0.390272   -0.000000
    13   -0.008026    0.056158   -0.000000
    14   -0.231067   -0.083710   -0.000000
    15    1.110709    0.761630    0.000000
    16    0.041471    0.134202    0.000000
    17   -1.350100    1.528191   -0.000000
    18    0.305814   -0.277232   -0.000000
    19    0.434010    1.596512   -0.000000
    20    0.018736    0.550401    0.000000
    21    0.551013   -1.270114    0.000000
    22    4.916961    2.627008    0.000000
    23   -0.353096   -0.680582   -0.000000
    24   -0.077329    0.024607    0.000000
    25   -0.091848   -0.173861    0.000000
    26    0.181762    0.294657    0.000000
    27   -0.934994   -0.899850   -0.000000
    28   -1.952883    0.284847    0.000000
    29    0.142207    0.026872    0.000000
----------------------------------------
   Tot   -3.077290   -2.818207    0.000000
----------------------------------------
   Max    4.916961
   Res    1.054927    sqrt( Sum f_i^2 / 3N )
----------------------------------------
   Max    4.916961    constrained

Stress tensor Voigt[x,y,z,yz,xz,xy] (kbar):       -3.52       -2.93       -0.10       -0.00       -0.00       -3.84
(Free)E + p*V (eV/cell)    -4140.8930
Target enthalpy (eV/cell)    -4146.8230

mulliken: Atomic and Orbital Populations:

Species: O                   

Atom      Orb        Charge      Spin       Svec
----------------------------------------------------------------
    1  1 2s         1.66739   0.00000      0.000   0.000   0.000
    1  2 2s         0.08314   0.00000     -0.000  -0.000  -0.000
    1  3 2py        1.30650   0.00000      0.000  -0.000   0.000
    1  4 2pz        1.64234   0.00000     -0.000  -0.000   0.000
    1  5 2px        1.60086   0.00000     -0.000   0.000   0.000
    1  6 2py        0.11812   0.00000     -0.000   0.000   0.000
    1  7 2pz       -0.01649   0.00000      0.000   0.000   0.000
    1  8 2px        0.01648   0.00000      0.000  -0.000   0.000
    1  9 3Pdxy      0.01175   0.00000      0.000  -0.000  -0.000
    1 10 3Pdyz      0.00727   0.00000     -0.000  -0.000   0.000
    1 11 3Pdz2      0.00293   0.00000      0.000  -0.000   0.000
    1 12 3Pdxz      0.00040   0.00000     -0.000   0.000   0.000
    1 13 3Pdx2-y2   0.00553   0.00000     -0.000  -0.000   0.000
    1     Total     6.44622   0.00000     -0.000  -0.000   0.000

   28  1 2s         1.71342   0.00000      0.000  -0.000   0.000
   28  2 2s         0.06765   0.00000     -0.000   0.000  -0.000
   28  3 2py        1.33224   0.00000     -0.000   0.000   0.000
   28  4 2pz        1.61550   0.00000      0.000   0.000   0.000
   28  5 2px        1.65658   0.00000     -0.000  -0.000   0.000
   28  6 2py        0.09552   0.00000      0.000  -0.000  -0.000
   28  7 2pz       -0.01531   0.00000      0.000  -0.000   0.000
   28  8 2px       -0.00345   0.00000      0.000   0.000  -0.000
   28  9 3Pdxy      0.01143   0.00000     -0.000   0.000  -0.000
   28 10 3Pdyz      0.00879   0.00000      0.000  -0.000  -0.000
   28 11 3Pdz2      0.00242   0.00000      0.000  -0.000   0.000
   28 12 3Pdxz      0.00030   0.00000      0.000  -0.000   0.000
   28 13 3Pdx2-y2   0.00709   0.00000     -0.000   0.000  -0.000
   28     Total     6.49216   0.00000     -0.000   0.000   0.000

----------------------------------------------------------------
Total              12.93838   0.00000     -0.000   0.000   0.000


Species: N                   

Atom      Orb        Charge      Spin       Svec
----------------------------------------------------------------
    2  1 2s         1.54653   0.00000      0.000   0.000  -0.000
    2  2 2s         0.08526   0.00000     -0.000  -0.000  -0.000
    2  3 2py        1.03042   0.00000     -0.000  -0.000  -0.000
    2  4 2pz        1.22441   0.00000      0.000  -0.000  -0.000
    2  5 2px        1.00940   0.00000     -0.000   0.000  -0.000
    2  6 2py        0.19258   0.00000      0.000   0.000   0.000
    2  7 2pz        0.05447   0.00000     -0.000   0.000   0.000
    2  8 2px        0.19080   0.00000      0.000  -0.000  -0.000
    2  9 3Pdxy      0.00838   0.00000      0.000   0.000   0.000
    2 10 3Pdyz      0.01077   0.00000      0.000  -0.000   0.000
    2 11 3Pdz2      0.00189   0.00000     -0.000  -0.000   0.000
    2 12 3Pdxz      0.00746   0.00000     -0.000   0.000  -0.000
    2 13 3Pdx2-y2   0.00894   0.00000     -0.000  -0.000   0.000
    2     Total     5.37131   0.00000      0.000  -0.000  -0.000

    3  1 2s         1.39029   0.00000     -0.000  -0.000   0.000
    3  2 2s         0.12081   0.00000      0.000   0.000   0.000
    3  3 2py        0.92801   0.00000      0.000   0.000   0.000
    3  4 2pz        1.52605   0.00000     -0.000   0.000   0.000
    3  5 2px        1.07724   0.00000      0.000   0.000  -0.000
    3  6 2py        0.25783   0.00000     -0.000  -0.000  -0.000
    3  7 2pz        0.00726   0.00000      0.000  -0.000   0.000
    3  8 2px        0.18369   0.00000     -0.000  -0.000   0.000
    3  9 3Pdxy      0.00455   0.00000     -0.000   0.000  -0.000
    3 10 3Pdyz      0.00393   0.00000      0.000   0.000  -0.000
    3 11 3Pdz2      0.00049   0.00000     -0.000  -0.000  -0.000
    3 12 3Pdxz      0.00266   0.00000     -0.000  -0.000   0.000
    3 13 3Pdx2-y2   0.00262   0.00000     -0.000  -0.000  -0.000
    3     Total     5.50543   0.00000      0.000   0.000   0.000

    4  1 2s         1.47177   0.00000     -0.000   0.000   0.000
    4  2 2s         0.11716   0.00000      0.000  -0.000   0.000
    4  3 2py        1.10161   0.00000      0.000  -0.000   0.000
    4  4 2pz        1.28367   0.00000      0.000  -0.000   0.000
    4  5 2px        0.83996   0.00000      0.000  -0.000   0.000
    4  6 2py        0.15796   0.00000     -0.000   0.000  -0.000
    4  7 2pz        0.05359   0.00000      0.000   0.000  -0.000
    4  8 2px        0.28668   0.00000     -0.000   0.000  -0.000
    4  9 3Pdxy      0.00853   0.00000     -0.000  -0.000   0.000
    4 10 3Pdyz      0.01078   0.00000     -0.000  -0.000  -0.000
    4 11 3Pdz2      0.00135   0.00000      0.000   0.000  -0.000
    4 12 3Pdxz      0.00485   0.00000     -0.000   0.000  -0.000
    4 13 3Pdx2-y2   0.00849   0.00000      0.000   0.000  -0.000
    4     Total     5.34640   0.00000      0.000  -0.000   0.000

    5  1 2s         1.37286   0.00000      0.000  -0.000   0.000
    5  2 2s         0.12936   0.00000     -0.000   0.000   0.000
    5  3 2py        1.02717   0.00000     -0.000   0.000   0.000
    5  4 2pz        1.50134   0.00000     -0.000  -0.000   0.000
    5  5 2px        1.05866   0.00000      0.000   0.000   0.000
    5  6 2py        0.20325   0.00000      0.000   0.000   0.000
    5  7 2pz        0.01329   0.00000      0.000   0.000   0.000
    5  8 2px        0.20332   0.00000     -0.000  -0.000  -0.000
    5  9 3Pdxy      0.00364   0.00000      0.000  -0.000   0.000
    5 10 3Pdyz      0.00254   0.00000     -0.000   0.000  -0.000
    5 11 3Pdz2      0.00139   0.00000     -0.000   0.000  -0.000
    5 12 3Pdxz      0.00644   0.00000     -0.000  -0.000   0.000
    5 13 3Pdx2-y2   0.00576   0.00000     -0.000   0.000   0.000
    5     Total     5.52903   0.00000     -0.000  -0.000   0.000

    6  1 2s         1.27701   0.00000     -0.000  -0.000  -0.000
    6  2 2s         0.17608   0.00000      0.000  -0.000   0.000
    6  3 2py        1.06324   0.00000      0.000  -0.000   0.000
    6  4 2pz        1.49581   0.00000      0.000   0.000   0.000
    6  5 2px        0.98224   0.00000     -0.000  -0.000   0.000
    6  6 2py        0.20018   0.00000      0.000   0.000   0.000
    6  7 2pz        0.03554   0.00000     -0.000  -0.000  -0.000
    6  8 2px        0.25795   0.00000      0.000   0.000   0.000
    6  9 3Pdxy      0.00342   0.00000     -0.000   0.000   0.000
    6 10 3Pdyz      0.00002   0.00000      0.000   0.000  -0.000
    6 11 3Pdz2      0.00179   0.00000     -0.000   0.000  -0.000
    6 12 3Pdxz      0.00375   0.00000     -0.000   0.000  -0.000
    6 13 3Pdx2-y2   0.00362   0.00000     -0.000   0.000  -0.000
    6     Total     5.50065   0.00000     -0.000   0.000   0.000

   21  1 2s         1.40442   0.00000      0.000   0.000   0.000
   21  2 2s         0.12954   0.00000     -0.000  -0.000  -0.000
   21  3 2py        0.89194   0.00000      0.000  -0.000   0.000
   21  4 2pz        1.34159   0.00000      0.000  -0.000   0.000
   21  5 2px        1.16913   0.00000      0.000   0.000   0.000
   21  6 2py        0.27507   0.00000     -0.000  -0.000  -0.000
   21  7 2pz        0.03871   0.00000     -0.000  -0.000  -0.000
   21  8 2px        0.15730   0.00000     -0.000  -0.000  -0.000
   21  9 3Pdxy      0.00730   0.00000     -0.000  -0.000  -0.000
   21 10 3Pdyz      0.00455   0.00000      0.000   0.000  -0.000
   21 11 3Pdz2      0.00007   0.00000     -0.000  -0.000  -0.000
   21 12 3Pdxz      0.00557   0.00000     -0.000  -0.000  -0.000
   21 13 3Pdx2-y2   0.00547   0.00000      0.000   0.000   0.000
   21     Total     5.43066   0.00000      0.000  -0.000   0.000

   22  1 2s         1.31317   0.00000     -0.000  -0.000   0.000
   22  2 2s         0.16409   0.00000      0.000   0.000  -0.000
   22  3 2py        1.07808   0.00000      0.000   0.000   0.000
   22  4 2pz        1.43922   0.00000      0.000   0.000   0.000
   22  5 2px        1.03161   0.00000      0.000  -0.000   0.000
   22  6 2py        0.19826   0.00000     -0.000  -0.000  -0.000
   22  7 2pz        0.03547   0.00000     -0.000  -0.000   0.000
   22  8 2px        0.22447   0.00000     -0.000   0.000  -0.000
   22  9 3Pdxy      0.00534   0.00000     -0.000   0.000  -0.000
   22 10 3Pdyz      0.00003   0.00000      0.000  -0.000   0.000
   22 11 3Pdz2      0.00260   0.00000      0.000  -0.000  -0.000
   22 12 3Pdxz      0.00427   0.00000      0.000   0.000  -0.000
   22 13 3Pdx2-y2   0.00395   0.00000      0.000  -0.000  -0.000
   22     Total     5.50056   0.00000      0.000   0.000   0.000

   23  1 2s         1.36768   0.00000      0.000   0.000   0.000
   23  2 2s         0.13216   0.00000     -0.000  -0.000  -0.000
   23  3 2py        0.99593   0.00000     -0.000   0.000   0.000
   23  4 2pz        1.53504   0.00000      0.000  -0.000   0.000
   23  5 2px        1.05731   0.00000     -0.000  -0.000   0.000
   23  6 2py        0.22491   0.00000      0.000  -0.000   0.000
   23  7 2pz        0.00464   0.00000     -0.000   0.000  -0.000
   23  8 2px        0.19780   0.00000     -0.000  -0.000   0.000
   23  9 3Pdxy      0.00538   0.00000     -0.000  -0.000  -0.000
   23 10 3Pdyz      0.00465   0.00000      0.000  -0.000   0.000
   23 11 3Pdz2      0.00081   0.00000      0.000  -0.000  -0.000
   23 12 3Pdxz      0.00226   0.00000      0.000  -0.000  -0.000
   23 13 3Pdx2-y2   0.00127   0.00000      0.000   0.000  -0.000
   23     Total     5.52983   0.00000     -0.000   0.000   0.000

----------------------------------------------------------------
Total              56.65226   0.00000      0.000   0.000   0.000


Species: Si                  

Atom      Orb        Charge      Spin       Svec
----------------------------------------------------------------
    7  1 3s         0.68588   0.00000     -0.000  -0.000  -0.000
    7  2 3s         0.36010   0.00000      0.000   0.000  -0.000
    7  3 3py        0.44529   0.00000      0.000   0.000   0.000
    7  4 3pz        0.70577   0.00000      0.000  -0.000  -0.000
    7  5 3px        0.13465   0.00000      0.000   0.000   0.000
    7  6 3py        0.28824   0.00000     -0.000  -0.000  -0.000
    7  7 3pz        0.25974   0.00000     -0.000   0.000  -0.000
    7  8 3px        0.42255   0.00000     -0.000  -0.000  -0.000
    7  9 3Pdxy      0.24356   0.00000     -0.000   0.000   0.000
    7 10 3Pdyz      0.02992   0.00000      0.000   0.000  -0.000
    7 11 3Pdz2      0.01205   0.00000      0.000   0.000  -0.000
    7 12 3Pdxz      0.14017   0.00000     -0.000   0.000  -0.000
    7 13 3Pdx2-y2   0.11504   0.00000     -0.000   0.000   0.000
    7     Total     3.84299   0.00000      0.000  -0.000  -0.000

    8  1 3s         0.64640   0.00000     -0.000   0.000  -0.000
    8  2 3s         0.37203   0.00000      0.000   0.000  -0.000
    8  3 3py        0.39412   0.00000     -0.000   0.000  -0.000
    8  4 3pz        0.49585   0.00000     -0.000  -0.000  -0.000
    8  5 3px       -0.01884   0.00000      0.000   0.000  -0.000
    8  6 3py        0.30022   0.00000      0.000   0.000   0.000
    8  7 3pz        0.20669   0.00000     -0.000   0.000  -0.000
    8  8 3px        0.51904   0.00000     -0.000  -0.000  -0.000
    8  9 3Pdxy      0.26350   0.00000     -0.000   0.000  -0.000
    8 10 3Pdyz      0.10862   0.00000      0.000  -0.000  -0.000
    8 11 3Pdz2      0.01265   0.00000      0.000   0.000  -0.000
    8 12 3Pdxz      0.16037   0.00000     -0.000   0.000  -0.000
    8 13 3Pdx2-y2   0.19148   0.00000      0.000   0.000  -0.000
    8     Total     3.65213   0.00000     -0.000   0.000  -0.000

    9  1 3s         0.63249   0.00000     -0.000  -0.000   0.000
    9  2 3s         0.35636   0.00000      0.000   0.000   0.000
    9  3 3py        0.14243   0.00000     -0.000   0.000   0.000
    9  4 3pz        0.47039   0.00000      0.000   0.000   0.000
    9  5 3px        0.32393   0.00000      0.000  -0.000   0.000
    9  6 3py        0.37339   0.00000      0.000   0.000  -0.000
    9  7 3pz        0.19020   0.00000     -0.000   0.000   0.000
    9  8 3px        0.29191   0.00000     -0.000   0.000   0.000
    9  9 3Pdxy      0.26467   0.00000      0.000   0.000   0.000
    9 10 3Pdyz      0.18183   0.00000      0.000  -0.000   0.000
    9 11 3Pdz2      0.00887   0.00000     -0.000   0.000   0.000
    9 12 3Pdxz      0.10029   0.00000      0.000   0.000   0.000
    9 13 3Pdx2-y2   0.16275   0.00000      0.000  -0.000   0.000
    9     Total     3.49950   0.00000      0.000   0.000   0.000

   10  1 3s         0.49424   0.00000     -0.000   0.000  -0.000
   10  2 3s         0.37539   0.00000      0.000  -0.000  -0.000
   10  3 3py        0.23824   0.00000     -0.000   0.000  -0.000
   10  4 3pz        0.42921   0.00000     -0.000  -0.000  -0.000
   10  5 3px        0.10431   0.00000     -0.000  -0.000  -0.000
   10  6 3py        0.33113   0.00000      0.000  -0.000  -0.000
   10  7 3pz        0.21201   0.00000      0.000   0.000  -0.000
   10  8 3px        0.43852   0.00000      0.000   0.000  -0.000
   10  9 3Pdxy      0.17667   0.00000      0.000  -0.000  -0.000
   10 10 3Pdyz      0.13862   0.00000     -0.000   0.000  -0.000
   10 11 3Pdz2      0.01062   0.00000     -0.000   0.000  -0.000
   10 12 3Pdxz      0.18010   0.00000      0.000   0.000  -0.000
   10 13 3Pdx2-y2   0.31974   0.00000     -0.000  -0.000  -0.000
   10     Total     3.44883   0.00000     -0.000   0.000  -0.000

   11  1 3s         0.55976   0.00000      0.000   0.000   0.000
   11  2 3s         0.38202   0.00000      0.000  -0.000   0.000
   11  3 3py        0.30707   0.00000      0.000  -0.000   0.000
   11  4 3pz        0.53808   0.00000      0.000  -0.000   0.000
   11  5 3px        0.14038   0.00000     -0.000   0.000   0.000
   11  6 3py        0.30244   0.00000     -0.000   0.000   0.000
   11  7 3pz        0.17709   0.00000     -0.000   0.000   0.000
   11  8 3px        0.43208   0.00000     -0.000  -0.000   0.000
   11  9 3Pdxy      0.24481   0.00000      0.000   0.000   0.000
   11 10 3Pdyz      0.12557   0.00000      0.000   0.000   0.000
   11 11 3Pdz2      0.00942   0.00000     -0.000  -0.000  -0.000
   11 12 3Pdxz      0.05286   0.00000      0.000   0.000   0.000
   11 13 3Pdx2-y2   0.18470   0.00000     -0.000   0.000   0.000
   11     Total     3.45627   0.00000      0.000   0.000   0.000

   17  1 3s         0.65042   0.00000     -0.000  -0.000   0.000
   17  2 3s         0.35425   0.00000     -0.000   0.000  -0.000
   17  3 3py        0.23687   0.00000     -0.000   0.000  -0.000
   17  4 3pz        0.44084   0.00000      0.000   0.000  -0.000
   17  5 3px        0.22550   0.00000      0.000  -0.000  -0.000
   17  6 3py        0.36217   0.00000      0.000   0.000   0.000
   17  7 3pz        0.20980   0.00000      0.000  -0.000  -0.000
   17  8 3px        0.39464   0.00000      0.000   0.000   0.000
   17  9 3Pdxy      0.27774   0.00000      0.000   0.000  -0.000
   17 10 3Pdyz      0.13204   0.00000     -0.000  -0.000  -0.000
   17 11 3Pdz2      0.00825   0.00000     -0.000   0.000   0.000
   17 12 3Pdxz      0.14969   0.00000     -0.000   0.000  -0.000
   17 13 3Pdx2-y2   0.18413   0.00000     -0.000  -0.000  -0.000
   17     Total     3.62632   0.00000     -0.000   0.000  -0.000

   18  1 3s         0.74631   0.00000     -0.000   0.000  -0.000
   18  2 3s         0.34173   0.00000      0.000  -0.000   0.000
   18  3 3py        0.07086   0.00000      0.000  -0.000  -0.000
   18  4 3pz        0.80824   0.00000     -0.000  -0.000  -0.000
   18  5 3px        0.55460   0.00000      0.000   0.000  -0.000
   18  6 3py        0.52410   0.00000      0.000   0.000   0.000
   18  7 3pz        0.19379   0.00000      0.000   0.000  -0.000
   18  8 3px        0.25210   0.00000     -0.000  -0.000  -0.000
   18  9 3Pdxy      0.10649   0.00000      0.000   0.000   0.000
   18 10 3Pdyz      0.02784   0.00000      0.000  -0.000   0.000
   18 11 3Pdz2      0.00915   0.00000     -0.000  -0.000   0.000
   18 12 3Pdxz      0.03272   0.00000      0.000   0.000   0.000
   18 13 3Pdx2-y2   0.10265   0.00000     -0.000  -0.000  -0.000
   18     Total     3.77057   0.00000     -0.000  -0.000  -0.000

   19  1 3s         0.45737   0.00000      0.000  -0.000  -0.000
   19  2 3s         0.36317   0.00000      0.000   0.000  -0.000
   19  3 3py        0.06127   0.00000     -0.000  -0.000  -0.000
   19  4 3pz        0.38889   0.00000     -0.000  -0.000  -0.000
   19  5 3px        0.22752   0.00000     -0.000   0.000  -0.000
   19  6 3py        0.45691   0.00000      0.000   0.000  -0.000
   19  7 3pz        0.19900   0.00000      0.000   0.000  -0.000
   19  8 3px        0.31362   0.00000      0.000  -0.000   0.000
   19  9 3Pdxy      0.31709   0.00000      0.000   0.000  -0.000
   19 10 3Pdyz      0.18200   0.00000      0.000  -0.000  -0.000
   19 11 3Pdz2      0.00966   0.00000     -0.000  -0.000   0.000
   19 12 3Pdxz      0.09992   0.00000      0.000   0.000  -0.000
   19 13 3Pdx2-y2   0.22352   0.00000      0.000   0.000  -0.000
   19     Total     3.29994   0.00000     -0.000  -0.000  -0.000

   20  1 3s         0.68102   0.00000     -0.000   0.000   0.000
   20  2 3s         0.37642   0.00000      0.000  -0.000   0.000
   20  3 3py        0.34758   0.00000      0.000   0.000   0.000
   20  4 3pz        0.60605   0.00000      0.000   0.000   0.000
   20  5 3px        0.14663   0.00000      0.000   0.000   0.000
   20  6 3py        0.28078   0.00000     -0.000   0.000  -0.000
   20  7 3pz        0.15979   0.00000      0.000  -0.000   0.000
   20  8 3px        0.49589   0.00000     -0.000   0.000  -0.000
   20  9 3Pdxy      0.10169   0.00000     -0.000   0.000   0.000
   20 10 3Pdyz      0.13015   0.00000      0.000   0.000   0.000
   20 11 3Pdz2      0.00828   0.00000      0.000   0.000  -0.000
   20 12 3Pdxz      0.02620   0.00000      0.000  -0.000  -0.000
   20 13 3Pdx2-y2   0.17792   0.00000      0.000  -0.000   0.000
   20     Total     3.53840   0.00000      0.000   0.000   0.000

----------------------------------------------------------------
Total              88.78723   0.00000      0.000   0.000   0.000


Species: H                   

Atom      Orb        Charge      Spin       Svec
----------------------------------------------------------------
   12  1 1s         0.48037   0.00000      0.000  -0.000  -0.000
   12  2 1s         0.17821   0.00000     -0.000   0.000  -0.000
   12  3 2Ppy       0.05253   0.00000      0.000   0.000  -0.000
   12  4 2Ppz       0.03521   0.00000      0.000  -0.000  -0.000
   12  5 2Ppx       0.06242   0.00000      0.000   0.000  -0.000
   12     Total     0.80875   0.00000      0.000  -0.000  -0.000

   13  1 1s         1.02120   0.00000     -0.000  -0.000  -0.000
   13  2 1s         0.09461   0.00000      0.000   0.000  -0.000
   13  3 2Ppy       0.01980   0.00000      0.000  -0.000  -0.000
   13  4 2Ppz       0.01997   0.00000      0.000   0.000   0.000
   13  5 2Ppx       0.03317   0.00000      0.000   0.000   0.000
   13     Total     1.18874   0.00000     -0.000  -0.000  -0.000

   14  1 1s         0.49816   0.00000      0.000  -0.000  -0.000
   14  2 1s         0.19435   0.00000     -0.000   0.000  -0.000
   14  3 2Ppy       0.02176   0.00000      0.000  -0.000   0.000
   14  4 2Ppz       0.05014   0.00000     -0.000  -0.000  -0.000
   14  5 2Ppx       0.02264   0.00000      0.000  -0.000  -0.000
   14     Total     0.78705   0.00000      0.000  -0.000  -0.000

   15  1 1s         0.39142   0.00000      0.000   0.000   0.000
   15  2 1s         0.20153   0.00000     -0.000  -0.000  -0.000
   15  3 2Ppy       0.06062   0.00000      0.000   0.000   0.000
   15  4 2Ppz       0.05769   0.00000      0.000   0.000  -0.000
   15  5 2Ppx       0.11062   0.00000     -0.000  -0.000  -0.000
   15     Total     0.82188   0.00000      0.000   0.000  -0.000

   16  1 1s         0.50585   0.00000      0.000   0.000  -0.000
   16  2 1s         0.18778   0.00000     -0.000  -0.000  -0.000
   16  3 2Ppy       0.02998   0.00000      0.000   0.000  -0.000
   16  4 2Ppz       0.03898   0.00000      0.000   0.000  -0.000
   16  5 2Ppx       0.02299   0.00000     -0.000  -0.000  -0.000
   16     Total     0.78558   0.00000      0.000   0.000  -0.000

   24  1 1s         1.05733   0.00000     -0.000   0.000   0.000
   24  2 1s         0.07558   0.00000      0.000  -0.000  -0.000
   24  3 2Ppy       0.03170   0.00000      0.000  -0.000  -0.000
   24  4 2Ppz       0.03048   0.00000      0.000   0.000  -0.000
   24  5 2Ppx       0.01785   0.00000      0.000   0.000   0.000
   24     Total     1.21294   0.00000     -0.000   0.000   0.000

   25  1 1s         1.04746   0.00000     -0.000  -0.000   0.000
   25  2 1s         0.08435   0.00000      0.000   0.000   0.000
   25  3 2Ppy       0.01170   0.00000      0.000  -0.000   0.000
   25  4 2Ppz       0.01859   0.00000      0.000  -0.000   0.000
   25  5 2Ppx       0.03619   0.00000     -0.000   0.000  -0.000
   25     Total     1.19830   0.00000     -0.000  -0.000   0.000

   26  1 1s         0.50432   0.00000      0.000  -0.000  -0.000
   26  2 1s         0.19425   0.00000     -0.000   0.000  -0.000
   26  3 2Ppy       0.02450   0.00000     -0.000   0.000   0.000
   26  4 2Ppz       0.05073   0.00000     -0.000  -0.000  -0.000
   26  5 2Ppx       0.02329   0.00000     -0.000   0.000  -0.000
   26     Total     0.79709   0.00000      0.000  -0.000  -0.000

   27  1 1s         0.34620   0.00000     -0.000   0.000  -0.000
   27  2 1s         0.22297   0.00000      0.000  -0.000  -0.000
   27  3 2Ppy       0.07820   0.00000     -0.000  -0.000  -0.000
   27  4 2Ppz       0.06503   0.00000      0.000  -0.000  -0.000
   27  5 2Ppx       0.13259   0.00000     -0.000   0.000  -0.000
   27     Total     0.84499   0.00000     -0.000  -0.000  -0.000

   29  1 1s         0.49121   0.00000      0.000  -0.000  -0.000
   29  2 1s         0.18780   0.00000      0.000  -0.000  -0.000
   29  3 2Ppy       0.02519   0.00000     -0.000   0.000   0.000
   29  4 2Ppz       0.03538   0.00000     -0.000  -0.000   0.000
   29  5 2Ppx       0.02787   0.00000      0.000   0.000  -0.000
   29     Total     0.76745   0.00000     -0.000  -0.000  -0.000

----------------------------------------------------------------
Total              98.00000   0.00000     -0.000  -0.000   0.000


siesta: Eigenvalues (eV):
ik =     1
  -23.4675  -23.4675  -23.4303  -23.4303  -21.4520  -21.4520  -21.3037  -21.3037  -20.7769  -20.7769
  -20.4091  -20.4091  -20.0465  -20.0465  -19.6390  -19.6390  -19.4556  -19.4556  -19.3777  -19.3777
  -14.7229  -14.7229  -13.9145  -13.9145  -13.3630  -13.3630  -13.1573  -13.1573  -13.0615  -13.0615
  -12.8876  -12.8876  -12.4804  -12.4804  -12.1030  -12.1030  -11.9762  -11.9762  -11.8843  -11.8843
  -10.9677  -10.9677  -10.7592  -10.7592  -10.5692  -10.5692  -10.2440  -10.2440  -10.0957  -10.0957
   -9.7503   -9.7503   -9.1074   -9.1074   -8.9337   -8.9337   -8.8522   -8.8522   -8.7588   -8.7588
   -8.5087   -8.5087   -8.4469   -8.4469   -8.3833   -8.3833   -8.0280   -8.0280   -7.7952   -7.7952
   -7.6230   -7.6230   -7.5349   -7.5349   -7.4386   -7.4386   -7.3076   -7.3076   -6.9828   -6.9828
   -6.8241   -6.8241   -6.7242   -6.7242   -6.5386   -6.5386   -6.4177   -6.4177   -6.0899   -6.0899
   -6.0069   -6.0069   -5.7831   -5.7831   -5.4341   -5.4341   -4.3882   -4.3882   -3.1655   -3.1655
   -2.4884   -2.4884   -2.3061   -2.3061   -2.1969   -2.1969   -2.0186   -2.0186   -1.8977   -1.8977
   -1.8673   -1.8673   -1.6729   -1.6729   -1.6478   -1.6478   -1.2749   -1.2749   -1.1389   -1.1389
   -1.0559   -1.0559   -0.5058   -0.5058   -0.4884   -0.4884   -0.4155   -0.4155    0.3558    0.3558
    0.3629    0.3629    0.5683    0.5683    0.7908    0.7908    0.8676    0.8676    1.2053    1.2053
    1.3744    1.3744    1.4676    1.4676    1.5126    1.5126    1.5715    1.5715    2.0080    2.0080
    2.2936    2.2936    2.5586    2.5586    2.6726    2.6726    2.7935    2.7935    3.0062    3.0062
    3.1146    3.1146    3.3321    3.3321    3.3352    3.3352    3.4598    3.4598    3.8049    3.8049
    3.8560    3.8560    4.0498    4.0498    4.1748    4.1748    4.2921    4.2921    4.5186    4.5186
    4.5803    4.5803    4.6626    4.6626    4.7546    4.7546    5.1020    5.1020    5.2976    5.2976
    5.3669    5.3669    5.5700    5.5700    5.6971    5.6971    5.8670    5.8670    5.8765    5.8765
    5.9466    5.9466    6.3840    6.3840    6.4826    6.4826    6.6214    6.6214    6.6795    6.6795
    6.9283    6.9283    6.9647    6.9647    7.1672    7.1672    7.3348    7.3348    7.4113    7.4113
    7.5786    7.5786    7.6679    7.6679    7.8276    7.8276    8.0781    8.0781    8.1183    8.1183
    8.2659    8.2659    8.4798    8.4798    8.6190    8.6190    8.6983    8.6983    8.8356    8.8356
    9.0106    9.0106    9.1157    9.1157    9.3782    9.3782    9.5065    9.5065    9.8526    9.8526
    9.8736    9.8736    9.9573    9.9573   10.0719   10.0719   10.2332   10.2332   10.3651   10.3651
   10.6864   10.6864   10.8289   10.8289   11.2656   11.2656   11.2996   11.2996   11.4674   11.4674
   11.5669   11.5669   11.9821   11.9821   12.3516   12.3516   12.4563   12.4563   12.5226   12.5226
   12.5527   12.5527   12.7533   12.7533   13.5356   13.5356   13.7327   13.7327   13.8344   13.8344
   13.8406   13.8406   13.9298   13.9298   14.3146   14.3146   14.3626   14.3626   14.4541   14.4541
   14.5521   14.5521   15.1771   15.1771   15.4206   15.4206   15.5547   15.5547   15.5977   15.5977
   15.9848   15.9848   16.7632   16.7632   16.8013   16.8013   16.8666   16.8666   17.1044   17.1044
   17.6644   17.6644   17.9830   17.9830   18.4633   18.4633   18.9091   18.9091   19.3264   19.3264
   20.0063   20.0063   20.2649   20.2649   20.4042   20.4042   20.9667   20.9667   21.2406   21.2406
   21.4817   21.4817   22.0459   22.0459   22.3527   22.3527   22.9368   22.9368   23.0782   23.0782
   23.6612   23.6612   24.0058   24.0058   24.3678   24.3678   24.8629   24.8629   25.1053   25.1053
   26.0019   26.0019   26.8475   26.8476   27.1725   27.1725   27.9411   27.9411   28.7034   28.7034
   29.3834   29.3834   29.9708   29.9708   30.1349   30.1349   30.3535   30.3535   30.6591   30.6591
   30.9485   30.9485   31.1843   31.1843   31.3400   31.3400   31.7593   31.7593   32.1063   32.1063
   33.7295   33.7295   33.8344   33.8344   33.9305   33.9305   34.2664   34.2664   34.7826   34.7826
   35.3051   35.3051   35.4995   35.4995   36.3489   36.3489   36.6703   36.6703   36.8315   36.8315
   37.0577   37.0577   37.3662   37.3662   38.1980   38.1980   38.5347   38.5347   38.7244   38.7244
   39.4284   39.4284   39.4692   39.4692   39.9640   39.9640   40.1143   40.1143   40.3977   40.3977
   40.6045   40.6045   41.0293   41.0293   41.9661   41.9661   42.4110   42.4110   42.5514   42.5514
   42.7525   42.7525   43.0853   43.0853   43.3064   43.3064   43.4769   43.4769   43.9171   43.9171
   44.3933   44.3933   44.8825   44.8825   45.0218   45.0218   45.1535   45.1535   45.5297   45.5297
   45.5986   45.5986   46.2698   46.2698   46.8685   46.8685   46.9485   46.9485   47.2779   47.2779
   48.0534   48.0534   48.5911   48.5911   49.7572   49.7572   49.8572   49.8572   50.3738   50.3738
   50.8599   50.8599   50.8658   50.8658   51.4690   51.4690   52.2141   52.2141   52.2601   52.2601
   53.3402   53.3402   53.4230   53.4230   54.5282   54.5282   54.7876   54.7876   54.8636   54.8636
   55.1306   55.1306   56.2632   56.2632   56.2885   56.2885   56.8696   56.8696   57.4576   57.4576
   57.8664   57.8664   58.1558   58.1558   58.6322   58.6322   59.2054   59.2054   60.2217   60.2217
   60.4078   60.4078   61.1022   61.1022   61.7810   61.7810   62.5168   62.5168   63.2943   63.2943
   64.5818   64.5818   65.1499   65.1499   66.5637   66.5637   66.8062   66.8062   67.8106   67.8106
   68.5315   68.5315   69.7277   69.7277   71.0307   71.0307   71.5852   71.5852   74.3976   74.3976
   75.3837   75.3837   76.7987   76.7987   78.7812   78.7812   81.6291   81.6291   90.5262   90.5262
   91.3814   91.3814   92.2884   92.2884   95.3136   95.3136   98.9938   98.9938   99.5841   99.5841
  103.7186  103.7186  104.1414  104.1414  105.5055  105.5055  109.6382  109.6382  113.5584  113.5584
  118.0406  118.0406  121.8417  121.8417  125.8831  125.8831  129.0961  129.0961  141.5669  141.5669
  149.3294  149.3294  151.5533  151.5533
siesta: Fermi energy =      -3.767454 eV

siesta: Program's energy decomposition (eV):
siesta: Ebs     =     -1138.405806
siesta: Eions   =      3585.165840
siesta: Ena     =       385.664332
siesta: Ekin    =      2925.252448
siesta: Enl     =     -2809.229688
siesta: Eso     =        -0.004351
siesta: Edftu   =         0.000000
siesta: DEna    =        48.725603
siesta: DUscf   =        13.836316
siesta: DUext   =         0.000000
siesta: Exc     =     -1125.901811
siesta: eta*DQ  =         0.000000
siesta: Emadel  =         0.000000
siesta: Emeta   =         0.000000
siesta: Emolmec =         0.000000
siesta: Ekinion =         0.000000
siesta: Eharris =     -4146.822990
siesta: Etot    =     -4146.822990
siesta: FreeEng =     -4146.822990

siesta: Final energy (eV):
siesta:  Band Struct. =   -1138.405806
siesta:       Kinetic =    2925.252448
siesta:       Hartree =    9273.482003
siesta:       Edftu   =       0.000000
siesta:       Eso     =      -0.004351
siesta:    Ext. field =       0.000000
siesta:   Exch.-corr. =   -1125.901811
siesta:  Ion-electron =  -21148.724926
siesta:       Ion-ion =    5929.073648
siesta:       Ekinion =       0.000000
siesta:         Total =   -4146.822990
siesta:         Fermi =      -3.767454

siesta: Atomic forces (eV/Ang):
siesta:      1   -2.985501   -4.532201    0.000000
siesta:      2   -0.053140   -0.012772   -0.000000
siesta:      3   -1.174762    0.317163    0.000000
siesta:      4   -0.969586   -0.071499   -0.000000
siesta:      5   -0.099432    0.099564    0.000000
siesta:      6   -2.893836   -1.389269   -0.000000
siesta:      7   -0.073076    0.335747    0.000000
siesta:      8    0.546498   -0.333889    0.000000
siesta:      9    0.152908   -1.797714   -0.000000
siesta:     10    1.307368   -0.372364    0.000000
siesta:     11   -0.000033    0.049020   -0.000000
siesta:     12    0.461961    0.390272   -0.000000
siesta:     13   -0.008026    0.056158   -0.000000
siesta:     14   -0.231067   -0.083710   -0.000000
siesta:     15    1.110709    0.761630    0.000000
siesta:     16    0.041471    0.134202    0.000000
siesta:     17   -1.350100    1.528191   -0.000000
siesta:     18    0.305814   -0.277232   -0.000000
siesta:     19    0.434010    1.596512   -0.000000
siesta:     20    0.018736    0.550401    0.000000
siesta:     21    0.551013   -1.270114    0.000000
siesta:     22    4.916961    2.627008    0.000000
siesta:     23   -0.353096   -0.680582   -0.000000
siesta:     24   -0.077329    0.024607    0.000000
siesta:     25   -0.091848   -0.173861    0.000000
siesta:     26    0.181762    0.294657    0.000000
siesta:     27   -0.934994   -0.899850   -0.000000
siesta:     28   -1.952883    0.284847    0.000000
siesta:     29    0.142207    0.026872    0.000000
siesta: ----------------------------------------
siesta:    Tot   -3.077290   -2.818207    0.000000

siesta: Stress tensor (static) (eV/Ang**3):
siesta:    -0.002199   -0.002396   -0.000000
siesta:    -0.002396   -0.001826   -0.000000
siesta:    -0.000000   -0.000000   -0.000064

siesta: Cell volume =       4351.129496 Ang**3

siesta: Pressure (static):
siesta:                Solid            Molecule  Units
siesta:           0.00001484          0.00001434  Ry/Bohr**3
siesta:           0.00136285          0.00131686  eV/Ang**3
siesta:           2.18355782          2.10986597  kBar
(Free)E+ p_basis*V_orbitals  =       -4126.972573
(Free)Eharris+ p_basis*V_orbitals  =       -4126.972573
     spin moment: S , {S} =    0.00000  -0.00000  -0.00000   0.00000

siesta: Electric dipole (a.u.)  =    1.318725    0.058811    0.000000
siesta: Electric dipole (Debye) =    3.351866    0.149482    0.000000

cite: Please see "GC.bib" for an exhaustive BiBTeX file.
cite: Please clearly indicate Siesta version in published work: v4.1.5-1-g384057250
cite: This calculation has made use of the following articles
cite: which are encouraged to be cited in a published work.
        Primary SIESTA paper
          DOI: www.doi.org/10.1088/0953-8984/14/11/302
        Spin-orbit coupling (on-site approximation)
          DOI: www.doi.org/10.1088/0953-8984/19/19/489001


WARNING: alloc-realloc-dealloc name mismatch
         Name: atomlist isa
         Size:              -116. Bytes
         Node:     0
         Subsequent mismatches will not be reported
>> End of run:  22-MAY-2023  16:37:12
Job completed
