Siesta Version  : v4.1.5-1-g384057250
Architecture    : gcc
Compiler version: GNU Fortran (Debian 12.2.0-14) 12.2.0
Compiler flags  : mpifort -O2 -fPIC -ftree-vectorize -fallow-argument-mismatch
PP flags        : -DFC_HAVE_ABORT -DMPI -DSIESTA__FLOOK -DSIESTA__METIS -DSIESTA__MUMPS -DCDF -DNCDF -DNCDF_4 -DNCDF_PARALLEL -DSIESTA__MRRR -DSIESTA__ELPA
Libraries       : libncdf.a libfdict.a  -lflookall -ldl -lnetcdff -lnetcdf -lz -lscalapack-openmpi -lopenblas -lmetis -lzmumps -lcmumps -ldmumps -lmumps_common -lpord -lsmumps -lesmumps -lscotch -lscotcherr -fopenmp -lelpa
PARALLEL version
NetCDF support
NetCDF-4 support
NetCDF-4 MPI-IO support
METIS ordering support
Lua support

* Running on 32 nodes in parallel
>> Start of run:  22-OCT-2023   0:19:37

                           ***********************       
                           *  WELCOME TO SIESTA  *       
                           ***********************       

reinit: Reading from standard input
reinit: Dumped input in INPUT_TMP.06004
************************** Dump of input data file ****************************
SystemLabel      Periodic
NumberOfAtoms    629
NumberOfSpecies  5
%block ChemicalSpeciesLabel
    1   14  Si
    2    1  H
    3    8  O
    4    7  N
    5   15  P
%endblock ChemicalSpeciesLabel
############################################
# This overrides Defaults.fdf configuration
############################################
MD.TypeOfRun                Broyden # CG, Verlet
MD.Steps                    1000
SCF.H.Tolerance             0.00006 eV
SCF.DM.Tolerance            0.00008
MD.MaxForceTol              0.02 eV/Ang
SCF.Mixer.Kick              10
MaxSCFIterations            90
SCF.Mixer.Weight            0.13
SCF.MustConverge            F
MD.RelaxCellOnly            T
MD.VariableCell             T
MD.RemoveIntramolecularPressure T
Target.Pressure             0.1 GPa
%block LatticeVectors
   100.0    0.0      0.0
   0.0      100.0    0.0
   0.0      0.0      39.5
%endblock LatticeVectors
AtomicCoordinatesFormat NotScaledCartesianAng
%block AtomicCoordinatesAndAtomicSpecies
     7.646157000    21.249109000    10.279038000    1
     7.651770000    19.944449000    11.080943000    2
     7.255146000    22.377811000    11.202646000    2
     9.919511000    21.671271000     9.597107000    1
    10.555015000    22.113211000    10.908522000    2
    10.732509000    20.119372000     9.291690000    3
    10.945284000    19.458270000     7.703072000    1
    12.402282000    19.249706000     7.412931000    2
     9.672596000    23.069842000     7.630513000    1
     8.215042000    23.462762000     7.701966000    2
     9.779381000    21.054133000     6.337499000    1
     8.355131000    20.552847000     6.146855000    2
    10.380967000    21.158547000     4.959987000    2
    17.711777000     9.834381000     7.641644000    4
    16.920663000     8.217590000     7.735828000    1
    17.845492000     7.048270000     7.736217000    2
    15.197082000     8.075241000     7.773994000    4
    14.615133000     9.746989000     7.769972000    1
    12.823740000    11.117247000     7.855576000    1
    11.263639000    10.748982000     7.848660000    3
    13.423586000    12.824234000     7.759752000    4
    12.580787000    13.522715000     7.765019000    2
    15.049990000    13.581240000     7.755687000    1
    15.013187000    15.278220000     7.855447000    4
    14.083656000    15.945150000     7.769038000    2
    15.933831000    15.780990000     7.765131000    2
    16.581514000    12.785867000     7.716080000    4
    16.421207000    11.078554000     7.758749000    1
    10.247241000    17.695342000     7.738806000    4
     8.473794000    17.482166000     7.789476000    1
     7.838827000    18.819313000     7.569883000    2
     7.545748000    15.486297000     7.665420000    1
     6.094779000    15.172709000     7.891868000    2
     9.287184000    14.071748000     7.804487000    1
     9.084089000    12.362381000     7.825863000    4
     9.928019000    11.668945000     7.841479000    2
     8.118021000    11.942590000     7.779270000    2
    10.909063000    14.677576000     7.816556000    4
    11.402498000    16.322220000     7.773096000    1
    12.932383000    16.818845000     7.678856000    3
    19.972421000     6.445618000     5.030619000    1
    18.854322000     6.914601000     4.111422000    2
    21.032884000     5.736578000     4.216522000    2
    21.173170000     8.329958000     5.940660000    1
    22.167513000     8.674066000     4.854356000    2
    20.325995000     9.877050000     6.236437000    3
    19.569820000    10.208969000     7.758534000    1
    19.447865000    11.701676000     7.849546000    2
    22.113693000     7.775957000     8.057329000    1
    22.443424000     6.320564000     8.190006000    2
    20.356074000     8.637486000     9.384866000    1
    19.178272000     7.682079000     9.463912000    2
    20.594035000     9.167881000    10.760817000    2
     6.416190000    20.985908000     9.037010000    3
     4.691925000    21.284323000     9.312594000    5
     4.311137000    22.803297000     9.123646000    3
     3.614259000    20.380000000     8.534012000    3
    23.495681000     8.838725000     8.277912000    3
    23.856888000     9.060135000     9.979976000    5
    25.421097000     9.274867000    10.143120000    3
    23.146038000     7.892962000    10.818015000    3
     4.256313000    16.676592000    14.190203000    1
     5.003468000    15.611543000    14.980648000    2
     3.341631000    17.494554000    15.076249000    2
     5.832928000    18.379093000    13.518156000    1
     5.980051000    19.167712000    14.806241000    2
     7.473860000    17.774776000    13.201657000    3
     7.911113000    17.172259000    11.633173000    1
     9.224016000    17.766630000    11.227691000    2
     4.783932000    19.297934000    11.563792000    1
     3.336678000    18.888133000    11.599883000    2
     6.019154000    17.725331000    10.271829000    1
     5.186106000    16.471440000    10.057787000    2
     6.341618000    18.246140000     8.896058000    2
    18.936539000    13.397571000    11.566793000    4
    19.233836000    11.613105000    11.625673000    1
    20.666835000    11.193054000    11.564707000    2
    17.913359000    10.493589000    11.624760000    4
    16.467960000    11.512631000    11.493852000    1
    14.221843000    11.625901000    11.671390000    1
    13.197796000    10.401916000    11.673370000    3
    13.691052000    13.353991000    11.626425000    4
    12.601831000    13.424296000    11.650837000    2
    14.588455000    14.904986000    11.612328000    1
    13.592223000    16.280898000    11.672670000    4
    12.480582000    16.232101000    11.677708000    2
    14.040187000    17.235856000    11.657624000    2
    16.300703000    15.120694000    11.615179000    4
    17.162027000    13.648882000    11.549165000    1
     8.227258000    15.300625000    11.750032000    4
     6.902243000    14.085720000    11.752175000    1
     5.539531000    14.737603000    11.759503000    2
     7.333368000    11.932158000    11.724656000    1
     6.299425000    10.845918000    11.748695000    2
     9.580230000    11.767687000    11.701416000    1
    10.437086000    10.271645000    11.724024000    4
    11.524540000    10.228588000    11.674864000    2
     9.934338000     9.347635000    11.707944000    2
    10.533141000    13.210062000    11.702103000    4
     9.965648000    14.827383000    11.705195000    1
    10.910913000    16.124474000    11.673436000    3
    22.710465000    10.569713000    10.143670000    3
    22.739025000    11.852407000     8.960044000    1
    21.579012000    11.620612000     8.009958000    2
    24.026921000    11.888906000     8.172743000    2
    22.610109000    14.101031000     9.849597000    1
    23.223728000    14.921753000     8.732149000    2
    21.033355000    14.908214000    10.145865000    3
    20.261926000    14.750070000    11.685726000    1
    19.406449000    15.973222000    11.875883000    2
    23.712052000    14.196136000    11.972634000    1
    24.821094000    13.177439000    12.102309000    2
    21.784179000    13.929785000    13.312696000    1
    21.386288000    12.477845000    13.460510000    2
    21.646847000    14.643090000    14.635980000    2
     3.257846000    15.868575000    12.950610000    3
     1.749033000    15.249727000    13.298306000    5
     0.699522000    16.386176000    13.034256000    3
     1.492774000    13.959135000    12.442040000    3
     4.749453000    20.980706000    10.994074000    3
    24.201044000    15.865668000    12.184845000    3
    24.451258000    16.284581000    13.832364000    5
    25.690536000    17.251660000    13.968442000    3
    24.550313000    14.916083000    14.645896000    3
     3.698290000    10.309493000    18.183687000    1
     4.917556000     9.973303000    19.052320000    2
     2.488429000    10.382831000    19.096028000    2
     3.993958000    12.562348000    17.389860000    1
     3.595623000    13.317571000    18.640325000    2
     5.657651000    13.072331000    17.051440000    3
     6.298218000    12.909126000    15.430292000    1
     6.904523000    14.220853000    15.017609000    2
     2.724913000    12.855178000    15.394719000    1
     1.551051000    11.906072000    15.399743000    2
     4.531990000    12.152960000    14.017483000    1
     4.538144000    10.641449000    13.852610000    2
     4.680502000    12.809398000    12.659534000    2
    17.402066000    16.861657000    15.398166000    4
    18.758702000    15.670259000    15.481831000    1
    20.137283000    16.232134000    15.344586000    2
    18.449479000    13.972118000    15.547500000    4
    16.687148000    13.848507000    15.633963000    1
    14.893218000    12.467700000    15.521247000    1
    14.873450000    10.865735000    15.514649000    3
    13.391026000    13.483184000    15.498665000    4
    12.486507000    12.867299000    15.501531000    2
    13.079401000    15.248809000    15.454699000    1
    11.425156000    15.671541000    15.439710000    4
    10.534403000    14.976272000    15.407310000    2
    11.192470000    16.701015000    15.370615000    2
    14.254331000    16.515892000    15.447925000    4
    15.865092000    15.935960000    15.483310000    1
     7.774835000    11.718346000    15.461084000    4
     7.520010000     9.956242000    15.482558000    1
     6.061517000     9.691703000    15.272278000    2
     9.235136000     8.577417000    15.432157000    1
     9.140064000     7.090779000    15.599746000    2
    11.047226000     9.894935000    15.533989000    1
    12.650731000     9.268392000    15.567390000    4
    13.551864000     9.884971000    15.523720000    2
    12.791557000     8.226413000    15.538958000    2
    10.887546000    11.614903000    15.518039000    4
     9.402250000    12.478272000    15.483736000    1
     9.279865000    14.070905000    15.382173000    3
    22.765900000    17.370427000    13.976966000    3
    21.243854000    18.061414000    12.838709000    1
    20.454216000    17.116608000    11.951811000    2
    22.251323000    18.803351000    11.972070000    2
    19.813862000    19.766127000    13.740233000    1
    19.790932000    20.735586000    12.582551000    2
    18.092528000    19.302690000    13.952820000    3
    17.569449000    18.745603000    15.508208000    1
    16.121933000    19.098551000    15.712861000    2
    20.554473000    20.631512000    15.844391000    1
    22.060276000    20.520612000    16.016920000    2
    19.248999000    19.150133000    17.149644000    1
    19.828986000    17.768906000    17.400321000    2
    18.684441000    19.627811000    18.456061000    2
     3.532896000     9.018832000    17.019990000    3
     3.096792000     7.412685000    19.082010000    3
     2.745587000     7.468545000    17.350238000    5
     1.192763000     7.607964000    17.104464000    3
     3.434240000     6.265372000    16.566835000    3
     2.100314000    14.444266000    14.939714000    3
    19.868914000    22.245311000    15.963340000    3
    19.802100000    22.713882000    17.706674000    5
    19.943993000    24.277888000    17.788636000    3
    20.703192000    21.680684000    18.522726000    3
     7.142002000     5.861518000    22.278032000    1
     8.355766000     6.328340000    23.086781000    2
     6.203221000     5.125757000    23.203913000    2
     5.976933000     7.839908000    21.543197000    1
     5.327621000     8.310852000    22.837643000    2
     7.161214000     9.128677000    21.228252000    3
     7.730049000     9.524352000    19.638943000    1
     7.431697000    10.958988000    19.317494000    2
     4.772327000     7.092020000    19.574937000    1
     4.900437000     5.589629000    19.676753000    2
     6.646494000     7.857079000    18.290978000    1
     7.606837000     6.686816000    18.134944000    2
     6.360381000     8.360244000    16.899822000    2
    14.461135000    19.171916000    19.479427000    4
    16.249612000    18.983456000    19.600151000    1
    17.032249000    20.252277000    19.586326000    2
    16.972062000    17.413576000    19.677574000    4
    15.600147000    16.294974000    19.677345000    1
    14.923813000    14.144937000    19.795381000    1
    15.803245000    12.805054000    19.825328000    3
    13.115983000    14.122820000    19.676792000    4
    12.747668000    13.092214000    19.697030000    2
    11.848737000    15.391824000    19.632246000    1
    10.265434000    14.778737000    19.723459000    4
     9.957589000    13.675687000    19.654157000    2
     9.479444000    15.469990000    19.609843000    2
    12.073110000    17.101967000    19.562831000    4
    13.731678000    17.536125000    19.618467000    1
     9.624782000     9.472199000    19.699958000    4
    10.430672000     7.879934000    19.791386000    1
     9.394056000     6.821849000    19.578668000    2
    12.624963000     7.688314000    19.699072000    1
    13.412722000     6.436717000    19.959584000    2
    13.357115000     9.810858000    19.807006000    1
    15.032511000    10.205113000    19.842321000    4
    15.395432000    11.235454000    19.842907000    2
    15.757809000     9.440187000    19.819622000    2
    12.233268000    11.127626000    19.779523000    4
    10.519723000    11.027860000    19.716003000    1
     9.531299000    12.293520000    19.584894000    3
    18.143364000    22.140344000    18.058249000    3
    16.906145000    22.404966000    16.837271000    1
    16.859432000    21.176555000    15.940701000    2
    17.220337000    23.628229000    16.003615000    2
    14.713369000    22.905947000    17.709888000    1
    14.064034000    23.701684000    16.599776000    2
    13.545412000    21.586528000    18.015986000    3
    13.472506000    20.791650000    19.552737000    1
    12.110371000    20.168264000    19.638230000    2
    14.885335000    24.019475000    19.808047000    1
    16.138516000    24.829576000    19.941339000    2
    14.659587000    22.098887000    21.169734000    1
    15.958957000    21.320634000    21.280317000    2
    14.062222000    22.167320000    22.537088000    2
     7.825677000     4.772271000    21.065245000    3
     8.131146000     3.055528000    21.377612000    5
     6.836393000     2.174638000    21.188854000    3
     9.359268000     2.337501000    20.628276000    3
    13.411445000    24.958561000    19.991864000    3
    13.058118000    25.254694000    21.684193000    5
    12.319551000    26.653932000    21.811186000    3
    14.387137000    25.002067000    22.544309000    3
    12.029397000    23.664442000    21.865131000    3
     8.375244000     3.245537000    23.059034000    3
    12.596933000     3.667656000    26.188212000    1
    13.348964000     4.703163000    27.034577000    2
    12.134833000     2.560888000    27.117209000    2
    10.563731000     4.711659000    25.433836000    1
     9.745959000     4.602547000    26.703496000    2
    10.645754000     6.447553000    25.083936000    3
    10.981855000     6.984732000    23.451894000    1
     9.947534000     8.000837000    23.056607000    2
     9.810269000     3.608345000    23.461071000    1
    10.300796000     2.180704000    23.463001000    2
    11.056968000     5.058645000    22.047640000    1
    12.475447000     4.546540000    21.853862000    2
    10.460693000     5.415244000    20.700685000    2
    11.063418000    18.770424000    23.353040000    4
    12.648342000    19.638186000    23.396552000    1
    12.588644000    21.125025000    23.252416000    2
    14.139501000    18.767166000    23.433730000    4
    13.655140000    17.069348000    23.540383000    1
    14.336660000    14.910743000    23.424302000    1
    15.834794000    14.344213000    23.387363000    3
    12.868614000    13.846375000    23.440363000    4
    13.138104000    12.785788000    23.443051000    2
    11.102312000    14.157202000    23.434122000    1
    10.139347000    12.747256000    23.448400000    4
    10.487337000    11.672258000    23.414139000    2
     9.091078000    12.880336000    23.401966000    2
    10.313372000    15.694594000    23.436501000    4
    11.409617000    17.010024000    23.440169000    1
    12.606031000     7.965157000    23.441021000    4
    14.174892000     7.123133000    23.432099000    1
    13.920167000     5.660988000    23.235503000    2
    16.055452000     8.262915000    23.333407000    1
    17.423385000     7.666029000    23.473776000    2
    15.439357000    10.416878000    23.437165000    1
    16.576868000    11.709536000    23.438052000    4
    16.304657000    12.766955000    23.394628000    2
    17.603307000    11.485323000    23.387922000    2
    13.768515000    10.855022000    23.456115000    4
    12.448894000     9.754437000    23.457336000    1
    10.908520000    10.183603000    23.387786000    3
    11.192355000    22.776711000    20.767966000    1
    11.790268000    21.706676000    19.873372000    2
     9.122095000    22.021010000    21.720127000    1
     8.177606000    22.324673000    20.581561000    2
     8.973829000    20.246180000    21.945855000    3
     9.353134000    19.572679000    23.496892000    1
     8.531301000    18.334332000    23.726772000    2
     8.609218000    23.024513000    23.830771000    1
     9.231994000    24.402495000    23.981848000    2
     9.583856000    21.298304000    25.124106000    1
    11.085368000    21.372264000    25.340908000    2
     8.971265000    20.938376000    26.446532000    2
    13.726983000     3.064391000    25.002290000    3
    15.132916000     2.116599000    27.038674000    3
    14.921716000     1.796152000    25.312925000    5
    14.254438000     0.383337000    25.089769000    3
    16.270004000     2.027429000    24.497930000    3
     6.861370000    22.932931000    23.989292000    3
     6.437236000    23.040011000    25.741970000    5
     5.018193000    23.708730000    25.851964000    3
     7.734165000    23.537852000    26.526531000    3
    18.044379000     5.404824000    30.152410000    1
    18.038766000     6.709484000    30.954315000    2
    18.435390000     4.276122000    31.076018000    2
    15.771025000     4.982661000    29.470479000    1
    15.135521000     4.540722000    30.781894000    2
    14.958027000     6.534561000    29.165063000    3
    14.745252000     7.195663000    27.576445000    1
    13.288254000     7.404227000    27.286304000    2
    16.017940000     3.584091000    27.503885000    1
    17.475494000     3.191171000    27.575338000    2
    15.911155000     5.599800000    26.210872000    1
    17.335405000     6.101085000    26.020227000    2
    15.309569000     5.495385000    24.833359000    2
     7.978759000    16.819552000    27.515017000    4
     8.769873000    18.436343000    27.609200000    1
     7.845044000    19.605663000    27.609589000    2
    10.493454000    18.578691000    27.647366000    4
    11.075403000    16.906944000    27.643344000    1
    12.866796000    15.536686000    27.728949000    1
    14.426897000    15.904951000    27.722032000    3
    12.266950000    13.829699000    27.633124000    4
    13.109749000    13.131218000    27.638391000    2
    10.640546000    13.072693000    27.629059000    1
    10.677349000    11.375713000    27.728819000    4
    11.606880000    10.708783000    27.642411000    2
     9.756705000    10.872942000    27.638503000    2
     9.109022000    13.868065000    27.589452000    4
     9.269329000    15.575379000    27.632121000    1
    15.443295000     8.958591000    27.612178000    4
    17.216742000     9.171767000    27.662848000    1
    17.851709000     7.834619000    27.443256000    2
    18.144788000    11.167636000    27.538793000    1
    19.595757000    11.481224000    27.765241000    2
    16.403352000    12.582185000    27.677859000    1
    16.606447000    14.291551000    27.699235000    4
    15.762517000    14.984988000    27.714851000    2
    17.572515000    14.711342000    27.652642000    2
    14.781473000    11.976357000    27.689928000    4
    14.288038000    10.331713000    27.646468000    1
    12.758153000     9.835088000    27.552228000    3
     6.416910000    21.287109000    26.103744000    3
     5.718115000    20.208315000    24.903991000    1
     6.836214000    19.739331000    23.984794000    2
     4.657652000    20.917354000    24.089895000    2
     4.517366000    18.323975000    25.814033000    1
     3.523023000    17.979867000    24.727729000    2
     5.364541000    16.776883000    26.109809000    3
     6.120716000    16.444963000    27.631906000    1
     6.242671000    14.952256000    27.722918000    2
     3.576843000    18.877976000    27.930701000    1
     3.247112000    20.333369000    28.063379000    2
     5.334462000    18.016447000    29.258238000    1
     6.512264000    18.971853000    29.337284000    2
     5.096501000    17.486051000    30.634189000    2
    19.274346000     5.668025000    28.910383000    3
    20.998611000     5.369610000    29.185966000    5
    21.379399000     3.850636000    28.997018000    3
    22.076277000     6.273933000    28.407384000    3
     2.194855000    17.815207000    28.151285000    3
     1.833648000    17.593798000    29.853348000    5
     0.269439000    17.379066000    30.016492000    3
     2.544498000    18.760971000    30.691388000    3
    21.434223000     9.977341000    34.063576000    1
    20.687068000    11.042389000    34.854021000    2
    22.348905000     9.159379000    34.949622000    2
    19.857608000     8.274840000    33.391528000    1
    19.710485000     7.486221000    34.679613000    2
    18.216676000     8.879157000    33.075030000    3
    17.779423000     9.481674000    31.506545000    1
    16.466520000     8.887303000    31.101064000    2
    20.906604000     7.355999000    31.437165000    1
    22.353858000     7.765800000    31.473256000    2
    19.671382000     8.928601000    30.145202000    1
    20.504430000    10.182493000    29.931159000    2
    19.348918000     8.407793000    28.769430000    2
     6.753997000    13.256361000    31.440166000    4
     6.456700000    15.040828000    31.499046000    1
     5.023701000    15.460879000    31.438080000    2
     7.777177000    16.160344000    31.498132000    4
     9.222576000    15.141301000    31.367225000    1
    11.468693000    15.028032000    31.544762000    1
    12.492740000    16.252017000    31.546742000    3
    11.999484000    13.299942000    31.499798000    4
    13.088705000    13.229637000    31.524209000    2
    11.102081000    11.748946000    31.485700000    1
    12.098313000    10.373035000    31.546042000    4
    13.209954000    10.421832000    31.551080000    2
    11.650349000     9.418077000    31.530996000    2
     9.389833000    11.533238000    31.488551000    4
     8.528509000    13.005051000    31.422538000    1
    17.463278000    11.353307000    31.623404000    4
    18.788293000    12.568212000    31.625547000    1
    20.151005000    11.916329000    31.632876000    2
    18.357168000    14.721775000    31.598028000    1
    19.391111000    15.808015000    31.622068000    2
    16.110306000    14.886246000    31.574788000    1
    15.253450000    16.382287000    31.597396000    4
    14.165996000    16.425345000    31.548236000    2
    15.756198000    17.306298000    31.581316000    2
    15.157395000    13.443871000    31.575475000    4
    15.724888000    11.826550000    31.578567000    1
    14.779623000    10.529459000    31.546808000    3
     2.980071000    16.084220000    30.017042000    3
     2.951511000    14.801526000    28.833417000    1
     4.111524000    15.033321000    27.883330000    2
     1.663615000    14.765027000    28.046115000    2
     3.080427000    12.552902000    29.722969000    1
     2.466808000    11.732180000    28.605521000    2
     4.657181000    11.745719000    30.019237000    3
     5.428610000    11.903863000    31.559099000    1
     6.284087000    10.680711000    31.749255000    2
     1.978484000    12.457796000    31.846006000    1
     0.869442000    13.476494000    31.975682000    2
     3.906357000    12.724148000    33.186068000    1
     4.304248000    14.176088000    33.333882000    2
     4.043689000    12.010842000    34.509352000    2
    22.432690000    10.785358000    32.823982000    3
    23.941503000    11.404206000    33.171678000    5
    24.991014000    10.267757000    32.907628000    3
    24.197762000    12.694797000    32.315412000    3
    20.941083000     5.673227000    30.867446000    3
     1.489492000    10.788265000    32.058218000    3
     1.239278000    10.369352000    33.705736000    5
     0.000000000     9.402273000    33.841814000    3
     1.140223000    11.737850000    34.519268000    3
    21.992246000    16.344440000    38.057059000    1
    20.772980000    16.680630000    38.925692000    2
    23.202107000    16.271102000    38.969400000    2
    21.696578000    14.091585000    37.263232000    1
    22.094913000    13.336361000    38.513697000    2
    20.032885000    13.581602000    36.924812000    3
    19.392318000    13.744807000    35.303664000    1
    18.786013000    12.433080000    34.890981000    2
    22.965623000    13.798754000    35.268092000    1
    24.139485000    14.747861000    35.273115000    2
    21.158546000    14.500973000    33.890855000    1
    21.152392000    16.012484000    33.725982000    2
    21.010034000    13.844535000    32.532906000    2
     8.288470000     9.792276000    -4.228462000    4
     6.931834000    10.983674000    -4.144796000    1
     5.553253000    10.421799000    -4.282042000    2
     7.241057000    12.681815000    -4.079128000    4
     9.003388000    12.805426000    -3.992665000    1
    10.797318000    14.186233000    -4.105381000    1
    10.817086000    15.788198000    -4.111979000    3
    12.299510000    13.170749000    -4.127962000    4
    13.204029000    13.786634000    -4.125096000    2
    12.611135000    11.405124000    -4.171929000    1
    14.265380000    10.982392000    -4.186918000    4
    15.156133000    11.677661000    -4.219318000    2
    14.498066000     9.952918000    -4.256013000    2
    11.436205000    10.138041000    -4.178703000    4
     9.825444000    10.717972000    -4.143317000    1
    17.915701000    14.935587000    35.334456000    4
    18.170526000    16.697691000    35.355930000    1
    19.629019000    16.962230000    35.145650000    2
    16.455400000    18.076515000    35.305529000    1
    16.550472000    19.563153000    35.473119000    2
    14.643310000    16.758997000    35.407361000    1
    13.039805000    17.385541000    35.440763000    4
    12.138672000    16.768961000    35.397092000    2
    12.898979000    18.427520000    35.412330000    2
    14.802990000    15.039030000    35.391411000    4
    16.288286000    14.175661000    35.357108000    1
    16.410671000    12.583028000    35.255545000    3
     2.924636000     9.283506000    -5.649662000    3
     4.446682000     8.592519000    -6.787919000    1
     5.236320000     9.537325000    -7.674816000    2
     3.439213000     7.850582000    -7.654558000    2
     5.876674000     6.887806000    -5.886395000    1
     5.899604000     5.918347000    -7.044076000    2
     7.598008000     7.351243000    -5.673807000    3
     8.121087000     7.908330000    -4.118419000    1
     9.568603000     7.555382000    -3.913767000    2
     5.136063000     6.022421000    -3.782237000    1
     3.630260000     6.133321000    -3.609708000    2
     6.441537000     7.503800000    -2.476984000    1
     5.861550000     8.885027000    -2.226306000    2
     7.006095000     7.026122000    -1.170567000    2
    22.157640000    17.635100000    36.893362000    3
    22.593744000    19.241247000    38.955382000    3
    22.944949000    19.185388000    37.223610000    5
    24.497773000    19.045969000    36.977836000    3
    22.256296000    20.388561000    36.440208000    3
    23.590221000    12.209667000    34.813086000    3
     5.821622000     4.408622000    -3.663288000    3
     5.888436000     3.940051000    -1.919954000    5
     5.746543000     2.376045000    -1.837992000    3
     4.987344000     4.973249000    -1.103902000    3
    18.550471000    20.796309000     2.251419000    1
    17.336707000    20.329488000     3.060168000    2
    19.489252000    21.532071000     3.177300000    2
    19.715539000    18.817920000     1.516584000    1
    20.364852000    18.346976000     2.811030000    2
    18.531259000    17.529151000     1.201639000    3
    17.960487000    17.129581000     0.012315000    1
    18.258839000    15.694945000    39.190867000    2
    20.918209000    19.561913000    39.448310000    1
    20.790099000    21.064303000     0.050125000    2
    19.044042000    18.796854000    38.164350000    1
    18.083699000    19.967117000    38.008316000    2
    19.330155000    18.293689000    36.773195000    2
    11.229401000     7.482016000    -0.147201000    4
     9.440924000     7.670477000    -0.026477000    1
     8.658287000     6.401656000    -0.040301000    2
     8.718474000     9.240357000     0.050947000    4
    10.090389000    10.358958000     0.050717000    1
    10.766723000    12.508996000     0.168754000    1
     9.887291000    13.848879000     0.198701000    3
    12.574553000    12.531113000     0.050164000    4
    12.942868000    13.561718000     0.070403000    2
    13.841799000    11.262109000     0.005618000    1
    15.425102000    11.875196000     0.096831000    4
    15.732947000    12.978246000     0.027529000    2
    16.211092000    11.183942000    -0.016785000    2
    13.617426000     9.551966000    -0.063796000    4
    11.958858000     9.117808000    -0.008160000    1
    16.065754000    17.181734000     0.073330000    4
    15.259864000    18.773999000     0.164758000    1
    16.296480000    19.832084000    39.452040000    2
    13.065573000    18.965618000     0.072444000    1
    12.277814000    20.217216000     0.332956000    2
    12.333421000    16.843075000     0.180378000    1
    10.658024000    16.448820000     0.215693000    4
    10.295104000    15.418478000     0.216279000    2
     9.932727000    17.213745000     0.192994000    2
    13.457268000    15.526307000     0.152895000    4
    15.170813000    15.626073000     0.089375000    1
    16.159237000    14.360413000    39.458266000    3
     7.547172000     4.513588000    -1.568379000    3
     8.784391000     4.248967000    -2.789356000    1
     8.831104000     5.477378000    -3.685927000    2
     8.470199000     3.025703000    -3.623012000    2
    10.977167000     3.747986000    -1.916739000    1
    11.626502000     2.952248000    -3.026852000    2
    12.145124000     5.067404000    -1.610642000    3
    12.218030000     5.862282000    -0.073891000    1
    13.580165000     6.485668000     0.011602000    2
    10.805201000     2.634458000     0.181419000    1
     9.552020000     1.824357000     0.314711000    2
    11.032885000     4.558940000     1.143121000    1
     9.733516000     5.337194000     1.253704000    2
    11.630251000     4.490508000     2.510475000    2
    17.866795000    21.885557000     1.038632000    3
    17.561327000    23.602299000     1.350999000    5
    18.856080000    24.483190000     1.162241000    3
    16.333204000    24.320327000     0.601664000    3
    12.279091000     1.695371000     0.365236000    3
    12.634354000     1.403134000     1.657581000    5
    13.372921000     0.003895000     1.784573000    3
    11.305336000     1.655761000     2.517696000    3
    13.145135000    22.342418000     6.262411000    1
    12.409864000    21.261095000     7.041827000    2
    13.612433000    23.464601000     7.164143000    2
    15.275261000    21.456336000     5.545966000    1
    16.083095000    21.563243000     6.826084000    2
    15.264272000    19.714039000     5.196239000    3
    14.827480000    19.127121000     3.621723000    1
    15.829595000    18.104691000     3.183762000    2
    15.755057000    22.793460000     3.610483000    1
    14.875720000    24.012296000     3.681135000    2
    14.683015000    21.119775000     2.299939000    1
    13.217262000    21.477641000     2.111456000    2
    15.265012000    21.021229000     0.914464000    2
    15.048514000     7.479000000     3.329963000    4
    13.474079000     6.588228000     3.392013000    1
    13.568434000     5.099426000     3.301379000    2
    11.970705000     7.445920000     3.426746000    4
    12.432510000     9.154907000     3.322537000    1
    11.773422000    11.300475000     3.549555000    1
    10.273248000    11.843886000     3.581138000    3
    13.215244000    12.391066000     3.506941000    4
    12.909289000    13.437964000     3.555280000    2
    14.979255000    12.078714000     3.464272000    1
    15.932390000    13.484119000     3.539268000    4
    15.506606000    14.511714000     3.569394000    2
    16.982675000    13.390170000     3.508967000    2
    15.767290000    10.543790000     3.427703000    4
    14.677851000     9.232438000     3.350578000    1
    13.178321000    18.187719000     3.741795000    4
    11.583801000    19.016991000     3.780211000    1
    11.730631000    20.520075000     3.814376000    2
     9.707176000    17.875896000     3.754928000    1
     8.333337000    18.475296000     3.808028000    2
    10.320382000    15.709170000     3.682432000    1
     9.207783000    14.392036000     3.694138000    4
     9.538421000    13.356590000     3.620947000    2
     8.167453000    14.548635000     3.694374000    2
    12.001488000    15.307235000     3.653901000    4
    13.327293000    16.393504000     3.660761000    1
    14.868852000    15.949681000     3.600763000    3
    13.663076000     2.993386000     1.838519000    3
    14.862991000     3.427879000     0.647507000    1
    14.236479000     4.456571000    -0.275151000    2
    15.327450000     2.245427000    -0.168544000    2
    16.943290000     4.301099000     1.527324000    1
    17.909942000     4.026660000     0.391952000    2
    17.166586000     6.052874000     1.854276000    3
    16.774005000     6.694128000     3.411826000    1
    17.633374000     7.912565000     3.614299000    2
    17.436532000     3.257809000     3.624672000    1
    16.860057000     1.864969000     3.735158000    2
    16.544402000     4.952343000     5.008891000    1
    15.045934000     4.826730000     5.173543000    2
    17.184681000     5.300063000     6.330965000    2
    12.028675000    23.027783000     5.049887000    3
    10.781032000    23.936412000     7.118629000    3
    10.935852000    24.227001000     5.434587000    5
    11.641603000    25.606754000     5.187784000    3
     9.624552000    24.042690000     4.591374000    3
    17.317229000    23.412291000     3.032421000    3
    19.175218000     3.365378000     3.816718000    3
    19.675493000     3.242117000     5.455908000    5
    21.009602000     2.405991000     5.558955000    3
    18.433834000     2.665452000     6.274547000    3
    19.811279000     4.949824000     5.791583000    3
%endblock AtomicCoordinatesAndAtomicSpecies
%include ../../Defaults.fdf
************************** End of input data file *****************************

reinit: -----------------------------------------------------------------------
reinit: System Name: 
reinit: -----------------------------------------------------------------------
reinit: System Label: Periodic
reinit: -----------------------------------------------------------------------

initatom: Reading input for the pseudopotentials and atomic orbitals ----------
Species number:   1 Atomic number:   14 Label: Si
Species number:   2 Atomic number:    1 Label: H
Species number:   3 Atomic number:    8 Label: O
Species number:   4 Atomic number:    7 Label: N
Species number:   5 Atomic number:   15 Label: P

Ground state valence configuration:   3s02  3p02
Reading pseudopotential information in formatted form from Si.psf

Pseudopotential generated from a relativistic atomic calculation

Valence configuration for pseudopotential generation:
3s( 2.00) rc: 1.67
3p( 2.00) rc: 2.04
3d( 0.00) rc: 2.89
4f( 0.00) rc: 2.49
Ground state valence configuration:   1s01
Reading pseudopotential information in formatted form from H.psf

Pseudopotential generated from a relativistic atomic calculation

Valence configuration for pseudopotential generation:
1s( 1.00) rc: 0.01
2p( 0.00) rc: 0.60
3d( 0.00) rc: 1.99
4f( 0.00) rc: 2.49
Ground state valence configuration:   2s02  2p04
Reading pseudopotential information in formatted form from O.psf

Pseudopotential generated from a relativistic atomic calculation

Valence configuration for pseudopotential generation:
2s( 2.00) rc: 0.45
2p( 4.00) rc: 0.92
3d( 0.00) rc: 2.24
4f( 0.00) rc: 0.25
Ground state valence configuration:   2s02  2p03
Reading pseudopotential information in formatted form from N.psf

Pseudopotential generated from a relativistic atomic calculation

Valence configuration for pseudopotential generation:
2s( 2.00) rc: 0.94
2p( 3.00) rc: 0.59
3d( 0.00) rc: 3.46
4f( 0.00) rc: 2.47
Ground state valence configuration:   3s02  3p03
Reading pseudopotential information in formatted form from P.psf

Pseudopotential generated from a relativistic atomic calculation

Valence configuration for pseudopotential generation:
3s( 2.00) rc: 1.48
3p( 3.00) rc: 1.78
3d( 0.00) rc: 2.24
4f( 0.00) rc: 0.25
For Si, standard SIESTA heuristics set lmxkb to 3
 (one more than the basis l, including polarization orbitals).
Use PS.lmax or PS.KBprojectors blocks to override.
For H, standard SIESTA heuristics set lmxkb to 2
 (one more than the basis l, including polarization orbitals).
Use PS.lmax or PS.KBprojectors blocks to override.
For O, standard SIESTA heuristics set lmxkb to 3
 (one more than the basis l, including polarization orbitals).
Use PS.lmax or PS.KBprojectors blocks to override.
For N, standard SIESTA heuristics set lmxkb to 3
 (one more than the basis l, including polarization orbitals).
Use PS.lmax or PS.KBprojectors blocks to override.
For P, standard SIESTA heuristics set lmxkb to 3
 (one more than the basis l, including polarization orbitals).
Use PS.lmax or PS.KBprojectors blocks to override.

<basis_specs>
===============================================================================
Si                   Z=  14    Mass=  28.090        Charge= 0.17977+309
Lmxo=1 Lmxkb= 3    BasisType=split      Semic=F
L=0  Nsemic=0  Cnfigmx=3
          i=1  nzeta=2  polorb=0  (3s)
            splnorm:   0.28000    
               vcte:    0.0000    
               rinn:    0.0000    
               qcoe:    0.0000    
               qyuk:    0.0000    
               qwid:   0.10000E-01
                rcs:    0.0000      0.0000    
            lambdas:    1.0000      1.0000    
L=1  Nsemic=0  Cnfigmx=3
          i=1  nzeta=2  polorb=1  (3p)
            splnorm:   0.28000    
               vcte:    0.0000    
               rinn:    0.0000    
               qcoe:    0.0000    
               qyuk:    0.0000    
               qwid:   0.10000E-01
                rcs:    0.0000      0.0000    
            lambdas:    1.0000      1.0000    
-------------------------------------------------------------------------------
L=0  Nkbl=1  erefs: 0.17977+309
L=1  Nkbl=1  erefs: 0.17977+309
L=2  Nkbl=1  erefs: 0.17977+309
L=3  Nkbl=1  erefs: 0.17977+309
===============================================================================
</basis_specs>

atom: Called for Si                    (Z =  14)

read_vps: Pseudopotential generation method:
read_vps: ATM4.2.7  Troullier-Martins                       
Valence charge for ps generation:    4.00000

xc_check: Exchange-correlation functional:
xc_check: GGA Perdew, Burke & Ernzerhof 1996
V l=0 = -2*Zval/r beyond r=  2.7826
V l=1 = -2*Zval/r beyond r=  2.7826
V l=2 = -2*Zval/r beyond r=  2.9253
V l=3 = -2*Zval/r beyond r=  2.7826
All V_l potentials equal beyond r=  2.8530
This should be close to max(r_c) in ps generation
All pots = -2*Zval/r beyond r=  2.9253

VLOCAL1: 99.0% of the norm of Vloc inside      5.333 Ry
VLOCAL1: 99.9% of the norm of Vloc inside     12.154 Ry
atom: Maximum radius for 4*pi*r*r*local-pseudopot. charge    3.39869
atom: Maximum radius for r*vlocal+2*Zval:    2.96205
GHOST: No ghost state for L =  0
GHOST: No ghost state for L =  1
GHOST: No ghost state for L =  2
GHOST: No ghost state for L =  3

KBgen: Kleinman-Bylander projectors: 
   l= 0   rc=  3.075247   el= -0.794092   Ekb=  5.879390   kbcos=  0.167461
   l= 1   rc=  3.153101   el= -0.300068   Ekb=  2.642817   kbcos=  0.058301
   l= 2   rc=  3.273594   el=  0.001958   Ekb= -1.185135   kbcos= -0.104411
   l= 3   rc=  3.232927   el=  0.003046   Ekb= -0.497174   kbcos= -0.015889

KBgen: Total number of Kleinman-Bylander projectors:   16
atom: -------------------------------------------------------------------------

atom: SANKEY-TYPE ORBITALS:
atom: Selected multiple-zeta basis: split     

SPLIT: Orbitals with angular momentum L= 0

SPLIT: Basis orbitals for state 3s

SPLIT: PAO cut-off radius determined from an
SPLIT: energy shift=  0.002000 Ry

   izeta = 1
                 lambda =    1.000000
                     rc =    6.429618
                 energy =   -0.792283
                kinetic =    0.525293
    potential(screened) =   -1.317576
       potential(ionic) =   -3.744923

   izeta = 2
                 rmatch =    3.998416
              splitnorm =    0.280000
                 energy =   -0.583081
                kinetic =    1.069570
    potential(screened) =   -1.652651
       potential(ionic) =   -4.235185

SPLIT: Orbitals with angular momentum L= 1

SPLIT: Basis orbitals for state 3p

SPLIT: PAO cut-off radius determined from an
SPLIT: energy shift=  0.002000 Ry

   izeta = 1
                 lambda =    1.000000
                     rc =    8.464845
                 energy =   -0.298236
                kinetic =    0.785360
    potential(screened) =   -1.083596
       potential(ionic) =   -3.273779

   izeta = 2
                 rmatch =    4.587816
              splitnorm =    0.280000
                 energy =   -0.131871
                kinetic =    1.403687
    potential(screened) =   -1.535557
       potential(ionic) =   -4.015310

POLgen: Perturbative polarization orbital with L=  2

POLgen: Polarization orbital for state 3p

   izeta = 1
                     rc =    8.464845
                 energy =    0.321949
                kinetic =    1.055677
    potential(screened) =   -0.733728
       potential(ionic) =   -2.672950
atom: Total number of Sankey-type orbitals: 13

atm_pop: Valence configuration (for local Pseudopot. screening):
 3s( 2.00)                                                            
 3p( 2.00)                                                            
Vna: chval, zval:    4.00000   4.00000

Vna:  Cut-off radius for the neutral-atom potential:   8.464845

atom: _________________________________________________________________________

<basis_specs>
===============================================================================
H                    Z=   1    Mass=  1.0100        Charge= 0.17977+309
Lmxo=0 Lmxkb= 2    BasisType=split      Semic=F
L=0  Nsemic=0  Cnfigmx=1
          i=1  nzeta=2  polorb=1  (1s)
            splnorm:   0.62000    
               vcte:    0.0000    
               rinn:    0.0000    
               qcoe:    0.0000    
               qyuk:    0.0000    
               qwid:   0.10000E-01
                rcs:    0.0000      0.0000    
            lambdas:    1.0000      1.0000    
-------------------------------------------------------------------------------
L=0  Nkbl=1  erefs: 0.17977+309
L=1  Nkbl=1  erefs: 0.17977+309
L=2  Nkbl=1  erefs: 0.17977+309
===============================================================================
</basis_specs>

atom: Called for H                     (Z =   1)

read_vps: Pseudopotential generation method:
read_vps: ATM4.2.7  Troullier-Martins                       
Valence charge for ps generation:    1.00000

xc_check: Exchange-correlation functional:
xc_check: GGA Perdew, Burke & Ernzerhof 1996
V l=0 = -2*Zval/r beyond r=  0.0098
V l=1 = -2*Zval/r beyond r=  0.5817
V l=2 = -2*Zval/r beyond r=  1.9372
All V_l potentials equal beyond r=  1.9372
This should be close to max(r_c) in ps generation
All pots = -2*Zval/r beyond r=  1.9372

VLOCAL1: 99.0% of the norm of Vloc inside     11.567 Ry
VLOCAL1: 99.9% of the norm of Vloc inside     26.362 Ry
atom: Maximum radius for 4*pi*r*r*local-pseudopot. charge    2.25106
atom: Maximum radius for r*vlocal+2*Zval:    1.91306
GHOST: No ghost state for L =  0
GHOST: No ghost state for L =  1
GHOST: No ghost state for L =  2

KBgen: Kleinman-Bylander projectors: 
   l= 0   rc=  2.036604   el= -0.477180   Ekb= -6.081590   kbcos= -0.277285
   l= 1   rc=  2.195416   el=  0.001076   Ekb= -0.926943   kbcos= -0.034643
   l= 2   rc=  2.251056   el=  0.002010   Ekb= -0.130941   kbcos= -0.009788

KBgen: Total number of Kleinman-Bylander projectors:    9
atom: -------------------------------------------------------------------------

atom: SANKEY-TYPE ORBITALS:
atom: Selected multiple-zeta basis: split     

SPLIT: Orbitals with angular momentum L= 0

SPLIT: Basis orbitals for state 1s

SPLIT: PAO cut-off radius determined from an
SPLIT: energy shift=  0.002000 Ry

   izeta = 1
                 lambda =    1.000000
                     rc =    6.518340
                 energy =   -0.475305
                kinetic =    0.912139
    potential(screened) =   -1.387444
       potential(ionic) =   -1.907295

   izeta = 2
                 rmatch =    2.141150
              splitnorm =    0.620000
                 energy =    0.566467
                kinetic =    3.772856
    potential(screened) =   -3.206389
       potential(ionic) =   -3.759093

POLgen: Perturbative polarization orbital with L=  1

POLgen: Polarization orbital for state 1s

   izeta = 1
                     rc =    6.518340
                 energy =    0.533861
                kinetic =    1.121086
    potential(screened) =   -0.587225
       potential(ionic) =   -1.053027
atom: Total number of Sankey-type orbitals:  5

atm_pop: Valence configuration (for local Pseudopot. screening):
 1s( 1.00)                                                            
Vna: chval, zval:    1.00000   1.00000

Vna:  Cut-off radius for the neutral-atom potential:   6.518340

atom: _________________________________________________________________________

<basis_specs>
===============================================================================
O                    Z=   8    Mass=  16.000        Charge= 0.17977+309
Lmxo=1 Lmxkb= 3    BasisType=split      Semic=F
L=0  Nsemic=0  Cnfigmx=2
          i=1  nzeta=2  polorb=0  (2s)
            splnorm:   0.28000    
               vcte:    0.0000    
               rinn:    0.0000    
               qcoe:    0.0000    
               qyuk:    0.0000    
               qwid:   0.10000E-01
                rcs:    0.0000      0.0000    
            lambdas:    1.0000      1.0000    
L=1  Nsemic=0  Cnfigmx=2
          i=1  nzeta=2  polorb=1  (2p)
            splnorm:   0.28000    
               vcte:    0.0000    
               rinn:    0.0000    
               qcoe:    0.0000    
               qyuk:    0.0000    
               qwid:   0.10000E-01
                rcs:    0.0000      0.0000    
            lambdas:    1.0000      1.0000    
-------------------------------------------------------------------------------
L=0  Nkbl=1  erefs: 0.17977+309
L=1  Nkbl=1  erefs: 0.17977+309
L=2  Nkbl=1  erefs: 0.17977+309
L=3  Nkbl=1  erefs: 0.17977+309
===============================================================================
</basis_specs>

atom: Called for O                     (Z =   8)

read_vps: Pseudopotential generation method:
read_vps: ATM4.2.7  Troullier-Martins                       
Valence charge for ps generation:    6.00000

xc_check: Exchange-correlation functional:
xc_check: GGA Perdew, Burke & Ernzerhof 1996
V l=0 = -2*Zval/r beyond r=  1.1000
V l=1 = -2*Zval/r beyond r=  1.1000
V l=2 = -2*Zval/r beyond r=  2.2154
V l=3 = -2*Zval/r beyond r=  1.1000
All V_l potentials equal beyond r=  2.2154
This should be close to max(r_c) in ps generation
All pots = -2*Zval/r beyond r=  2.2154

VLOCAL1: 99.0% of the norm of Vloc inside      8.845 Ry
VLOCAL1: 99.9% of the norm of Vloc inside     20.157 Ry
atom: Maximum radius for 4*pi*r*r*local-pseudopot. charge    2.67231
atom: Maximum radius for r*vlocal+2*Zval:    2.32897
GHOST: No ghost state for L =  0
GHOST: No ghost state for L =  1
GHOST: No ghost state for L =  2
GHOST: No ghost state for L =  3

KBgen: Kleinman-Bylander projectors: 
   l= 0   rc=  2.243238   el= -1.759686   Ekb=**********   kbcos= -0.171774
   l= 1   rc=  2.328968   el= -0.663873   Ekb=-14.506792   kbcos= -0.519897
   l= 2   rc=  2.573941   el=  0.002031   Ekb= -1.137373   kbcos= -0.019581
   l= 3   rc=  2.606321   el=  0.003153   Ekb= -1.013546   kbcos= -0.003122

KBgen: Total number of Kleinman-Bylander projectors:   16
atom: -------------------------------------------------------------------------

atom: SANKEY-TYPE ORBITALS:
atom: Selected multiple-zeta basis: split     

SPLIT: Orbitals with angular momentum L= 0

SPLIT: Basis orbitals for state 2s

SPLIT: PAO cut-off radius determined from an
SPLIT: energy shift=  0.002000 Ry

   izeta = 1
                 lambda =    1.000000
                     rc =    4.243912
                 energy =   -1.758270
                kinetic =    3.286084
    potential(screened) =   -5.044353
       potential(ionic) =  -12.921184

   izeta = 2
                 rmatch =    2.187845
              splitnorm =    0.280000
                 energy =   -0.885018
                kinetic =    8.134434
    potential(screened) =   -9.019452
       potential(ionic) =  -17.710645

SPLIT: Orbitals with angular momentum L= 1

SPLIT: Basis orbitals for state 2p

SPLIT: PAO cut-off radius determined from an
SPLIT: energy shift=  0.002000 Ry

   izeta = 1
                 lambda =    1.000000
                     rc =    5.314825
                 energy =   -0.661986
                kinetic =    4.917472
    potential(screened) =   -5.579458
       potential(ionic) =  -13.236259

   izeta = 2
                 rmatch =    2.160663
              splitnorm =    0.280000
                 energy =   -0.068760
                kinetic =    9.183374
    potential(screened) =   -9.252135
       potential(ionic) =  -18.274251

POLgen: Perturbative polarization orbital with L=  2

POLgen: Polarization orbital for state 2p

   izeta = 1
                     rc =    5.314825
                 energy =    1.970580
                kinetic =    3.886128
    potential(screened) =   -1.915547
       potential(ionic) =   -7.749584
atom: Total number of Sankey-type orbitals: 13

atm_pop: Valence configuration (for local Pseudopot. screening):
 2s( 2.00)                                                            
 2p( 4.00)                                                            
Vna: chval, zval:    6.00000   6.00000

Vna:  Cut-off radius for the neutral-atom potential:   5.314825

atom: _________________________________________________________________________

<basis_specs>
===============================================================================
N                    Z=   7    Mass=  14.010        Charge= 0.17977+309
Lmxo=1 Lmxkb= 3    BasisType=split      Semic=F
L=0  Nsemic=0  Cnfigmx=2
          i=1  nzeta=2  polorb=0  (2s)
            splnorm:   0.28000    
               vcte:    0.0000    
               rinn:    0.0000    
               qcoe:    0.0000    
               qyuk:    0.0000    
               qwid:   0.10000E-01
                rcs:    0.0000      0.0000    
            lambdas:    1.0000      1.0000    
L=1  Nsemic=0  Cnfigmx=2
          i=1  nzeta=2  polorb=1  (2p)
            splnorm:   0.28000    
               vcte:    0.0000    
               rinn:    0.0000    
               qcoe:    0.0000    
               qyuk:    0.0000    
               qwid:   0.10000E-01
                rcs:    0.0000      0.0000    
            lambdas:    1.0000      1.0000    
-------------------------------------------------------------------------------
L=0  Nkbl=1  erefs: 0.17977+309
L=1  Nkbl=1  erefs: 0.17977+309
L=2  Nkbl=1  erefs: 0.17977+309
L=3  Nkbl=1  erefs: 0.17977+309
===============================================================================
</basis_specs>

atom: Called for N                     (Z =   7)

read_vps: Pseudopotential generation method:
read_vps: ATM4.2.7  Troullier-Martins                       
Valence charge for ps generation:    5.00000

xc_check: Exchange-correlation functional:
xc_check: GGA Perdew, Burke & Ernzerhof 1996
V l=0 = -2*Zval/r beyond r=  1.2889
V l=1 = -2*Zval/r beyond r=  1.2889
V l=2 = -2*Zval/r beyond r=  3.4178
V l=3 = -2*Zval/r beyond r=  2.4084
All V_l potentials equal beyond r=  3.3753
This should be close to max(r_c) in ps generation
All pots = -2*Zval/r beyond r=  3.4178

VLOCAL1: 99.0% of the norm of Vloc inside      3.810 Ry
VLOCAL1: 99.9% of the norm of Vloc inside      8.683 Ry
atom: Maximum radius for 4*pi*r*r*local-pseudopot. charge    4.02088
atom: Maximum radius for r*vlocal+2*Zval:    3.54838
GHOST: No ghost state for L =  0
GHOST: No ghost state for L =  1
GHOST: No ghost state for L =  2
GHOST: No ghost state for L =  3

KBgen: Kleinman-Bylander projectors: 
   l= 0   rc=  3.417763   el= -1.365098   Ekb= -4.433130   kbcos= -0.707855
   l= 1   rc=  3.375302   el= -0.521201   Ekb=-13.264039   kbcos= -0.535594
   l= 2   rc=  3.872880   el=  0.001991   Ekb= -0.641094   kbcos= -0.062456
   l= 3   rc=  3.970931   el=  0.003093   Ekb= -0.474517   kbcos= -0.018236

KBgen: Total number of Kleinman-Bylander projectors:   16
atom: -------------------------------------------------------------------------

atom: SANKEY-TYPE ORBITALS:
atom: Selected multiple-zeta basis: split     

SPLIT: Orbitals with angular momentum L= 0

SPLIT: Basis orbitals for state 2s

SPLIT: PAO cut-off radius determined from an
SPLIT: energy shift=  0.002000 Ry

   izeta = 1
                 lambda =    1.000000
                     rc =    4.730425
                 energy =   -1.363399
                kinetic =    1.245246
    potential(screened) =   -2.608645
       potential(ionic) =   -8.121105

   izeta = 2
                 rmatch =    2.531849
              splitnorm =    0.280000
                 energy =   -0.959908
                kinetic =    2.409435
    potential(screened) =   -3.369343
       potential(ionic) =   -9.427975

SPLIT: Orbitals with angular momentum L= 1

SPLIT: Basis orbitals for state 2p

SPLIT: PAO cut-off radius determined from an
SPLIT: energy shift=  0.002000 Ry

   izeta = 1
                 lambda =    1.000000
                     rc =    5.924108
                 energy =   -0.519262
                kinetic =    3.672940
    potential(screened) =   -4.192202
       potential(ionic) =   -9.518354

   izeta = 2
                 rmatch =    2.531849
              splitnorm =    0.280000
                 energy =   -0.104258
                kinetic =    6.807538
    potential(screened) =   -6.911796
       potential(ionic) =  -13.149920

POLgen: Perturbative polarization orbital with L=  2

POLgen: Polarization orbital for state 2p

   izeta = 1
                     rc =    5.924108
                 energy =    1.427508
                kinetic =    2.872379
    potential(screened) =   -1.444871
       potential(ionic) =   -5.563644
atom: Total number of Sankey-type orbitals: 13

atm_pop: Valence configuration (for local Pseudopot. screening):
 2s( 2.00)                                                            
 2p( 3.00)                                                            
Vna: chval, zval:    5.00000   5.00000

Vna:  Cut-off radius for the neutral-atom potential:   5.924108

atom: _________________________________________________________________________

<basis_specs>
===============================================================================
P                    Z=  15    Mass=  30.970        Charge= 0.17977+309
Lmxo=1 Lmxkb= 3    BasisType=split      Semic=F
L=0  Nsemic=0  Cnfigmx=3
          i=1  nzeta=2  polorb=0  (3s)
            splnorm:   0.28000    
               vcte:    0.0000    
               rinn:    0.0000    
               qcoe:    0.0000    
               qyuk:    0.0000    
               qwid:   0.10000E-01
                rcs:    0.0000      0.0000    
            lambdas:    1.0000      1.0000    
L=1  Nsemic=0  Cnfigmx=3
          i=1  nzeta=2  polorb=1  (3p)
            splnorm:   0.28000    
               vcte:    0.0000    
               rinn:    0.0000    
               qcoe:    0.0000    
               qyuk:    0.0000    
               qwid:   0.10000E-01
                rcs:    0.0000      0.0000    
            lambdas:    1.0000      1.0000    
-------------------------------------------------------------------------------
L=0  Nkbl=1  erefs: 0.17977+309
L=1  Nkbl=1  erefs: 0.17977+309
L=2  Nkbl=1  erefs: 0.17977+309
L=3  Nkbl=1  erefs: 0.17977+309
===============================================================================
</basis_specs>

atom: Called for P                     (Z =  15)

read_vps: Pseudopotential generation method:
read_vps: ATM4.2.7  Troullier-Martins                       
Valence charge for ps generation:    5.00000

xc_check: Exchange-correlation functional:
xc_check: GGA Perdew, Burke & Ernzerhof 1996
V l=0 = -2*Zval/r beyond r=  2.4397
V l=1 = -2*Zval/r beyond r=  2.4397
V l=2 = -2*Zval/r beyond r=  2.4397
V l=3 = -2*Zval/r beyond r=  2.4397
All V_l potentials equal beyond r=  2.2075
This should be close to max(r_c) in ps generation
All pots = -2*Zval/r beyond r=  2.4397

VLOCAL1: 99.0% of the norm of Vloc inside      8.907 Ry
VLOCAL1: 99.9% of the norm of Vloc inside     20.300 Ry
atom: Maximum radius for 4*pi*r*r*local-pseudopot. charge    2.62975
atom: Maximum radius for r*vlocal+2*Zval:    2.32072
GHOST: No ghost state for L =  0
GHOST: No ghost state for L =  1
GHOST: No ghost state for L =  2
GHOST: No ghost state for L =  3

KBgen: Kleinman-Bylander projectors: 
   l= 0   rc=  2.629745   el= -1.025737   Ekb=  5.887360   kbcos=  0.265547
   l= 1   rc=  2.764584   el= -0.404840   Ekb=  1.502174   kbcos=  0.278467
   l= 2   rc=  2.799360   el=  0.002048   Ekb= -2.109988   kbcos= -0.068680
   l= 3   rc=  2.942895   el=  0.003178   Ekb= -1.913209   kbcos= -0.004114

KBgen: Total number of Kleinman-Bylander projectors:   16
atom: -------------------------------------------------------------------------

atom: SANKEY-TYPE ORBITALS:
atom: Selected multiple-zeta basis: split     

SPLIT: Orbitals with angular momentum L= 0

SPLIT: Basis orbitals for state 3s

SPLIT: PAO cut-off radius determined from an
SPLIT: energy shift=  0.002000 Ry

   izeta = 1
                 lambda =    1.000000
                     rc =    5.708298
                 energy =   -1.023748
                kinetic =    0.687451
    potential(screened) =   -1.711199
       potential(ionic) =   -5.308789

   izeta = 2
                 rmatch =    3.505744
              splitnorm =    0.280000
                 energy =   -0.771256
                kinetic =    1.364152
    potential(screened) =   -2.135408
       potential(ionic) =   -5.960979

SPLIT: Orbitals with angular momentum L= 1

SPLIT: Basis orbitals for state 3p

SPLIT: PAO cut-off radius determined from an
SPLIT: energy shift=  0.002000 Ry

   izeta = 1
                 lambda =    1.000000
                     rc =    7.515201
                 energy =   -0.403147
                kinetic =    1.078092
    potential(screened) =   -1.481239
       potential(ionic) =   -4.764789

   izeta = 2
                 rmatch =    3.923200
              splitnorm =    0.280000
                 energy =   -0.178827
                kinetic =    1.915401
    potential(screened) =   -2.094227
       potential(ionic) =   -5.808379

POLgen: Perturbative polarization orbital with L=  2

POLgen: Polarization orbital for state 3p

   izeta = 1
                     rc =    7.515201
                 energy =    0.446507
                kinetic =    1.445101
    potential(screened) =   -0.998594
       potential(ionic) =   -3.899848
atom: Total number of Sankey-type orbitals: 13

atm_pop: Valence configuration (for local Pseudopot. screening):
 3s( 2.00)                                                            
 3p( 3.00)                                                            
Vna: chval, zval:    5.00000   5.00000

Vna:  Cut-off radius for the neutral-atom potential:   7.515201

atom: _________________________________________________________________________

prinput: Basis input ----------------------------------------------------------

PAO.BasisType split     

%block ChemicalSpeciesLabel
    1   14 Si                      # Species index, atomic number, species label
    2    1 H                       # Species index, atomic number, species label
    3    8 O                       # Species index, atomic number, species label
    4    7 N                       # Species index, atomic number, species label
    5   15 P                       # Species index, atomic number, species label
%endblock ChemicalSpeciesLabel

%block PAO.Basis                 # Define Basis set
Si                    2                    # Species label, number of l-shells
 n=3   0   2                         # n, l, Nzeta 
   6.430      3.998   
   1.000      1.000   
 n=3   1   2 P   1                   # n, l, Nzeta, Polarization, NzetaPol
   8.465      4.588   
   1.000      1.000   
H                     1                    # Species label, number of l-shells
 n=1   0   2 P   1                   # n, l, Nzeta, Polarization, NzetaPol
   6.518      2.141   
   1.000      1.000   
O                     2                    # Species label, number of l-shells
 n=2   0   2                         # n, l, Nzeta 
   4.244      2.188   
   1.000      1.000   
 n=2   1   2 P   1                   # n, l, Nzeta, Polarization, NzetaPol
   5.315      2.161   
   1.000      1.000   
N                     2                    # Species label, number of l-shells
 n=2   0   2                         # n, l, Nzeta 
   4.730      2.532   
   1.000      1.000   
 n=2   1   2 P   1                   # n, l, Nzeta, Polarization, NzetaPol
   5.924      2.532   
   1.000      1.000   
P                     2                    # Species label, number of l-shells
 n=3   0   2                         # n, l, Nzeta 
   5.708      3.506   
   1.000      1.000   
 n=3   1   2 P   1                   # n, l, Nzeta, Polarization, NzetaPol
   7.515      3.923   
   1.000      1.000   
%endblock PAO.Basis

prinput: ----------------------------------------------------------------------

Dumping basis to NetCDF file Si.ion.nc
Dumping basis to NetCDF file H.ion.nc
Dumping basis to NetCDF file O.ion.nc
Dumping basis to NetCDF file N.ion.nc
Dumping basis to NetCDF file P.ion.nc
coor:   Atomic-coordinates input format  =     Cartesian coordinates
coor:                                          (in Angstroms)

siesta: Atomic coordinates (Bohr) and species
siesta:     14.44915  40.15501  19.42457  1        1
siesta:     14.45976  37.68956  20.93996  2        2
siesta:     13.71024  42.28795  21.16994  2        3
siesta:     18.74517  40.95278  18.13591  1        4
siesta:     19.94610  41.78793  20.61413  2        5
siesta:     20.28151  38.02012  17.55876  3        6
siesta:     20.68360  36.77082  14.55670  1        7
siesta:     23.43693  36.37669  14.00841  2        8
siesta:     18.27856  43.59570  14.41959  1        9
siesta:     15.52419  44.33821  14.55461  2       10
siesta:     18.48036  39.78656  11.97614  1       11
siesta:     15.78892  38.83927  11.61588  2       12
siesta:     19.61719  39.98387   9.37302  2       13
siesta:     33.47042  18.58429  14.44062  4       14
siesta:     31.97543  15.52900  14.61860  1       15
siesta:     33.72311  13.31931  14.61934  2       16
siesta:     28.71833  15.26000  14.69073  4       17
siesta:     27.61861  18.41915  14.68312  1       18
siesta:     24.23337  21.00856  14.84489  1       19
siesta:     21.28520  20.31264  14.83182  3       20
siesta:     25.36691  24.23430  14.66381  4       21
siesta:     23.77425  25.55424  14.67377  2       22
siesta:     28.44037  25.66483  14.65613  1       23
siesta:     28.37082  28.87166  14.84465  4       24
siesta:     26.61426  30.13198  14.68136  2       25
siesta:     30.11059  29.82176  14.67398  2       26
siesta:     31.33453  24.16180  14.58128  4       27
siesta:     31.03160  20.93544  14.66192  1       28
siesta:     19.36449  33.43936  14.62423  4       29
siesta:     16.01316  33.03652  14.71998  1       30
siesta:     14.81324  35.56336  14.30501  2       31
siesta:     14.25940  29.26487  14.48555  1       32
siesta:     11.51747  28.67228  14.91348  2       33
siesta:     17.55024  26.59176  14.74835  1       34
siesta:     17.16645  23.36152  14.78874  4       35
siesta:     18.76124  22.05112  14.81825  2       36
siesta:     15.34084  22.56823  14.70070  2       37
siesta:     20.61515  27.73661  14.77116  4       38
siesta:     21.54761  30.84454  14.68903  1       39
siesta:     24.43867  31.78302  14.51094  3       40
siesta:     37.74242  12.18046   9.50650  1       41
siesta:     35.62952  13.06671   7.76946  2       42
siesta:     39.74641  10.84057   7.96807  2       43
siesta:     40.01151  15.74135  11.22622  1       44
siesta:     41.89055  16.39162   9.17341  2       45
siesta:     38.41058  18.66493  11.78516  3       46
siesta:     36.98161  19.29216  14.66151  1       47
siesta:     36.75115  22.11297  14.83350  2       48
siesta:     41.78884  14.69443  15.22615  1       49
siesta:     42.41194  11.94414  15.47687  2       50
siesta:     38.46742  16.32249  17.73483  1       51
siesta:     36.24170  14.51703  17.88421  2       52
siesta:     38.91710  17.32479  20.33501  2       53
siesta:     12.12485  39.65763  17.07748  3       54
siesta:      8.86646  40.22156  17.59826  5       55
siesta:      8.14687  43.09200  17.24120  3       56
siesta:      6.82996  38.51263  16.12695  3       57
siesta:     44.40042  16.70278  15.64299  3       58
siesta:     45.08300  17.12118  18.85943  5       59
siesta:     48.03893  17.52697  19.16773  3       60
siesta:     43.73969  14.91554  20.44309  3       61
siesta:      8.04327  31.51420  26.81561  1       62
siesta:      9.45519  29.50155  28.30933  2       63
siesta:      6.31477  33.05993  28.48999  2       64
siesta:     11.02264  34.73147  25.54562  1       65
siesta:     11.30066  36.22174  27.97975  2       66
siesta:     14.12355  33.58947  24.94753  3       67
siesta:     14.94984  32.45088  21.98352  1       68
siesta:     17.43087  33.57408  21.21727  2       69
siesta:      9.04032  36.46782  21.85241  1       70
siesta:      6.30541  35.69341  21.92061  2       71
siesta:     11.37456  33.49603  19.41095  1       72
siesta:      9.80032  31.12652  19.00647  2       73
siesta:     11.98393  34.48022  16.81112  2       74
siesta:     35.78489  25.31775  21.85808  4       75
siesta:     36.34670  21.94560  21.96935  1       76
siesta:     39.05467  21.15181  21.85414  2       77
siesta:     33.85136  19.83002  21.96762  4       78
siesta:     31.11995  21.75573  21.72024  1       79
siesta:     26.87540  21.96978  22.05574  1       80
siesta:     24.94023  19.65678  22.05948  3       81
siesta:     25.87235  25.23540  21.97077  4       82
siesta:     23.81402  25.36825  22.01690  2       83
siesta:     27.56820  28.16635  21.94413  1       84
siesta:     25.68559  30.76645  22.05816  4       85
siesta:     23.58489  30.67424  22.06768  2       86
siesta:     26.53212  32.57106  22.02973  2       87
siesta:     30.80388  28.57398  21.94952  4       88
siesta:     32.43154  25.79266  21.82477  1       89
siesta:     15.54727  28.91400  22.20435  4       90
siesta:     13.04335  26.61816  22.20840  1       91
siesta:     10.46820  27.85004  22.22225  2       92
siesta:     13.85806  22.54852  22.15640  1       93
siesta:     11.90419  20.49582  22.20182  2       94
siesta:     18.10402  22.23771  22.11248  1       95
siesta:     19.72324  19.41060  22.15520  4       96
siesta:     21.77823  19.32924  22.06230  2       97
siesta:     18.77319  17.66448  22.12482  2       98
siesta:     19.90476  24.96341  22.11378  4       99
siesta:     18.83235  28.01970  22.11962  1      100
siesta:     20.61865  30.47085  22.05961  3      101
siesta:     42.91658  19.97387  19.16877  3      102
siesta:     42.97055  22.39781  16.93204  1      103
siesta:     40.77844  21.95978  15.13663  2      104
siesta:     45.40432  22.46679  15.44425  2      105
siesta:     42.72693  26.64710  18.61305  1      106
siesta:     43.88650  28.19804  16.50138  2      107
siesta:     39.74730  28.17245  19.17291  3      108
siesta:     38.28951  27.87360  22.08283  1      109
siesta:     36.67289  30.18503  22.44218  2      110
siesta:     44.80930  26.82682  22.62501  1      111
siesta:     46.90509  24.90176  22.87006  2      112
siesta:     41.16615  26.32349  25.15736  1      113
siesta:     40.41424  23.57972  25.43669  2      114
siesta:     40.90663  27.67144  27.65800  2      115
siesta:      6.15644  29.98727  24.47312  3      116
siesta:      3.30519  28.81782  25.13017  5      117
siesta:      1.32191  30.96540  24.63118  3      118
siesta:      2.82094  26.37895  23.51206  3      119
siesta:      8.97517  39.64780  20.77580  3      120
siesta:     45.73336  29.98178  23.02603  3      121
siesta:     46.20620  30.77341  26.13939  5      122
siesta:     48.54810  32.60093  26.39654  3      123
siesta:     46.39339  28.18732  27.67674  3      124
siesta:      6.98876  19.48213  34.36220  1      125
siesta:      9.29284  18.84682  36.00368  2      126
siesta:      4.70245  19.62071  36.08628  2      127
siesta:      7.54749  23.73941  32.86209  1      128
siesta:      6.79475  25.16657  35.22512  2      129
siesta:     10.69142  24.70314  32.22256  3      130
siesta:     11.90191  24.39472  29.15904  1      131
siesta:     13.04766  26.87353  28.37918  2      132
siesta:      5.14934  24.29278  29.09181  1      133
siesta:      2.93106  22.49922  29.10131  2      134
siesta:      8.56422  22.96578  26.48921  1      135
siesta:      8.57585  20.10943  26.17765  2      136
siesta:      8.84487  24.20626  23.92306  2      137
siesta:     32.88515  31.86393  29.09833  4      138
siesta:     35.44882  29.61251  29.25643  1      139
siesta:     38.05396  30.67430  28.99708  2      140
siesta:     34.86448  26.40349  29.38053  4      141
siesta:     31.53415  26.16990  29.54392  1      142
siesta:     28.14411  23.56055  29.33092  1      143
siesta:     28.10676  20.53327  29.31845  3      144
siesta:     25.30538  25.47954  29.28824  4      145
siesta:     23.59609  24.31568  29.29366  2      146
siesta:     24.71650  28.81608  29.20516  1      147
siesta:     21.59042  29.61493  29.17683  4      148
siesta:     19.90714  28.30106  29.11561  2      149
siesta:     21.15071  31.56036  29.04626  2      150
siesta:     26.93679  31.21053  29.19236  4      151
siesta:     29.98069  30.11461  29.25923  1      152
siesta:     14.69231  22.14447  29.21723  4      153
siesta:     14.21077  18.81458  29.25781  1      154
siesta:     11.45461  18.31467  28.86043  2      155
siesta:     17.45188  16.20898  29.16256  1      156
siesta:     17.27222  13.39964  29.47926  2      157
siesta:     20.87624  18.69872  29.35500  1      158
siesta:     23.90643  17.51473  29.41812  4      159
siesta:     25.60932  18.67990  29.33559  2      160
siesta:     24.17255  15.54567  29.36439  2      161
siesta:     20.57449  21.94899  29.32486  4      162
siesta:     17.76768  23.58053  29.26003  1      163
siesta:     17.53641  26.59017  29.06811  3      164
siesta:     43.02133  32.82536  26.41265  3      165
siesta:     40.14508  34.13114  24.26165  1      166
siesta:     38.65288  32.34571  22.58566  2      167
siesta:     42.04892  35.53320  22.62394  2      168
siesta:     37.44279  37.35258  25.96529  1      169
siesta:     37.39946  39.18459  23.77758  2      170
siesta:     34.18994  36.47681  26.36702  3      171
siesta:     33.20146  35.42407  29.30628  1      172
siesta:     30.46605  36.09105  29.69302  2      173
siesta:     38.84234  38.98792  29.94157  1      174
siesta:     41.68790  38.77835  30.26760  2      175
siesta:     36.37535  36.18852  32.40814  1      176
siesta:     37.47137  33.57838  32.88185  2      177
siesta:     35.30849  37.09120  34.87691  2      178
siesta:      6.67621  17.04313  32.16313  3      179
siesta:      5.85209  14.00795  36.05979  3      180
siesta:      5.18841  14.11351  32.78721  5      181
siesta:      2.25400  14.37697  32.32277  3      182
siesta:      6.48978  11.83984  31.30679  3      183
siesta:      3.96902  27.29572  28.23198  3      184
siesta:     37.54682  42.03756  30.16635  3      185
siesta:     37.42056  42.92303  33.46078  5      186
siesta:     37.68870  45.87858  33.61566  3      187
siesta:     39.12338  40.97057  35.00289  3      188
siesta:     13.49643  11.07667  42.09940  1      189
siesta:     15.79012  11.95883  43.62771  2      190
siesta:     11.72239   9.68628  43.84906  2      191
siesta:     11.29477  14.81528  40.71076  1      192
siesta:     10.06775  15.70524  43.15691  2      193
siesta:     13.53274  17.25071  40.11560  3      194
siesta:     14.60768  17.99842  37.11224  1      195
siesta:     14.04388  20.70949  36.50479  2      196
siesta:      9.01839  13.40198  36.99128  1      197
siesta:      9.26049  10.56287  37.18369  2      198
siesta:     12.56006  14.84773  34.56495  1      199
siesta:     14.37484  12.63626  34.27009  2      200
siesta:     12.01938  15.79858  31.93605  2      201
siesta:     27.32760  36.22968  36.81080  4      202
siesta:     30.70733  35.87355  37.03893  1      203
siesta:     32.18630  38.27127  37.01281  2      204
siesta:     32.07256  32.90690  37.18524  4      205
siesta:     29.48002  30.79305  37.18481  1      206
siesta:     28.20193  26.73007  37.40786  1      207
siesta:     29.86382  24.19805  37.46446  3      208
siesta:     24.78563  26.68827  37.18376  4      209
siesta:     24.08961  24.74071  37.22201  2      210
siesta:     22.39088  29.08634  37.09958  1      211
siesta:     19.39887  27.92778  37.27195  4      212
siesta:     18.81712  25.84331  37.14099  2      213
siesta:     17.91356  29.23406  37.05725  2      214
siesta:     22.81488  32.31805  36.96841  4      215
siesta:     25.94912  33.13849  37.07354  1      216
siesta:     18.18821  17.89987  37.22754  4      217
siesta:     19.71112  14.89092  37.40031  1      218
siesta:     17.75220  12.89143  36.99834  2      219
siesta:     23.85773  14.52881  37.22587  1      220
siesta:     25.34638  12.16364  37.71816  2      221
siesta:     25.24130  18.53984  37.42983  1      222
siesta:     28.40734  19.28488  37.49657  4      223
siesta:     29.09316  21.23194  37.49767  2      224
siesta:     29.77796  17.83938  37.45367  2      225
siesta:     23.11754  21.02817  37.37790  4      226
siesta:     19.87940  20.83964  37.25786  1      227
siesta:     18.01155  23.23140  37.01010  3      228
siesta:     34.28600  41.83920  34.12516  3      229
siesta:     31.94800  42.33927  31.81784  1      230
siesta:     31.85972  40.01791  30.12357  2      231
siesta:     32.54173  44.65090  30.24246  2      232
siesta:     27.80425  43.28598  33.46685  1      233
siesta:     26.57718  44.78971  31.36904  2      234
siesta:     25.59713  40.79264  34.04529  3      235
siesta:     25.45936  39.29054  36.94933  1      236
siesta:     22.88529  38.11251  37.11089  2      237
siesta:     28.12922  45.39025  37.43180  1      238
siesta:     30.49739  46.92112  37.68368  2      239
siesta:     27.70262  41.76086  40.00502  1      240
siesta:     30.15807  40.29018  40.21399  2      241
siesta:     26.57376  41.89018  42.58894  2      242
siesta:     14.78839   9.01829  39.80756  3      243
siesta:     15.36565   5.77411  40.39785  5      244
siesta:     12.91892   4.10947  40.04115  3      245
siesta:     17.68646   4.41724  38.98181  3      246
siesta:     25.34397  47.16486  37.77916  3      247
siesta:     24.67628  47.72447  40.97720  5      248
siesta:     23.28059  50.36865  41.21718  3      249
siesta:     27.18776  47.24708  42.60259  3      250
siesta:     22.73227  44.71933  41.31913  3      251
siesta:     15.82692   6.13318  43.57528  3      252
siesta:     23.80476   6.93087  49.48857  1      253
siesta:     25.22590   8.88769  51.08797  2      254
siesta:     22.93152   4.83938  51.24412  2      255
siesta:     19.96257   8.90375  48.06300  1      256
siesta:     18.41720   8.69756  50.46231  2      257
siesta:     20.11757  12.18411  47.40179  3      258
siesta:     20.75271  13.19924  44.31767  1      259
siesta:     18.79812  15.11940  43.57069  2      260
siesta:     18.53873   6.81879  44.33502  1      261
siesta:     19.46569   4.12093  44.33866  2      262
siesta:     20.89465   9.55946  41.66402  1      263
siesta:     23.57519   8.59172  41.29783  2      264
siesta:     19.76785  10.23333  39.11864  2      265
siesta:     20.90684  35.47097  44.13087  4      266
siesta:     23.90191  37.11081  44.21309  1      267
siesta:     23.78910  39.92053  43.94072  2      268
siesta:     26.71980  35.46482  44.28335  4      269
siesta:     25.80449  32.25641  44.48489  1      270
siesta:     27.09237  28.17723  44.26553  1      271
siesta:     29.92344  27.10664  44.19573  3      272
siesta:     24.31817  26.16587  44.29588  4      273
siesta:     24.82743  24.16165  44.30096  2      274
siesta:     20.98034  26.75325  44.28409  1      275
siesta:     19.16060  24.08883  44.31107  4      276
siesta:     19.81820  22.05738  44.24633  2      277
siesta:     17.17965  24.34032  44.22332  2      278
siesta:     19.48946  29.65850  44.28859  4      279
siesta:     21.56106  32.14430  44.29552  1      280
siesta:     23.82196  15.05197  44.29713  4      281
siesta:     26.78667  13.46078  44.28027  1      282
siesta:     26.30531  10.69772  43.90875  2      283
siesta:     30.34042  15.61465  44.09377  1      284
siesta:     32.92544  14.48670  44.35903  2      285
siesta:     29.17617  19.68505  44.28984  1      286
siesta:     31.32575  22.12782  44.29152  4      287
siesta:     30.81135  24.12606  44.20946  2      288
siesta:     33.26544  21.70412  44.19678  2      289
siesta:     26.01873  20.51303  44.32565  4      290
siesta:     23.52501  18.43322  44.32796  1      291
siesta:     20.61412  19.24423  44.19653  3      292
siesta:     21.15049  43.04176  39.24578  1      293
siesta:     22.28039  41.01969  37.55525  2      294
siesta:     17.23827  41.61369  41.04511  1      295
siesta:     15.45344  42.18753  38.89353  2      296
[...]
siesta:    274    0.016752   -0.046099   -0.028970
siesta:    275    0.003418   -0.075776   -0.104487
siesta:    276    0.146967   -0.078829    0.015991
siesta:    277    0.023599    0.058240    0.093560
siesta:    278   -0.092932    0.016753   -0.009414
siesta:    279   -0.070180   -0.046971   -0.037481
siesta:    280   -0.036391   -0.120526    0.011990
siesta:    281    0.055569    0.069653    0.265765
siesta:    282   -0.129611   -0.081204    0.041016
siesta:    283    0.024244   -0.119469   -0.046383
siesta:    284    0.131425   -0.076760   -0.206795
siesta:    285    0.047535   -0.049499    0.049285
siesta:    286   -0.012551    0.166172   -0.041177
siesta:    287   -0.124457   -0.162742    0.042417
siesta:    288    0.074042    0.038473   -0.013619
siesta:    289    0.147390    0.053362   -0.013586
siesta:    290   -0.070900   -0.000008    0.043639
siesta:    291    0.079318   -0.163807   -0.039024
siesta:    292    1.988857    4.251817   -2.867565
siesta:    293   -1.324967   -0.441874    0.435895
siesta:    294   -0.004965    0.932123   -0.315449
siesta:    295   -0.813005   -0.248528   -0.064025
siesta:    296   -0.143955   -0.003033   -0.130573
siesta:    297   -0.279897   -1.471785   -2.205153
siesta:    298    0.237521   -0.172364    0.292428
siesta:    299   -0.073457   -0.092121   -0.108762
siesta:    300   -0.131548    0.287473    0.536787
siesta:    301   -0.035136   -0.038643   -0.151816
siesta:    302   -0.043031    0.052056    0.030246
siesta:    303    0.183956    0.097958   -0.120917
siesta:    304   -0.037174    0.029026    0.056619
siesta:    305    0.034801    0.711487   -0.686360
siesta:    306    3.686450    3.730927    2.232983
siesta:    307   -0.097294    0.307457    0.060726
siesta:    308    2.462707   -4.633658    0.848108
siesta:    309   -4.176573    3.809580    0.704941
siesta:    310   -0.298323   -1.995772    0.098879
siesta:    311   -0.064422    0.125203    0.317534
siesta:    312    2.853474   -3.803734    0.516675
siesta:    313   -5.067066   -4.301933    0.455100
siesta:    314    0.224879    0.006571    0.074464
siesta:    315   -0.051497   -0.065221   -0.004118
siesta:    316   -0.011666   -0.029880   -0.026910
siesta:    317    0.001623    0.030180    0.124998
siesta:    318    0.127653   -0.121001   -0.092259
siesta:    319    4.214143    2.370682    1.999598
siesta:    320    0.065898   -0.198254   -0.057034
siesta:    321   -0.060133   -0.000532   -0.008069
siesta:    322    0.223981   -0.043507    0.014786
siesta:    323    0.212800    0.013860    0.026718
siesta:    324    0.214245    0.066439   -0.050966
siesta:    325   -0.007779    0.023775   -0.021861
siesta:    326   -0.042279   -0.099791   -0.088226
siesta:    327   -0.027545    0.049430   -0.017538
siesta:    328   -0.064212   -0.018928   -0.002916
siesta:    329   -0.099820    0.129272   -0.037776
siesta:    330    0.093444    0.111593    0.028167
siesta:    331    0.055738    0.182799   -0.094979
siesta:    332    0.175325   -0.072390    0.010240
siesta:    333    3.304662   -3.445068    2.578297
siesta:    334    0.025488    0.050114    0.024737
siesta:    335   -0.055111   -0.016921    0.066335
siesta:    336    0.022305    0.026233   -0.065166
siesta:    337    0.217210    0.034525    0.059903
siesta:    338   -0.057675    0.088801    0.063096
siesta:    339   -0.242141   -0.111179    0.014656
siesta:    340   -0.030038   -0.092651   -0.096171
siesta:    341   -0.111521   -0.131078    0.076631
siesta:    342    0.041468   -0.072031   -0.047309
siesta:    343    0.063895   -0.097252    0.006069
siesta:    344   -0.015396   -0.059750   -0.033486
siesta:    345    0.014359    0.006088   -0.285961
siesta:    346   -0.055674   -0.052489    0.053354
siesta:    347   -0.107544   -0.107740    0.055059
siesta:    348    0.063785   -0.099517    0.068406
siesta:    349    0.018899    0.079136   -0.014452
siesta:    350    0.028434    0.128584    0.017440
siesta:    351   -0.003241    0.016588   -0.006738
siesta:    352   -0.006379   -0.102572    0.001608
siesta:    353   -3.807192    3.502621    2.598774
siesta:    354    0.859286    3.605541    1.214481
siesta:    355   -0.173111    0.099859    0.161683
siesta:    356    0.006875    0.014259   -0.092782
siesta:    357   -0.041049    0.042654   -0.028038
siesta:    358    0.021564   -0.071337    0.069219
siesta:    359   -0.087226   -0.017467   -0.131947
siesta:    360    4.329625    0.117977    1.553619
siesta:    361    0.029257    0.060865   -0.130247
siesta:    362    0.041064   -0.184541    0.146152
siesta:    363   -0.157269   -0.094519    0.020104
siesta:    364   -0.111413    0.278044    0.124254
siesta:    365   -0.046445    0.056232   -0.015074
siesta:    366    0.168979    0.147509   -0.022774
siesta:    367    0.047402   -0.056258    0.125025
siesta:    368    3.881433    2.180786    1.446514
siesta:    369    0.024939    0.173006    0.081177
siesta:    370   -4.168673   -2.746532    2.161402
siesta:    371   -4.299889    2.318462    2.919103
siesta:    372   -1.121762    3.904478    3.262992
siesta:    373   -0.115396    0.079052    0.025319
siesta:    374    1.812060    2.203929    0.522622
siesta:    375   -3.378054   -3.820591   -0.096479
siesta:    376    0.029616   -0.126184    0.089675
siesta:    377    0.215907   -0.141894   -0.138977
siesta:    378   -0.039089    0.136078   -0.014846
siesta:    379    0.054875   -0.080268    0.018122
siesta:    380    0.041762    0.028351   -0.111121
siesta:    381   -0.769614   -0.864248   -2.234092
siesta:    382    0.223832   -0.056748   -0.091812
siesta:    383    0.055697    0.022468    0.020580
siesta:    384    0.202168    0.268851    0.015860
siesta:    385   -0.062092    0.079831    0.066968
siesta:    386    0.261362    0.164136   -0.051020
siesta:    387   -0.003984   -0.048310    0.036085
siesta:    388    0.071207    0.030934    0.025514
siesta:    389   -0.130791   -0.115013    0.032213
siesta:    390    0.031019    0.030109   -0.095147
siesta:    391   -0.118686   -0.066909    0.060929
siesta:    392   -0.147388    0.063498    0.040215
siesta:    393    0.095948    0.124649   -0.403489
siesta:    394    0.006352   -0.088660    0.004103
siesta:    395   -2.776665   -2.221044   -1.694296
siesta:    396   -0.057973    0.010629   -0.027940
siesta:    397    0.039885   -0.008659    0.067862
siesta:    398    0.091973   -0.045570   -0.014298
siesta:    399    0.020015    0.100019    0.003100
siesta:    400    0.088610   -0.061336    0.019107
siesta:    401    0.093372   -0.115720    0.030474
siesta:    402   -0.085506   -0.041520   -0.030438
siesta:    403    0.051340   -0.088511   -0.116857
siesta:    404    0.282169    0.106624   -0.154832
siesta:    405   -0.045136   -0.470022    0.117171
siesta:    406   -0.204321    0.039964   -0.008373
siesta:    407   -0.048017    0.042143   -0.068498
siesta:    408   -0.158962   -0.061266   -0.024151
siesta:    409   -0.198737   -0.326964   -0.058358
siesta:    410   -0.007489    0.008987    0.075371
siesta:    411    0.065018   -0.126737   -0.056108
siesta:    412    0.083087    0.078490   -0.052662
siesta:    413    0.123574    0.195399   -0.107346
siesta:    414   -0.012374   -0.173776    0.321061
siesta:    415    3.810433    2.528077   -2.062605
siesta:    416   -4.445917   -2.530257    0.603164
siesta:    417   -0.127641    0.127122    0.170623
siesta:    418   -0.033775   -0.050808   -0.089391
siesta:    419   -0.128324   -0.068643   -0.042669
siesta:    420   -0.011619   -0.096296    0.005223
siesta:    421   -0.016615   -0.074807   -0.020342
siesta:    422    1.563655   -1.992991    0.614736
siesta:    423    0.151419    0.112517   -0.125737
siesta:    424   -0.006130   -0.107746    0.049935
siesta:    425    0.453056    0.801887   -0.322248
siesta:    426   -0.055982   -0.076341    0.099474
siesta:    427   -0.047610   -0.046875   -0.120679
siesta:    428    0.036174    0.164420    0.043984
siesta:    429   -0.037989   -0.091197   -0.043663
siesta:    430   -2.710249   -0.062549   -3.128924
siesta:    431    0.081436    1.205888    0.651058
siesta:    432    2.177707    4.554278   -2.188514
siesta:    433    3.740974   -0.955962   -2.844835
siesta:    434   -1.118727    2.664076   -1.001145
siesta:    435    3.048547    0.160601   -2.326820
siesta:    436   -3.916504    1.496284    0.126207
siesta:    437    2.016821    1.197009   -1.535661
siesta:    438    5.582586   -4.879867   -2.336694
siesta:    439    0.180774   -0.106411    0.145582
siesta:    440    0.054923   -0.001901    0.031583
siesta:    441    0.024807   -0.058015   -0.051965
siesta:    442    0.024377   -0.190356    0.006130
siesta:    443   -0.070471   -0.056055    0.007710
siesta:    444   -2.822317    0.111089    1.400476
siesta:    445   -0.103820   -0.015841   -0.083545
siesta:    446    0.014612    0.115220    0.090521
siesta:    447    0.532380   -0.443206   -0.744046
siesta:    448   -0.092366    0.024830   -0.039159
siesta:    449    0.099370   -0.019413    0.240371
siesta:    450    0.030029   -0.136789   -0.033618
siesta:    451    0.168553    0.070670    0.161856
siesta:    452   -0.015322   -0.179942   -0.039616
siesta:    453    0.085156    0.147129   -0.124402
siesta:    454    0.081497    0.030221   -0.012675
siesta:    455   -0.110795   -0.189625    0.005439
siesta:    456    0.440785   -0.246123    0.171909
siesta:    457   -0.842511    1.017869    0.058479
siesta:    458    2.157835    1.850963   -3.499900
siesta:    459    1.412887   -0.189867    0.017289
siesta:    460   -0.931620   -0.509534   -0.024088
siesta:    461   -1.443892    0.199081   -0.013349
siesta:    462    2.349246    1.028214   -0.036695
siesta:    463   -2.018191   -1.521397    0.045794
siesta:    464    0.189107    0.160568    0.016854
siesta:    465    1.111878    0.208271   -0.048419
siesta:    466   -0.507173    0.601676    0.171406
siesta:    467    0.354490    0.777132    0.258267
siesta:    468    0.400328   -0.551563    0.128197
siesta:    469    0.032923    0.130425   -0.017589
siesta:    470   -0.071410    0.385869   -0.007541
siesta:    471    0.059816    0.042047    0.045363
siesta:    472    0.379170   -1.439527   -0.057213
siesta:    473   -1.186427   -0.468811   -0.009121
siesta:    474    1.126522    0.853400    0.080504
siesta:    475   -0.306548    0.072394   -0.002487
siesta:    476    0.011023    1.143956    0.085689
siesta:    477   -0.387411   -1.340789   -0.203788
siesta:    478    1.122061    3.160556   -1.493195
siesta:    479    5.386693    1.689226   -1.541916
siesta:    480   -2.368731    0.425524    1.401660
siesta:    481   -0.187211    0.321175    0.196695
siesta:    482    0.157593   -0.055328   -0.046513
siesta:    483    0.093831   -0.201718    0.174526
siesta:    484    0.074729    0.009423   -0.078944
siesta:    485    3.420869    3.345218    3.108463
siesta:    486   -0.044177    0.085454    0.112980
siesta:    487    0.055166    0.011077   -0.075361
siesta:    488   -0.096081   -0.021252    0.098794
siesta:    489    0.235990   -0.073004   -0.067722
siesta:    490   -0.013116   -0.052733   -0.010168
siesta:    491   -0.103356    0.004000   -0.095579
siesta:    492   -0.119517   -0.056724   -0.182021
siesta:    493   -0.090786    5.155970   -0.159548
siesta:    494    1.427196    2.831977    0.540081
siesta:    495    0.719762   -0.034139   -1.270995
siesta:    496   -3.236458    2.354543    0.712848
siesta:    497   -2.757956    2.253776   -1.115702
siesta:    498    0.690338   -0.226619    2.013586
siesta:    499    2.257194    4.480496    1.878533
siesta:    500   -0.207829   -0.159838    0.111030
siesta:    501   -0.952068    4.905987   -2.427866
siesta:    502    1.997389   -1.763709    0.744987
siesta:    503   -0.363093    0.910789   -0.231391
siesta:    504    0.124279   -0.184862   -0.082559
siesta:    505    0.072773   -0.121994   -0.055826
siesta:    506    0.354197    0.703168    0.706325
siesta:    507    0.070345   -0.016927   -0.095958
siesta:    508    8.577634    5.354707   13.696420
siesta:    509   -6.569839   -6.385288  -17.006043
siesta:    510   -0.047580    0.099621   -0.033523
siesta:    511    1.336970    0.663500    0.390131
siesta:    512    0.074370    0.199036   -0.023425
siesta:    513   -0.223688   -0.439555   -0.333173
siesta:    514   -0.021945    0.034419   -0.003728
siesta:    515    0.112216    0.209543   -0.392502
siesta:    516    0.163693    0.010787   -0.020736
siesta:    517   -0.102103    0.045953   -0.108392
siesta:    518   -0.020826    0.184506   -0.085570
siesta:    519    0.123306   -0.003688    0.074221
siesta:    520    0.106520   -0.115087   -0.173599
siesta:    521   -0.404839    0.049508    0.088012
siesta:    522   -3.959053   -1.243234   -1.650140
siesta:    523    0.419918   -0.077441   -0.122201
siesta:    524   -0.053887    0.074757    0.059129
siesta:    525   -1.323981   -0.472543   -0.092557
siesta:    526    1.195978    2.167365   -0.174236
siesta:    527   -0.772390   -1.865825    0.153343
siesta:    528    0.235230    0.053566    0.119600
siesta:    529    0.786584    0.771504   -0.378360
siesta:    530   -0.445557    0.117760    0.579450
siesta:    531   -0.733326    0.808772    0.499043
siesta:    532    0.202682    0.722208    0.075950
siesta:    533   -0.049629   -0.015280    0.071013
siesta:    534   -0.257851   -0.182104   -0.271176
siesta:    535    0.056567    0.004812   -0.020644
siesta:    536   -0.267720    0.017584   -0.095160
siesta:    537   -0.110784    0.069061    0.072368
siesta:    538   -0.013927    0.092092   -0.056998
siesta:    539    0.047403   -0.088205   -0.076141
siesta:    540   -0.456541    0.181986   -0.013213
siesta:    541    0.576040   -1.818695   -0.019078
siesta:    542   -2.778026    3.564149    1.196335
siesta:    543   -3.406519    2.648596   -1.381074
siesta:    544   -0.056645   -0.183708    0.100910
siesta:    545   -0.019248   -0.106826    0.012548
siesta:    546    0.031037    0.042426    0.033552
siesta:    547    0.066215   -0.184202   -0.330342
siesta:    548    0.034432    0.035405   -0.077227
siesta:    549   -2.367883   -2.017235    1.790360
siesta:    550    1.233110    1.735619   -2.353628
siesta:    551   -0.021647   -0.036595    0.264079
siesta:    552   -1.221972   -1.486497   -1.458325
siesta:    553    0.056193    0.007933    0.004972
siesta:    554   -1.064113    0.296988    4.183758
siesta:    555    0.024280   -0.266491    0.019021
siesta:    556   -0.209035    0.089193    0.277077
siesta:    557   -3.276801    2.264159   -3.606540
siesta:    558   -0.055791    0.763972   -0.380048
siesta:    559   -3.765785    2.192521    2.384390
siesta:    560   -0.448198   -2.202900   -0.714940
siesta:    561   -1.846673    0.999672  -20.200426
siesta:    562    4.969906   -3.964987   16.824261
siesta:    563   -1.946041    1.196964   -1.352219
siesta:    564    0.484246    2.585763    2.482833
siesta:    565    0.352699    0.408196   -0.185257
siesta:    566    0.058272    0.402485   -0.116285
siesta:    567   -0.083546   -0.142992    0.018228
siesta:    568    0.005734    0.071494    0.044219
siesta:    569   -0.133096    0.008287   -0.070620
siesta:    570   -3.618575   -1.929853    1.339036
siesta:    571   -0.246263    0.183119   -0.174781
siesta:    572   -0.048607    0.035832    0.069311
siesta:    573   -0.184027    0.267779   -0.076692
siesta:    574   -0.084097   -0.052653    0.110462
siesta:    575   -0.326802    0.237231    0.185142
siesta:    576    0.050945    0.009398    0.081871
siesta:    577    0.154309    0.009133   -0.214832
siesta:    578   -0.063034    0.117995   -0.080406
siesta:    579   -0.093374    0.028277   -0.072045
siesta:    580   -0.021647    0.075587   -0.019975
siesta:    581    0.202966   -0.172456    0.086507
siesta:    582   -0.296834    0.124663   -0.530559
siesta:    583   -0.173067   -0.272829    0.186989
siesta:    584   -0.009761   -0.593751   -0.537574
siesta:    585    0.196917    0.063481    0.018349
siesta:    586    0.009982   -0.096352   -0.093756
siesta:    587   -0.057949   -0.211480    0.012706
siesta:    588   -0.004478    0.030731   -0.021735
siesta:    589    0.006677    0.117280    0.014802
siesta:    590   -0.114015    0.028489    0.068163
siesta:    591   -0.023285    0.148073   -0.078479
siesta:    592   -0.042321   -0.202129    0.040762
siesta:    593    0.038318    0.017760    0.101753
siesta:    594    0.204980    0.180754    0.008476
siesta:    595    0.203039   -0.409010   -0.215665
siesta:    596    0.018154    0.014849    0.024972
siesta:    597    0.139544   -0.089875   -0.045705
siesta:    598    0.081318    0.010372   -0.022132
siesta:    599    0.063040    0.041926    0.047358
siesta:    600    0.012873    0.115716    0.057496
siesta:    601   -0.000609    0.071414    0.091622
siesta:    602    0.010483    0.113377    0.039933
siesta:    603    0.035076    0.125992   -0.017492
siesta:    604    4.162816    3.163107    2.885219
siesta:    605   -3.638261    2.803734    3.162092
siesta:    606    0.139428   -0.054247    0.477710
siesta:    607    0.131982   -0.228375   -0.024146
siesta:    608    0.037375   -0.082024   -0.014814
siesta:    609    0.025442   -0.200647    0.038394
siesta:    610    0.016755    0.031737    0.104071
siesta:    611   -2.872508   -4.006989    0.756133
siesta:    612   -0.225710    0.123642   -0.100372
siesta:    613   -0.587252    0.233778   -0.230515
siesta:    614   -0.080545   -0.048783   -0.029822
siesta:    615    0.115971    0.164935   -0.023275
siesta:    616    0.014961   -0.084667   -0.065769
siesta:    617   -0.005212    0.014421    0.048354
siesta:    618   -0.095191   -0.041514   -0.179951
siesta:    619   -1.237586   -2.021349    2.761377
siesta:    620    2.774060    9.760390   -4.022139
siesta:    621    0.264499    1.743892   -2.172591
siesta:    622    3.611372    0.457831    0.908253
siesta:    623   -4.537229    2.379686    0.089558
siesta:    624   -1.744115    2.316774    1.005262
siesta:    625    4.017300    1.608159   -2.640801
siesta:    626   -0.008531   -0.283544   -0.041240
siesta:    627   -4.277818   -0.780673    1.282936
siesta:    628    0.042141   -0.042818   -2.443996
siesta:    629    1.916155    1.920920    4.538807
siesta: ----------------------------------------
siesta:    Tot  -43.965974   64.832478  -31.597883

siesta: Stress tensor (static) (eV/Ang**3):
siesta:     0.000386   -0.000337   -0.000148
siesta:    -0.000341    0.000841   -0.000013
siesta:    -0.000145   -0.000015    0.000036

siesta: Constrained stress tensor (static) (eV/Ang**3):
siesta:     0.000164   -0.000339   -0.000147
siesta:    -0.000339    0.000619   -0.000014
siesta:    -0.000147   -0.000014   -0.000186

siesta: Cell volume =      74251.244003 Ang**3

siesta: Pressure (static):
siesta:                Solid            Molecule  Units
siesta:          -0.00000459         -0.00000216  Ry/Bohr**3
siesta:          -0.00042123         -0.00019870  eV/Ang**3
siesta:          -0.67489119         -0.31835297  kBar
(Free)E+ p_basis*V_orbitals  =     -100780.200557
(Free)Eharris+ p_basis*V_orbitals  =     -100779.480905
     spin moment: S , {S} =   20.86425   0.00939   0.00520  20.86425

siesta: Electric dipole (a.u.)  =    3.358829    2.938013  -13.438504
siesta: Electric dipole (Debye) =    8.537297    7.467689  -34.157295

cite: Please see "Periodic.bib" for an exhaustive BiBTeX file.
cite: Please clearly indicate Siesta version in published work: v4.1.5-1-g384057250
cite: This calculation has made use of the following articles
cite: which are encouraged to be cited in a published work.
        Primary SIESTA paper
          DOI: www.doi.org/10.1088/0953-8984/14/11/302
        Spin-orbit coupling (on-site approximation)
          DOI: www.doi.org/10.1088/0953-8984/19/19/489001


WARNING: alloc-realloc-dealloc name mismatch
         Name: atomlist isa
         Size:             -2516. Bytes
         Node:     0
         Subsequent mismatches will not be reported
>> End of run:  22-OCT-2023   4:29:18
Job completed
