Siesta Version  : v4.1.5-1-g384057250
Architecture    : gcc
Compiler version: GNU Fortran (Debian 12.2.0-14) 12.2.0
Compiler flags  : mpifort -O2 -fPIC -ftree-vectorize -fallow-argument-mismatch
PP flags        : -DFC_HAVE_ABORT -DMPI -DSIESTA__FLOOK -DSIESTA__METIS -DSIESTA__MUMPS -DCDF -DNCDF -DNCDF_4 -DNCDF_PARALLEL -DSIESTA__MRRR -DSIESTA__ELPA
Libraries       : libncdf.a libfdict.a  -lflookall -ldl -lnetcdff -lnetcdf -lz -lscalapack-openmpi -lopenblas -lmetis -lzmumps -lcmumps -ldmumps -lmumps_common -lpord -lsmumps -lesmumps -lscotch -lscotcherr -fopenmp -lelpa
PARALLEL version
NetCDF support
NetCDF-4 support
NetCDF-4 MPI-IO support
METIS ordering support
Lua support

* Running on 32 nodes in parallel
>> Start of run:  16-OCT-2023  20:51:18

                           ***********************       
                           *  WELCOME TO SIESTA  *       
                           ***********************       

reinit: Reading from standard input
reinit: Dumped input in INPUT_TMP.92557
************************** Dump of input data file ****************************
# mpirun -np 4 siesta-4.1.5 < AT.fdf > AT.out &
SystemLabel      AT
NumberOfAtoms    30
NumberOfSpecies  4
%block ChemicalSpeciesLabel
    1    1  H
    2    7  N
    3   14  Si
    4    8  O
%endblock ChemicalSpeciesLabel
############################################
# This overrides Defaults.fdf configuration
############################################
MD.TypeOfRun                Verlet # CG, Verlet
MD.Steps                    0
MaxSCFIterations            300
AtomicCoordinatesFormat NotScaledCartesianAng
%block AtomicCoordinatesAndAtomicSpecies
    2.28494382 -5.19529124 0.0  1  1  H
    1.37433094 -4.6647107 0.0  2  2  N
    -0.21830245 -5.49458215 0.0  3  3  Si
    -0.17484108 -6.98516892 0.0  1  4  H
    -1.66171682 -4.58600741 0.0  2  5  N
    -1.09026419 -2.87456374 0.0  3  6  Si
    -1.53038332 -0.70765692 0.0  3  7  Si
    -3.14415959 -0.09186471 0.0  2  8  N
    -3.40268075 0.95848335 0.0  1  9  H
    -3.95073599 -0.76720972 0.0  1  10  H
    -0.17836637 0.41349951 0.0  2  11  N
    1.49520211 -0.0473996 0.0  3  12  Si
    2.45603905 1.10727302 0.0  1  13  H
    2.30451743 -1.58574382 0.0  2  14  N
    1.10725559 -2.84610319 0.0  3  15  Si
    0.23329863703658144 9.96352820086516 0.0  1  16  H
    -0.5754120429634186 9.271322320865158 0.0  2  17  N
    -2.2320018829634187 9.984442420865157 0.0  3  18  Si
    -2.1351367129634187 11.495167630865158 0.0  1  19  H
    -3.9581582329634184 8.641394290865158 0.0  3  20  Si
    -6.312612482963419 8.633407360865158 0.0  3  21  Si
    -6.875030602963419 9.367897010865157 -1.20183078  1  22  H
    -6.612426232963419 7.154316230865158 -0.08618332  1  23  H
    -6.875143062963419 9.198239820865158 1.28814761  1  24  H
    -3.0287675929634186 6.570823060865158 0.0  3  25  Si
    -3.9782359529634186 5.282286930865158 0.0  4  26  O
    -1.2378227229634187 6.3970875908651585 0.0  2  27  N
    -0.9068313629634186 5.364730610865158 0.0  1  28  H
    0.0706354970365814 7.591634010865158 0.0  3  29  Si
    1.6365724270365813 7.324387160865158 0.0  4  30  O
%endblock AtomicCoordinatesAndAtomicSpecies
%include ../../../../Defaults.fdf
************************** End of input data file *****************************

reinit: -----------------------------------------------------------------------
reinit: System Name: 
reinit: -----------------------------------------------------------------------
reinit: System Label: AT
reinit: -----------------------------------------------------------------------

initatom: Reading input for the pseudopotentials and atomic orbitals ----------
Species number:   1 Atomic number:    1 Label: H
Species number:   2 Atomic number:    7 Label: N
Species number:   3 Atomic number:   14 Label: Si
Species number:   4 Atomic number:    8 Label: O

Ground state valence configuration:   1s01
Reading pseudopotential information in formatted form from H.psf

Pseudopotential generated from a relativistic atomic calculation

Valence configuration for pseudopotential generation:
1s( 1.00) rc: 0.01
2p( 0.00) rc: 0.60
3d( 0.00) rc: 1.99
4f( 0.00) rc: 2.49
Ground state valence configuration:   2s02  2p03
Reading pseudopotential information in formatted form from N.psf

Pseudopotential generated from a relativistic atomic calculation

Valence configuration for pseudopotential generation:
2s( 2.00) rc: 0.94
2p( 3.00) rc: 0.59
3d( 0.00) rc: 3.46
4f( 0.00) rc: 2.47
Ground state valence configuration:   3s02  3p02
Reading pseudopotential information in formatted form from Si.psf

Pseudopotential generated from a relativistic atomic calculation

Valence configuration for pseudopotential generation:
3s( 2.00) rc: 1.67
3p( 2.00) rc: 2.04
3d( 0.00) rc: 2.89
4f( 0.00) rc: 2.49
Ground state valence configuration:   2s02  2p04
Reading pseudopotential information in formatted form from O.psf

Pseudopotential generated from a relativistic atomic calculation

Valence configuration for pseudopotential generation:
2s( 2.00) rc: 0.45
2p( 4.00) rc: 0.92
3d( 0.00) rc: 2.24
4f( 0.00) rc: 0.25
For H, standard SIESTA heuristics set lmxkb to 2
 (one more than the basis l, including polarization orbitals).
Use PS.lmax or PS.KBprojectors blocks to override.
For N, standard SIESTA heuristics set lmxkb to 3
 (one more than the basis l, including polarization orbitals).
Use PS.lmax or PS.KBprojectors blocks to override.
For Si, standard SIESTA heuristics set lmxkb to 3
 (one more than the basis l, including polarization orbitals).
Use PS.lmax or PS.KBprojectors blocks to override.
For O, standard SIESTA heuristics set lmxkb to 3
 (one more than the basis l, including polarization orbitals).
Use PS.lmax or PS.KBprojectors blocks to override.

<basis_specs>
===============================================================================
H                    Z=   1    Mass=  1.0100        Charge= 0.17977+309
Lmxo=0 Lmxkb= 2    BasisType=split      Semic=F
L=0  Nsemic=0  Cnfigmx=1
          i=1  nzeta=2  polorb=1  (1s)
            splnorm:   0.62000    
               vcte:    0.0000    
               rinn:    0.0000    
               qcoe:    0.0000    
               qyuk:    0.0000    
               qwid:   0.10000E-01
                rcs:    0.0000      0.0000    
            lambdas:    1.0000      1.0000    
-------------------------------------------------------------------------------
L=0  Nkbl=1  erefs: 0.17977+309
L=1  Nkbl=1  erefs: 0.17977+309
L=2  Nkbl=1  erefs: 0.17977+309
===============================================================================
</basis_specs>

atom: Called for H                     (Z =   1)

read_vps: Pseudopotential generation method:
read_vps: ATM4.2.7  Troullier-Martins                       
Valence charge for ps generation:    1.00000

xc_check: Exchange-correlation functional:
xc_check: GGA Perdew, Burke & Ernzerhof 1996
V l=0 = -2*Zval/r beyond r=  0.0098
V l=1 = -2*Zval/r beyond r=  0.5817
V l=2 = -2*Zval/r beyond r=  1.9372
All V_l potentials equal beyond r=  1.9372
This should be close to max(r_c) in ps generation
All pots = -2*Zval/r beyond r=  1.9372

VLOCAL1: 99.0% of the norm of Vloc inside     11.567 Ry
VLOCAL1: 99.9% of the norm of Vloc inside     26.362 Ry
atom: Maximum radius for 4*pi*r*r*local-pseudopot. charge    2.25106
atom: Maximum radius for r*vlocal+2*Zval:    1.91306
GHOST: No ghost state for L =  0
GHOST: No ghost state for L =  1
GHOST: No ghost state for L =  2

KBgen: Kleinman-Bylander projectors: 
   l= 0   rc=  2.036604   el= -0.477180   Ekb= -6.081590   kbcos= -0.277285
   l= 1   rc=  2.195416   el=  0.001076   Ekb= -0.926943   kbcos= -0.034643
   l= 2   rc=  2.251056   el=  0.002010   Ekb= -0.130941   kbcos= -0.009788

KBgen: Total number of Kleinman-Bylander projectors:    9
atom: -------------------------------------------------------------------------

atom: SANKEY-TYPE ORBITALS:
atom: Selected multiple-zeta basis: split     

SPLIT: Orbitals with angular momentum L= 0

SPLIT: Basis orbitals for state 1s

SPLIT: PAO cut-off radius determined from an
SPLIT: energy shift=  0.002000 Ry

   izeta = 1
                 lambda =    1.000000
                     rc =    6.518340
                 energy =   -0.475305
                kinetic =    0.912139
    potential(screened) =   -1.387444
       potential(ionic) =   -1.907295

   izeta = 2
                 rmatch =    2.141150
              splitnorm =    0.620000
                 energy =    0.566467
                kinetic =    3.772856
    potential(screened) =   -3.206389
       potential(ionic) =   -3.759093

POLgen: Perturbative polarization orbital with L=  1

POLgen: Polarization orbital for state 1s

   izeta = 1
                     rc =    6.518340
                 energy =    0.533861
                kinetic =    1.121086
    potential(screened) =   -0.587225
       potential(ionic) =   -1.053027
atom: Total number of Sankey-type orbitals:  5

atm_pop: Valence configuration (for local Pseudopot. screening):
 1s( 1.00)                                                            
Vna: chval, zval:    1.00000   1.00000

Vna:  Cut-off radius for the neutral-atom potential:   6.518340

atom: _________________________________________________________________________

<basis_specs>
===============================================================================
N                    Z=   7    Mass=  14.010        Charge= 0.17977+309
Lmxo=1 Lmxkb= 3    BasisType=split      Semic=F
L=0  Nsemic=0  Cnfigmx=2
          i=1  nzeta=2  polorb=0  (2s)
            splnorm:   0.28000    
               vcte:    0.0000    
               rinn:    0.0000    
               qcoe:    0.0000    
               qyuk:    0.0000    
               qwid:   0.10000E-01
                rcs:    0.0000      0.0000    
            lambdas:    1.0000      1.0000    
L=1  Nsemic=0  Cnfigmx=2
          i=1  nzeta=2  polorb=1  (2p)
            splnorm:   0.28000    
               vcte:    0.0000    
               rinn:    0.0000    
               qcoe:    0.0000    
               qyuk:    0.0000    
               qwid:   0.10000E-01
                rcs:    0.0000      0.0000    
            lambdas:    1.0000      1.0000    
-------------------------------------------------------------------------------
L=0  Nkbl=1  erefs: 0.17977+309
L=1  Nkbl=1  erefs: 0.17977+309
L=2  Nkbl=1  erefs: 0.17977+309
L=3  Nkbl=1  erefs: 0.17977+309
===============================================================================
</basis_specs>

atom: Called for N                     (Z =   7)

read_vps: Pseudopotential generation method:
read_vps: ATM4.2.7  Troullier-Martins                       
Valence charge for ps generation:    5.00000

xc_check: Exchange-correlation functional:
xc_check: GGA Perdew, Burke & Ernzerhof 1996
V l=0 = -2*Zval/r beyond r=  1.2889
V l=1 = -2*Zval/r beyond r=  1.2889
V l=2 = -2*Zval/r beyond r=  3.4178
V l=3 = -2*Zval/r beyond r=  2.4084
All V_l potentials equal beyond r=  3.3753
This should be close to max(r_c) in ps generation
All pots = -2*Zval/r beyond r=  3.4178

VLOCAL1: 99.0% of the norm of Vloc inside      3.810 Ry
VLOCAL1: 99.9% of the norm of Vloc inside      8.683 Ry
atom: Maximum radius for 4*pi*r*r*local-pseudopot. charge    4.02088
atom: Maximum radius for r*vlocal+2*Zval:    3.54838
GHOST: No ghost state for L =  0
GHOST: No ghost state for L =  1
GHOST: No ghost state for L =  2
GHOST: No ghost state for L =  3

KBgen: Kleinman-Bylander projectors: 
   l= 0   rc=  3.417763   el= -1.365098   Ekb= -4.433130   kbcos= -0.707855
   l= 1   rc=  3.375302   el= -0.521201   Ekb=-13.264039   kbcos= -0.535594
   l= 2   rc=  3.872880   el=  0.001991   Ekb= -0.641094   kbcos= -0.062456
   l= 3   rc=  3.970931   el=  0.003093   Ekb= -0.474517   kbcos= -0.018236

KBgen: Total number of Kleinman-Bylander projectors:   16
atom: -------------------------------------------------------------------------

atom: SANKEY-TYPE ORBITALS:
atom: Selected multiple-zeta basis: split     

SPLIT: Orbitals with angular momentum L= 0

SPLIT: Basis orbitals for state 2s

SPLIT: PAO cut-off radius determined from an
SPLIT: energy shift=  0.002000 Ry

   izeta = 1
                 lambda =    1.000000
                     rc =    4.730425
                 energy =   -1.363399
                kinetic =    1.245246
    potential(screened) =   -2.608645
       potential(ionic) =   -8.121105

   izeta = 2
                 rmatch =    2.531849
              splitnorm =    0.280000
                 energy =   -0.959908
                kinetic =    2.409435
    potential(screened) =   -3.369343
       potential(ionic) =   -9.427975

SPLIT: Orbitals with angular momentum L= 1

SPLIT: Basis orbitals for state 2p

SPLIT: PAO cut-off radius determined from an
SPLIT: energy shift=  0.002000 Ry

   izeta = 1
                 lambda =    1.000000
                     rc =    5.924108
                 energy =   -0.519262
                kinetic =    3.672940
    potential(screened) =   -4.192202
       potential(ionic) =   -9.518354

   izeta = 2
                 rmatch =    2.531849
              splitnorm =    0.280000
                 energy =   -0.104258
                kinetic =    6.807538
    potential(screened) =   -6.911796
       potential(ionic) =  -13.149920

POLgen: Perturbative polarization orbital with L=  2

POLgen: Polarization orbital for state 2p

   izeta = 1
                     rc =    5.924108
                 energy =    1.427508
                kinetic =    2.872379
    potential(screened) =   -1.444871
       potential(ionic) =   -5.563644
atom: Total number of Sankey-type orbitals: 13

atm_pop: Valence configuration (for local Pseudopot. screening):
 2s( 2.00)                                                            
 2p( 3.00)                                                            
Vna: chval, zval:    5.00000   5.00000

Vna:  Cut-off radius for the neutral-atom potential:   5.924108

atom: _________________________________________________________________________

<basis_specs>
===============================================================================
Si                   Z=  14    Mass=  28.090        Charge= 0.17977+309
Lmxo=1 Lmxkb= 3    BasisType=split      Semic=F
L=0  Nsemic=0  Cnfigmx=3
          i=1  nzeta=2  polorb=0  (3s)
            splnorm:   0.28000    
               vcte:    0.0000    
               rinn:    0.0000    
               qcoe:    0.0000    
               qyuk:    0.0000    
               qwid:   0.10000E-01
                rcs:    0.0000      0.0000    
            lambdas:    1.0000      1.0000    
L=1  Nsemic=0  Cnfigmx=3
          i=1  nzeta=2  polorb=1  (3p)
            splnorm:   0.28000    
               vcte:    0.0000    
               rinn:    0.0000    
               qcoe:    0.0000    
               qyuk:    0.0000    
               qwid:   0.10000E-01
                rcs:    0.0000      0.0000    
            lambdas:    1.0000      1.0000    
-------------------------------------------------------------------------------
L=0  Nkbl=1  erefs: 0.17977+309
L=1  Nkbl=1  erefs: 0.17977+309
L=2  Nkbl=1  erefs: 0.17977+309
L=3  Nkbl=1  erefs: 0.17977+309
===============================================================================
</basis_specs>

atom: Called for Si                    (Z =  14)

read_vps: Pseudopotential generation method:
read_vps: ATM4.2.7  Troullier-Martins                       
Valence charge for ps generation:    4.00000

xc_check: Exchange-correlation functional:
xc_check: GGA Perdew, Burke & Ernzerhof 1996
V l=0 = -2*Zval/r beyond r=  2.7826
V l=1 = -2*Zval/r beyond r=  2.7826
V l=2 = -2*Zval/r beyond r=  2.9253
V l=3 = -2*Zval/r beyond r=  2.7826
All V_l potentials equal beyond r=  2.8530
This should be close to max(r_c) in ps generation
All pots = -2*Zval/r beyond r=  2.9253

VLOCAL1: 99.0% of the norm of Vloc inside      5.333 Ry
VLOCAL1: 99.9% of the norm of Vloc inside     12.154 Ry
atom: Maximum radius for 4*pi*r*r*local-pseudopot. charge    3.39869
atom: Maximum radius for r*vlocal+2*Zval:    2.96205
GHOST: No ghost state for L =  0
GHOST: No ghost state for L =  1
GHOST: No ghost state for L =  2
GHOST: No ghost state for L =  3

KBgen: Kleinman-Bylander projectors: 
   l= 0   rc=  3.075247   el= -0.794092   Ekb=  5.879390   kbcos=  0.167461
   l= 1   rc=  3.153101   el= -0.300068   Ekb=  2.642817   kbcos=  0.058301
   l= 2   rc=  3.273594   el=  0.001958   Ekb= -1.185135   kbcos= -0.104411
   l= 3   rc=  3.232927   el=  0.003046   Ekb= -0.497174   kbcos= -0.015889

KBgen: Total number of Kleinman-Bylander projectors:   16
atom: -------------------------------------------------------------------------

atom: SANKEY-TYPE ORBITALS:
atom: Selected multiple-zeta basis: split     

SPLIT: Orbitals with angular momentum L= 0

SPLIT: Basis orbitals for state 3s

SPLIT: PAO cut-off radius determined from an
SPLIT: energy shift=  0.002000 Ry

   izeta = 1
                 lambda =    1.000000
                     rc =    6.429618
                 energy =   -0.792283
                kinetic =    0.525293
    potential(screened) =   -1.317576
       potential(ionic) =   -3.744923

   izeta = 2
                 rmatch =    3.998416
              splitnorm =    0.280000
                 energy =   -0.583081
                kinetic =    1.069570
    potential(screened) =   -1.652651
       potential(ionic) =   -4.235185

SPLIT: Orbitals with angular momentum L= 1

SPLIT: Basis orbitals for state 3p

SPLIT: PAO cut-off radius determined from an
SPLIT: energy shift=  0.002000 Ry

   izeta = 1
                 lambda =    1.000000
                     rc =    8.464845
                 energy =   -0.298236
                kinetic =    0.785360
    potential(screened) =   -1.083596
       potential(ionic) =   -3.273779

   izeta = 2
                 rmatch =    4.587816
              splitnorm =    0.280000
                 energy =   -0.131871
                kinetic =    1.403687
    potential(screened) =   -1.535557
       potential(ionic) =   -4.015310

POLgen: Perturbative polarization orbital with L=  2

POLgen: Polarization orbital for state 3p

   izeta = 1
                     rc =    8.464845
                 energy =    0.321949
                kinetic =    1.055677
    potential(screened) =   -0.733728
       potential(ionic) =   -2.672950
atom: Total number of Sankey-type orbitals: 13

atm_pop: Valence configuration (for local Pseudopot. screening):
 3s( 2.00)                                                            
 3p( 2.00)                                                            
Vna: chval, zval:    4.00000   4.00000

Vna:  Cut-off radius for the neutral-atom potential:   8.464845

atom: _________________________________________________________________________

<basis_specs>
===============================================================================
O                    Z=   8    Mass=  16.000        Charge= 0.17977+309
Lmxo=1 Lmxkb= 3    BasisType=split      Semic=F
L=0  Nsemic=0  Cnfigmx=2
          i=1  nzeta=2  polorb=0  (2s)
            splnorm:   0.28000    
               vcte:    0.0000    
               rinn:    0.0000    
               qcoe:    0.0000    
               qyuk:    0.0000    
               qwid:   0.10000E-01
                rcs:    0.0000      0.0000    
            lambdas:    1.0000      1.0000    
L=1  Nsemic=0  Cnfigmx=2
          i=1  nzeta=2  polorb=1  (2p)
            splnorm:   0.28000    
               vcte:    0.0000    
               rinn:    0.0000    
               qcoe:    0.0000    
               qyuk:    0.0000    
               qwid:   0.10000E-01
                rcs:    0.0000      0.0000    
            lambdas:    1.0000      1.0000    
-------------------------------------------------------------------------------
L=0  Nkbl=1  erefs: 0.17977+309
L=1  Nkbl=1  erefs: 0.17977+309
L=2  Nkbl=1  erefs: 0.17977+309
L=3  Nkbl=1  erefs: 0.17977+309
===============================================================================
</basis_specs>

atom: Called for O                     (Z =   8)

read_vps: Pseudopotential generation method:
read_vps: ATM4.2.7  Troullier-Martins                       
Valence charge for ps generation:    6.00000

xc_check: Exchange-correlation functional:
xc_check: GGA Perdew, Burke & Ernzerhof 1996
V l=0 = -2*Zval/r beyond r=  1.1000
V l=1 = -2*Zval/r beyond r=  1.1000
V l=2 = -2*Zval/r beyond r=  2.2154
V l=3 = -2*Zval/r beyond r=  1.1000
All V_l potentials equal beyond r=  2.2154
This should be close to max(r_c) in ps generation
All pots = -2*Zval/r beyond r=  2.2154

VLOCAL1: 99.0% of the norm of Vloc inside      8.845 Ry
VLOCAL1: 99.9% of the norm of Vloc inside     20.157 Ry
atom: Maximum radius for 4*pi*r*r*local-pseudopot. charge    2.67231
atom: Maximum radius for r*vlocal+2*Zval:    2.32897
GHOST: No ghost state for L =  0
GHOST: No ghost state for L =  1
GHOST: No ghost state for L =  2
GHOST: No ghost state for L =  3

KBgen: Kleinman-Bylander projectors: 
   l= 0   rc=  2.243238   el= -1.759686   Ekb=**********   kbcos= -0.171774
   l= 1   rc=  2.328968   el= -0.663873   Ekb=-14.506792   kbcos= -0.519897
   l= 2   rc=  2.573941   el=  0.002031   Ekb= -1.137373   kbcos= -0.019581
   l= 3   rc=  2.606321   el=  0.003153   Ekb= -1.013546   kbcos= -0.003122

KBgen: Total number of Kleinman-Bylander projectors:   16
atom: -------------------------------------------------------------------------

atom: SANKEY-TYPE ORBITALS:
atom: Selected multiple-zeta basis: split     

SPLIT: Orbitals with angular momentum L= 0

SPLIT: Basis orbitals for state 2s

SPLIT: PAO cut-off radius determined from an
SPLIT: energy shift=  0.002000 Ry

   izeta = 1
                 lambda =    1.000000
                     rc =    4.243912
                 energy =   -1.758270
                kinetic =    3.286084
    potential(screened) =   -5.044353
       potential(ionic) =  -12.921184

   izeta = 2
                 rmatch =    2.187845
              splitnorm =    0.280000
                 energy =   -0.885018
                kinetic =    8.134434
    potential(screened) =   -9.019452
       potential(ionic) =  -17.710645

SPLIT: Orbitals with angular momentum L= 1

SPLIT: Basis orbitals for state 2p

SPLIT: PAO cut-off radius determined from an
SPLIT: energy shift=  0.002000 Ry

   izeta = 1
                 lambda =    1.000000
                     rc =    5.314825
                 energy =   -0.661986
                kinetic =    4.917472
    potential(screened) =   -5.579458
       potential(ionic) =  -13.236259

   izeta = 2
                 rmatch =    2.160663
              splitnorm =    0.280000
                 energy =   -0.068760
                kinetic =    9.183374
    potential(screened) =   -9.252135
       potential(ionic) =  -18.274251

POLgen: Perturbative polarization orbital with L=  2

POLgen: Polarization orbital for state 2p

   izeta = 1
                     rc =    5.314825
                 energy =    1.970580
                kinetic =    3.886128
    potential(screened) =   -1.915547
       potential(ionic) =   -7.749584
atom: Total number of Sankey-type orbitals: 13

atm_pop: Valence configuration (for local Pseudopot. screening):
 2s( 2.00)                                                            
 2p( 4.00)                                                            
Vna: chval, zval:    6.00000   6.00000

Vna:  Cut-off radius for the neutral-atom potential:   5.314825

atom: _________________________________________________________________________

prinput: Basis input ----------------------------------------------------------

PAO.BasisType split     

%block ChemicalSpeciesLabel
    1    1 H                       # Species index, atomic number, species label
    2    7 N                       # Species index, atomic number, species label
    3   14 Si                      # Species index, atomic number, species label
    4    8 O                       # Species index, atomic number, species label
%endblock ChemicalSpeciesLabel

%block PAO.Basis                 # Define Basis set
H                     1                    # Species label, number of l-shells
 n=1   0   2 P   1                   # n, l, Nzeta, Polarization, NzetaPol
   6.518      2.141   
   1.000      1.000   
N                     2                    # Species label, number of l-shells
 n=2   0   2                         # n, l, Nzeta 
   4.730      2.532   
   1.000      1.000   
 n=2   1   2 P   1                   # n, l, Nzeta, Polarization, NzetaPol
   5.924      2.532   
   1.000      1.000   
Si                    2                    # Species label, number of l-shells
 n=3   0   2                         # n, l, Nzeta 
   6.430      3.998   
   1.000      1.000   
 n=3   1   2 P   1                   # n, l, Nzeta, Polarization, NzetaPol
   8.465      4.588   
   1.000      1.000   
O                     2                    # Species label, number of l-shells
 n=2   0   2                         # n, l, Nzeta 
   4.244      2.188   
   1.000      1.000   
 n=2   1   2 P   1                   # n, l, Nzeta, Polarization, NzetaPol
   5.315      2.161   
   1.000      1.000   
%endblock PAO.Basis

prinput: ----------------------------------------------------------------------

Dumping basis to NetCDF file H.ion.nc
Dumping basis to NetCDF file N.ion.nc
Dumping basis to NetCDF file Si.ion.nc
Dumping basis to NetCDF file O.ion.nc
coor:   Atomic-coordinates input format  =     Cartesian coordinates
coor:                                          (in Angstroms)

siesta: Atomic coordinates (Bohr) and species
siesta:      4.31792  -9.81768   0.00000  1        1
siesta:      2.59711  -8.81503   0.00000  2        2
siesta:     -0.41253 -10.38326   0.00000  3        3
siesta:     -0.33040 -13.20006   0.00000  1        4
siesta:     -3.14019  -8.66630   0.00000  2        5
siesta:     -2.06030  -5.43214   0.00000  3        6
siesta:     -2.89201  -1.33728   0.00000  3        7
siesta:     -5.94160  -0.17360   0.00000  2        8
siesta:     -6.43014   1.81127   0.00000  1        9
siesta:     -7.46581  -1.44982   0.00000  1       10
siesta:     -0.33706   0.78140   0.00000  2       11
siesta:      2.82552  -0.08957   0.00000  3       12
siesta:      4.64124   2.09244   0.00000  1       13
siesta:      4.35491  -2.99662   0.00000  2       14
siesta:      2.09241  -5.37836   0.00000  3       15
siesta:      0.44087  18.82835   0.00000  1       16
siesta:     -1.08737  17.52027   0.00000  2       17
siesta:     -4.21787  18.86787   0.00000  3       18
siesta:     -4.03483  21.72273   0.00000  1       19
siesta:     -7.47984  16.32988   0.00000  3       20
siesta:    -11.92911  16.31478   0.00000  3       21
siesta:    -12.99193  17.70277  -2.27113  1       22
siesta:    -12.49568  13.51970  -0.16286  1       23
siesta:    -12.99214  17.38216   2.43425  1       24
siesta:     -5.72354  12.41706   0.00000  3       25
siesta:     -7.51778   9.98208   0.00000  4       26
siesta:     -2.33915  12.08875   0.00000  2       27
siesta:     -1.71366  10.13788   0.00000  1       28
siesta:      0.13348  14.34611   0.00000  3       29
siesta:      3.09267  13.84109   0.00000  4       30

siesta: Automatic unit cell vectors (Ang):
siesta:   18.443279    0.000000    0.000000
siesta:    0.000000   27.916953    0.000000
siesta:    0.000000    0.000000   10.327559

siesta: System type = molecule  

initatomlists: Number of atoms, orbitals, and projectors:     30   302   403

siesta: ******************** Simulation parameters ****************************
siesta:
siesta: The following are some of the parameters of the simulation.
siesta: A complete list of the parameters used, including default values,
siesta: can be found in file out.fdf
siesta:
redata: Spin configuration                          = spin-orbit
redata: Number of spin components                   = 8
redata: Time-Reversal Symmetry                      = F
redata: Spin spiral                                 = F
############################################################
This spin-orbit implementation uses a local approximation.
From 4.2 and onwards the full non-local approximation is implemented
You are strongly advised to use >=4.2 versions!
############################################################
redata: Long output                                 =   F
redata: Number of Atomic Species                    =        4
redata: Charge density info will appear in .RHO file
redata: Write Mulliken Pop.                         = NO
redata: Matel table size (NRTAB)                    =     1024
redata: Mesh Cutoff                                 =   340.0000 Ry
redata: Net charge of the system                    =     0.0000 |e|
redata: Min. number of SCF Iter                     =        1
redata: Max. number of SCF Iter                     =      300
redata: SCF convergence failure will abort job
redata: SCF mix quantity                            = Hamiltonian
redata: Mix DM or H after convergence               =   F
redata: Recompute H after scf cycle                 =   F
redata: Mix DM in first SCF step                    =   T
redata: Write Pulay info on disk                    =   F
redata: New DM Occupancy tolerance                  = 0.000000000001
redata: No kicks to SCF
redata: DM Mixing Weight for Kicks                  =     0.5000
redata: Require Harris convergence for SCF          =   F
redata: Harris energy tolerance for SCF             =     0.000100 eV
redata: Require DM convergence for SCF              =   T
redata: DM tolerance for SCF                        =     0.000008
redata: Require EDM convergence for SCF             =   F
redata: EDM tolerance for SCF                       =     0.001000 eV
redata: Require H convergence for SCF               =   T
redata: Hamiltonian tolerance for SCF               =     0.000001 eV
redata: Require (free) Energy convergence for SCF   =   F
redata: (free) Energy tolerance for SCF             =     0.000100 eV
redata: Using Saved Data (generic)                  =   F
redata: Use continuation files for DM               =   T
redata: Neglect nonoverlap interactions             =   F
redata: Method of Calculation                       = Diagonalization
redata: Electronic Temperature                      =   299.9978 K
redata: Fix the spin of the system                  =   F
redata: Dynamics option                             = Verlet MD run
redata: Initial MD time step                        =        1
redata:   Final MD time step                        =        1
redata: Length of MD time step                      =     0.5000 fs
redata: Initial Temperature of MD run               =     0.0000 K
redata: Perform a MD quench                         =   F
mix.SCF: Pulay mixing                            = Pulay
mix.SCF:    Variant                              = stable
mix.SCF:    History steps                        = 6
mix.SCF:    Linear mixing weight                 =     0.250000
mix.SCF:    Mixing weight                        =     0.250000
mix.SCF:    SVD condition                        = 0.1000E-07
mix.SCF:    Restart steps                        = 24
mix.SCF:    Restart save steps                   = 3
mix.SCF: Spin-component mixing                   all
redata: Save all siesta data in one NC              =   F
redata: ***********************************************************************

%block SCF.Mixers
  Pulay
%endblock SCF.Mixers

%block SCF.Mixer.Pulay
  # Mixing method
  method pulay
  variant stable

  # Mixing options
  weight 0.2500
  weight.linear 0.2500
  history 6
  restart 24
  restart.save 3
%endblock SCF.Mixer.Pulay

Size of DM history Fstack: 3
Total number of electrons:    98.000000
Total ionic charge:    98.000000

* ProcessorY, Blocksize:    4   9


* Orbital distribution balance (max,min):    18     9


Time-reversal symmetry not used.

siesta: k-grid: Number of k-points =     1
siesta: k-grid: Cutoff (effective) =     5.164 Ang
siesta: k-grid: Supercell and displacements
siesta: k-grid:    1   0   0      0.000
siesta: k-grid:    0   1   0      0.000
siesta: k-grid:    0   0   1      0.000

diag: Algorithm                                     = ELPA-1stage
diag: Parallel over k                               =   F
diag: Use parallel 2D distribution                  =   T
diag: Parallel block-size                           = 9
diag: Parallel distribution                         =     4 x     8
diag: Used triangular part                          = Lower
diag: Absolute tolerance                            =  0.100E-15
diag: Orthogonalization factor                      =  0.100E-05
diag: Memory factor                                 =  1.0000


ts: **************************************************************
ts: Save H and S matrices                           =    F
ts: Save DM and EDM matrices                        =    F
ts: Only save the overlap matrix S                  =    F
ts: **************************************************************

************************ Begin: TS CHECKS AND WARNINGS ************************
************************ End: TS CHECKS AND WARNINGS **************************


                     ====================================
                        Begin MD step =      1
                     ====================================

outcoor: Atomic coordinates (Ang):                          
    2.28494382   -5.19529124    0.00000000   1       1  H
    1.37433094   -4.66471070    0.00000000   2       2  N
   -0.21830245   -5.49458215    0.00000000   3       3  Si
   -0.17484108   -6.98516892    0.00000000   1       4  H
   -1.66171682   -4.58600741    0.00000000   2       5  N
   -1.09026419   -2.87456374    0.00000000   3       6  Si
   -1.53038332   -0.70765692    0.00000000   3       7  Si
   -3.14415959   -0.09186471    0.00000000   2       8  N
   -3.40268075    0.95848335    0.00000000   1       9  H
   -3.95073599   -0.76720972    0.00000000   1      10  H
   -0.17836637    0.41349951    0.00000000   2      11  N
    1.49520211   -0.04739960    0.00000000   3      12  Si
    2.45603905    1.10727302    0.00000000   1      13  H
    2.30451743   -1.58574382    0.00000000   2      14  N
    1.10725559   -2.84610319    0.00000000   3      15  Si
    0.23329864    9.96352820    0.00000000   1      16  H
   -0.57541204    9.27132232    0.00000000   2      17  N
   -2.23200188    9.98444242    0.00000000   3      18  Si
   -2.13513671   11.49516763    0.00000000   1      19  H
   -3.95815823    8.64139429    0.00000000   3      20  Si
   -6.31261248    8.63340736    0.00000000   3      21  Si
   -6.87503060    9.36789701   -1.20183078   1      22  H
   -6.61242623    7.15431623   -0.08618332   1      23  H
   -6.87514306    9.19823982    1.28814761   1      24  H
   -3.02876759    6.57082306    0.00000000   3      25  Si
   -3.97823595    5.28228693    0.00000000   4      26  O
   -1.23782272    6.39708759    0.00000000   2      27  N
   -0.90683136    5.36473061    0.00000000   1      28  H
    0.07063550    7.59163401    0.00000000   3      29  Si
    1.63657243    7.32438716    0.00000000   4      30  O

outcell: Unit cell vectors (Ang):
       18.443279    0.000000    0.000000
        0.000000   27.916953    0.000000
        0.000000    0.000000   10.327559

outcell: Cell vector modules (Ang)   :   18.443279   27.916953   10.327559
outcell: Cell angles (23,13,12) (deg):     90.0000     90.0000     90.0000
outcell: Cell volume (Ang**3)        :   5317.4553
<dSpData1D:S at geom step 1
  <sparsity:sparsity for geom step 1
    nrows_g=302 nrows=18 sparsity=.0279 nnzs=2544, refcount: 8>
  <dData1D:(new from dSpData1D) n=2544, refcount: 1>
refcount: 1>
new_DM -- step:     1
Initializing Density Matrix...

Attempting to read DM from file... Failed...
DM filled with atomic data:
<dSpData2D:DM initialized from atoms
  <sparsity:sparsity for geom step 1
    nrows_g=302 nrows=18 sparsity=.0279 nnzs=2544, refcount: 9>
  <dData2D:DM n=2544 m=8, refcount: 1>
refcount: 1>
     spin moment: S , {S} =   56.00000   0.00000   0.00000  56.00000
No. of atoms with KB's overlaping orbs in proc 0. Max # of overlaps:      20     134

Initializing spin-orbit part of the Hamiltonian
  Adding spin-orbit effects for H 
  Adding spin-orbit effects for N 
  Adding spin-orbit effects for Si
  Adding spin-orbit effects for O 


New grid distribution:   1
           1       1:  108    1:   40    1:    8
           2       1:  108    1:   40    9:   16
           3       1:  108    1:   40   17:   24
           4       1:  108    1:   40   25:   32
           5       1:  108    1:   40   33:   39
           6       1:  108    1:   40   40:   46
           7       1:  108    1:   40   47:   53
           8       1:  108    1:   40   54:   60
           9       1:  108   41:   80    1:    8
          10       1:  108   41:   80    9:   16
          11       1:  108   41:   80   17:   24
          12       1:  108   41:   80   25:   32
          13       1:  108   41:   80   33:   39
          14       1:  108   41:   80   40:   46
          15       1:  108   41:   80   47:   53
          16       1:  108   41:   80   54:   60
          17       1:  108   81:  120    1:    8
          18       1:  108   81:  120    9:   16
          19       1:  108   81:  120   17:   24
          20       1:  108   81:  120   25:   32
          21       1:  108   81:  120   33:   39
          22       1:  108   81:  120   40:   46
          23       1:  108   81:  120   47:   53
          24       1:  108   81:  120   54:   60
          25       1:  108  121:  160    1:    8
          26       1:  108  121:  160    9:   16
          27       1:  108  121:  160   17:   24
          28       1:  108  121:  160   25:   32
          29       1:  108  121:  160   33:   39
          30       1:  108  121:  160   40:   46
          31       1:  108  121:  160   47:   53
          32       1:  108  121:  160   54:   60

InitMesh: MESH =   216 x   320 x   120 =     8294400
InitMesh: (bp) =   108 x   160 x    60 =     1036800
InitMesh: Mesh cutoff (required, used) =   340.000   363.133 Ry
ExtMesh (bp) on 0 =   216 x   144 x   116 =     3608064
New grid distribution:   2
           1       1:   71   42:   58    1:   22
           2      88:   98    1:   40    1:   18
           3      98:  108   41:   58    1:   21
           4      22:   87    1:   41   20:   60
           5      22:   87    1:   41    1:   19
           6      88:   98    1:   40   19:   60
           7      98:  108   41:   58   22:   60
           8     100:  108  141:  160    1:   21
           9      10:   81   59:  141    1:   20
          10     100:  108   59:  140    1:   20
          11      72:   87   42:   58    1:   22
          12     100:  108   59:  140   21:   60
          13       1:   71   42:   58   23:   60
          14      99:  108    1:   40   19:   60
          15      72:   87   42:   58   23:   60
          16      88:   97   41:   58   22:   60
          17      82:   99   59:  140    1:   20
          18       1:    9   59:  141    1:   20
          19      88:   97   41:   58    1:   21
          20      10:   81   59:  141   21:   60
          21      82:   99   59:  140   21:   60
          22       1:    9   59:  141   21:   60
          23      99:  108    1:   40    1:   18
          24       1:    9  142:  160    1:   20
          25      10:   81  142:  160    1:   20
          26      82:   99  141:  160    1:   21
          27       1:    9  142:  160   21:   60
          28      10:   81  142:  160   21:   60
          29       1:   21    1:   41   20:   60
          30       1:   21    1:   41    1:   19
          31      82:   99  141:  160   22:   60
          32     100:  108  141:  160   22:   60
New grid distribution:   3
           1      32:   71   37:   59    1:   25
           2      90:  108   34:   59   27:   60
           3      92:  108    1:   33    1:   24
           4      16:   71    1:   36   25:   60
           5      16:   71    1:   36    1:   24
           6      72:   91    1:   33   25:   60
           7       1:   15    1:   36   25:   60
           8       1:   15    1:   36    1:   24
           9      16:   76   60:  130    1:   25
          10       1:   31   37:   59    1:   25
          11      72:   90   34:   59    1:   26
          12      97:  108   60:  126   25:   60
          13      17:   76  131:  160    1:   25
          14      92:  108    1:   33   25:   60
          15      48:   71   37:   59   26:   60
          16      91:  108   34:   59    1:   26
          17      77:   96   60:  126    1:   24
          18      97:  108   60:  126    1:   24
          19       1:   16  131:  160    1:   25
          20      16:   76   60:  130   26:   60
          21      77:   96   60:  126   25:   60
          22       1:   15   60:  130   26:   60
          23      72:   89   34:   59   27:   60
          24      95:  108  127:  160    1:   25
          25       1:   15   60:  130    1:   25
          26      72:   91    1:   33    1:   24
          27      77:   94  127:  160    1:   25
          28      17:   76  131:  160   26:   60
          29       1:   47   37:   59   26:   60
          30      77:   95  127:  160   26:   60
          31       1:   16  131:  160   26:   60
          32      96:  108  127:  160   26:   60
Setting up quadratic distribution...
ExtMesh (bp) on 0 =   179 x   121 x   130 =     2815670
PhiOnMesh: Number of (b)points on node 0 =                26554
PhiOnMesh: nlist on node 0 =               404113

stepf: Fermi-Dirac step function

siesta: Program's energy decomposition (eV):
siesta: Ebs     =      -643.462934
siesta: Eions   =      3553.971015
siesta: Ena     =       374.984482
siesta: Ekin    =      3171.693006
siesta: Enl     =     -2985.053497
siesta: Eso     =        -0.003880
siesta: Edftu   =         0.000000
siesta: DEna    =       129.791559
siesta: DUscf   =        75.735618
siesta: DUext   =         0.000000
siesta: Exc     =     -1168.751300
siesta: eta*DQ  =         0.000000
siesta: Emadel  =         0.000000
siesta: Emeta   =         0.000000
siesta: Emolmec =         0.000000
siesta: Ekinion =         0.000000
siesta: Eharris =     -3884.409913
siesta: Etot    =     -3955.575027
siesta: FreeEng =     -3955.578314

        iscf     Eharris(eV)        E_KS(eV)     FreeEng(eV)     dDmax    Ef(eV) dHmax(eV)
   scf:    1    -3884.409913    -3955.575027    -3955.578314  0.970553 -4.935159 21.470390
     spin moment: S , {S} =    2.02331  -0.00000  -0.00000   2.02331
timer: Routine,Calls,Time,% = IterSCF        1       3.988   9.68
   scf:    2    -3997.404769    -3989.097340    -3989.097354  0.466625 -4.297424 10.753231
     spin moment: S , {S} =    2.00007   0.00000  -0.00000   2.00007
   scf:    3    -3964.084892    -3987.083491    -3987.117142  0.419918 -4.183041 10.897397
     spin moment: S , {S} =    1.83894  -0.00000  -0.00000   1.83894
   scf:    4    -4002.020349    -3997.302077    -3997.302078  0.222427 -3.918020  6.707042
     spin moment: S , {S} =    0.00010  -0.00000   0.00000   0.00010
   scf:    5    -3998.685312    -3998.073528    -3998.073528  0.039176 -3.825557  4.280376
     spin moment: S , {S} =    0.00006  -0.00000   0.00000   0.00006
   scf:    6    -3998.840738    -3998.459598    -3998.459598  0.025747 -3.816731  2.184244
     spin moment: S , {S} =    0.00003  -0.00000   0.00000   0.00003
   scf:    7    -3998.844690    -3998.645809    -3998.645809  0.022740 -3.863453  0.712014
     spin moment: S , {S} =    0.00001  -0.00000   0.00000   0.00001
   scf:    8    -3998.771217    -3998.706161    -3998.706161  0.012069 -3.908213  0.436109
     spin moment: S , {S} =    0.00000  -0.00000   0.00000   0.00000
   scf:    9    -3998.754510    -3998.729231    -3998.729231  0.007077 -3.926580  0.339306
     spin moment: S , {S} =    0.00000  -0.00000   0.00000   0.00000
   scf:   10    -3998.785551    -3998.750231    -3998.750231  0.020898 -3.950094  0.179808
     spin moment: S , {S} =    0.00000  -0.00000  -0.00000  -0.00000
   scf:   11    -3998.753775    -3998.752094    -3998.752094  0.004384 -3.938368  0.056356
     spin moment: S , {S} =    0.00000  -0.00000  -0.00000  -0.00000
   scf:   12    -3998.752693    -3998.752410    -3998.752410  0.001495 -3.936369  0.033319
     spin moment: S , {S} =    0.00000  -0.00000  -0.00000  -0.00000
   scf:   13    -3998.752835    -3998.752621    -3998.752621  0.000860 -3.934831  0.017062
     spin moment: S , {S} =    0.00000  -0.00000  -0.00000   0.00000
   scf:   14    -3998.752870    -3998.752740    -3998.752741  0.001047 -3.934020  0.010252
     spin moment: S , {S} =    0.00000  -0.00000  -0.00000   0.00000
   scf:   15    -3998.752854    -3998.752794    -3998.752794  0.000830 -3.933729  0.008225
     spin moment: S , {S} =    0.00000  -0.00000  -0.00000   0.00000
   scf:   16    -3998.752864    -3998.752825    -3998.752826  0.000827 -3.933639  0.005167
     spin moment: S , {S} =    0.00000  -0.00000  -0.00000   0.00000
   scf:   17    -3998.752844    -3998.752834    -3998.752834  0.000411 -3.933706  0.004080
     spin moment: S , {S} =    0.00000  -0.00000  -0.00000   0.00000
   scf:   18    -3998.752843    -3998.752838    -3998.752838  0.000321 -3.933763  0.002625
     spin moment: S , {S} =    0.00000  -0.00000  -0.00000   0.00000
   scf:   19    -3998.752842    -3998.752840    -3998.752840  0.000279 -3.933781  0.001530
     spin moment: S , {S} =    0.00000  -0.00000  -0.00000   0.00000
   scf:   20    -3998.752841    -3998.752840    -3998.752841  0.000114 -3.933798  0.001005
     spin moment: S , {S} =    0.00000  -0.00000  -0.00000   0.00000
   scf:   21    -3998.752841    -3998.752841    -3998.752841  0.000100 -3.933801  0.000595
     spin moment: S , {S} =    0.00000  -0.00000  -0.00000   0.00000
   scf:   22    -3998.752841    -3998.752841    -3998.752841  0.000088 -3.933812  0.000194
     spin moment: S , {S} =    0.00000  -0.00000  -0.00000   0.00000
   scf:   23    -3998.752841    -3998.752841    -3998.752841  0.000028 -3.933814  0.000096
     spin moment: S , {S} =    0.00000  -0.00000   0.00000   0.00000
   scf:   24    -3998.752841    -3998.752841    -3998.752841  0.000018 -3.933818  0.000063
     spin moment: S , {S} =    0.00000  -0.00000   0.00000  -0.00000
mix: Pulay -- resetting history
   scf:   25    -3998.752841    -3998.752841    -3998.752841  0.000010 -3.933809  0.000036
     spin moment: S , {S} =    0.00000   0.00000   0.00000  -0.00000
   scf:   26    -3998.752841    -3998.752841    -3998.752841  0.000002 -3.933810  0.000027
     spin moment: S , {S} =    0.00000   0.00000   0.00000  -0.00000
   scf:   27    -3998.752841    -3998.752841    -3998.752841  0.000001 -3.933808  0.000013
     spin moment: S , {S} =    0.00000  -0.00000   0.00000   0.00000
   scf:   28    -3998.752841    -3998.752841    -3998.752841  0.000001 -3.933808  0.000009
     spin moment: S , {S} =    0.00000  -0.00000   0.00000  -0.00000
   scf:   29    -3998.752841    -3998.752841    -3998.752841  0.000001 -3.933807  0.000006
     spin moment: S , {S} =    0.00000  -0.00000   0.00000  -0.00000
   scf:   30    -3998.752841    -3998.752841    -3998.752841  0.000000 -3.933808  0.000004
     spin moment: S , {S} =    0.00000   0.00000   0.00000   0.00000
   scf:   31    -3998.752841    -3998.752841    -3998.752841  0.000000 -3.933808  0.000003
     spin moment: S , {S} =    0.00000   0.00000   0.00000   0.00000
   scf:   32    -3998.752841    -3998.752841    -3998.752841  0.000000 -3.933808  0.000002
     spin moment: S , {S} =    0.00000   0.00000   0.00000   0.00000
   scf:   33    -3998.752841    -3998.752841    -3998.752841  0.000000 -3.933808  0.000001
     spin moment: S , {S} =    0.00000   0.00000   0.00000  -0.00000
   scf:   34    -3998.752841    -3998.752841    -3998.752841  0.000000 -3.933808  0.000001
     spin moment: S , {S} =    0.00000   0.00000   0.00000   0.00000

SCF Convergence by DM+H criterion
max |DM_out - DM_in|         :     0.0000001727
max |H_out - H_in|      (eV) :     0.0000007207
SCF cycle converged after 34 iterations

Using DM_out to compute the final energy and forces
No. of atoms with KB's overlaping orbs in proc 0. Max # of overlaps:      20     134

siesta: E_KS(eV) =            -3998.7528

siesta: E_KS - E_eggbox =     -3998.7528
     spin moment: S , {S} =    0.00000   0.00000   0.00000   0.00000

siesta: Atomic forces (eV/Ang):
     1    0.184724   -0.008321   -0.000000
     2   -0.029791    0.026391    0.000000
     3   -0.027576   -0.008310   -0.000000
     4    0.157649    0.052689   -0.000000
     5    0.005366   -0.029009    0.000000
     6   -0.180190    0.018128    0.000000
     7    1.004695   -0.007434   -0.000001
     8   -0.583156    1.383914    0.000001
     9    0.055913   -1.017168   -0.000002
    10   -0.067308    0.094014    0.000001
    11   -0.171972   -0.368790    0.000001
    12   -0.276487    0.047826    0.000000
    13   -0.079097    0.022860    0.000000
    14    0.022440   -0.157561   -0.000000
    15    0.102397    0.103163    0.000000
    16   -0.035620   -0.111734   -0.000944
    17    0.065004   -0.087004   -0.000804
    18   -0.161409    0.037360    0.005221
    19    0.073457   -0.013401   -0.001443
    20    0.122225    0.079504   -0.000969
    21    0.032456   -0.027087   -0.006985
    22    0.069411   -0.017594    0.104926
    23    0.049299    0.058226   -0.016699
    24    0.063984    0.036554   -0.083553
    25   -0.643875   -0.397977    0.001011
    26   -2.264255    0.946392    0.000513
    27    0.360600   -0.433212   -0.000549
    28   -0.179048    0.713372   -0.000072
    29    0.132207    0.168230   -0.000224
    30   -2.121400    0.874275    0.000259
----------------------------------------
   Tot   -4.319356    1.978294   -0.000311
----------------------------------------
   Max    2.264255
   Res    0.442120    sqrt( Sum f_i^2 / 3N )
----------------------------------------
   Max    2.264255    constrained

Stress tensor Voigt[x,y,z,yz,xz,xy] (kbar):        0.34        0.79       -0.04       -0.02        0.00        0.31
(Free)E + p*V (eV/cell)    -3999.9564
Target enthalpy (eV/cell)    -3998.7528

siesta: Stress tensor (static) (eV/Ang**3):
         0.000211    0.000192    0.000001
         0.000192    0.000495   -0.000010
         0.000001   -0.000010   -0.000027

siesta: Pressure (static):         -0.36265106  kBar

siesta: Stress tensor (total) (eV/Ang**3):
         0.000211    0.000192    0.000001
         0.000192    0.000495   -0.000010
         0.000001   -0.000010   -0.000027

siesta: Pressure (total):         -0.36265106  kBar

siesta: Temp_ion =       0.000 K

siesta: Eigenvalues (eV):
ik =     1
  -22.9227  -22.9227  -22.3876  -22.3876  -21.7813  -21.7813  -21.3279  -21.3279  -21.1607  -21.1607
  -21.0172  -21.0172  -19.5252  -19.5252  -19.3749  -19.3749  -18.7381  -18.7381  -15.0571  -15.0571
  -14.1364  -14.1364  -13.7757  -13.7757  -13.6180  -13.6180  -13.1203  -13.1203  -13.0289  -13.0289
  -12.6554  -12.6554  -12.2445  -12.2445  -11.9497  -11.9497  -11.7243  -11.7243  -11.5345  -11.5345
  -11.1026  -11.1026  -10.6620  -10.6620  -10.3389  -10.3389   -9.5819   -9.5819   -9.3379   -9.3379
   -9.2815   -9.2815   -9.1282   -9.1282   -9.0720   -9.0720   -8.9329   -8.9329   -8.6421   -8.6421
   -8.4310   -8.4310   -8.3663   -8.3663   -8.2698   -8.2698   -8.0529   -8.0529   -8.0475   -8.0475
   -7.7742   -7.7742   -7.5072   -7.5072   -7.4336   -7.4336   -7.3225   -7.3225   -6.9557   -6.9557
   -6.8999   -6.8999   -6.7727   -6.7727   -6.5405   -6.5405   -6.3360   -6.3360   -6.3037   -6.3037
   -5.9264   -5.9264   -5.7412   -5.7412   -5.6741   -5.6741   -4.3425   -4.3425   -3.5252   -3.5252
   -2.7325   -2.7325   -2.3127   -2.3127   -2.2488   -2.2488   -2.1643   -2.1643   -2.0782   -2.0782
   -2.0189   -2.0189   -1.8376   -1.8376   -1.7153   -1.7153   -1.6712   -1.6712   -1.5356   -1.5356
   -1.1976   -1.1976   -0.6921   -0.6921   -0.4365   -0.4365   -0.3363   -0.3363   -0.2024   -0.2024
   -0.0354   -0.0354    0.0270    0.0270    0.2122    0.2122    0.4507    0.4507    0.4694    0.4694
    0.5314    0.5314    0.7025    0.7025    1.0843    1.0843    1.1526    1.1526    1.2600    1.2600
    1.4204    1.4204    1.5312    1.5312    1.8114    1.8114    1.9192    1.9192    2.0621    2.0621
    2.3266    2.3266    2.6458    2.6458    2.7145    2.7145    2.7645    2.7645    2.7725    2.7725
    2.9550    2.9550    2.9780    2.9780    3.1374    3.1374    3.2254    3.2254    3.2752    3.2752
    3.5465    3.5465    3.8697    3.8697    4.0837    4.0837    4.0975    4.0975    4.1930    4.1930
    4.3230    4.3230    4.5651    4.5651    4.5929    4.5929    4.7583    4.7583    4.9537    4.9537
    5.0339    5.0339    5.0935    5.0935    5.5310    5.5310    5.6508    5.6508    5.6640    5.6640
    5.7562    5.7562    6.0150    6.0150    6.0394    6.0394    6.1936    6.1936    6.2044    6.2044
    6.5390    6.5390    6.5494    6.5494    6.7837    6.7837    7.0107    7.0107    7.0892    7.0892
    7.1337    7.1337    7.3645    7.3645    7.5343    7.5343    7.8060    7.8060    7.8387    7.8387
    7.9550    7.9550    8.1100    8.1100    8.2591    8.2591    8.2652    8.2652    8.6431    8.6431
    8.8098    8.8098    8.9174    8.9174    8.9368    8.9368    9.1704    9.1704    9.5399    9.5399
    9.5698    9.5698    9.7413    9.7413    9.7644    9.7644    9.8075    9.8075    9.8942    9.8942
   10.1315   10.1315   10.3350   10.3350   10.6159   10.6159   10.8943   10.8943   10.8950   10.8950
   11.2444   11.2444   11.3057   11.3057   11.5605   11.5605   11.6026   11.6026   11.6133   11.6133
   11.8922   11.8922   12.2180   12.2180   12.2950   12.2950   12.3693   12.3693   12.5920   12.5920
   12.8161   12.8161   12.9094   12.9094   13.0087   13.0087   13.1724   13.1724   13.3067   13.3067
   13.3995   13.3995   13.6229   13.6229   14.4411   14.4411   14.6182   14.6182   14.6502   14.6502
   14.7023   14.7023   14.8178   14.8178   15.1284   15.1284   16.0712   16.0712   16.5388   16.5388
   16.6655   16.6655   16.7974   16.7974   16.9899   16.9899   17.1343   17.1343   17.3504   17.3504
   18.1106   18.1106   18.2164   18.2164   18.4630   18.4630   18.7085   18.7085   18.7276   18.7276
   18.7443   18.7443   19.5039   19.5039   19.7903   19.7903   19.9830   19.9830   20.1949   20.1949
   20.6084   20.6084   21.0466   21.0466   21.1028   21.1028   21.6794   21.6794   22.1874   22.1874
   22.2411   22.2411   22.8256   22.8256   22.8844   22.8844   23.0648   23.0648   23.8051   23.8051
   24.5565   24.5565   24.7322   24.7322   24.7944   24.7944   25.6954   25.6954   25.9203   25.9203
   26.0250   26.0250   26.4839   26.4839   26.5083   26.5083   27.7259   27.7259   28.0010   28.0010
   28.3548   28.3548   28.4875   28.4875   29.2468   29.2468   29.4630   29.4630   30.3499   30.3499
   30.7216   30.7216   30.7480   30.7480   30.8568   30.8568   31.2737   31.2737   31.5673   31.5673
   31.7295   31.7295   31.9596   31.9596   32.0548   32.0548   33.3390   33.3390   33.3558   33.3558
   33.6847   33.6847   34.0023   34.0023   34.4436   34.4436   34.7638   34.7638   34.8645   34.8645
   35.5046   35.5046   35.9606   35.9607   36.0390   36.0390   37.0606   37.0606   37.4618   37.4618
   37.5164   37.5164   37.7860   37.7860   38.0529   38.0529   38.3971   38.3971   38.4292   38.4292
   39.0836   39.0836   40.1381   40.1381   40.2162   40.2162   40.6914   40.6914   41.2010   41.2010
   41.6083   41.6083   41.8339   41.8339   41.8540   41.8540   43.2817   43.2817   43.3724   43.3724
   43.7984   43.7984   44.4166   44.4166   44.7167   44.7167   45.0048   45.0048   45.0636   45.0636
   45.5374   45.5374   45.6649   45.6649   46.0283   46.0283   46.4975   46.4975   46.9164   46.9164
   47.0660   47.0660   47.4468   47.4468   48.5213   48.5213   48.7816   48.7816   49.3678   49.3678
   49.7182   49.7182   50.1757   50.1757   50.2148   50.2148   50.3208   50.3208   50.3624   50.3624
   51.6999   51.6999   52.5597   52.5597   52.7378   52.7378   53.8636   53.8636   54.3504   54.3504
   54.7897   54.7897   54.7919   54.7919   55.9199   55.9199   56.1548   56.1548   56.2190   56.2190
   56.8830   56.8830   57.7061   57.7061   57.9566   57.9566   58.4444   58.4444   59.5840   59.5840
   60.0927   60.0927   61.1260   61.1260   61.6325   61.6325   62.8362   62.8362   63.2885   63.2885
   65.1785   65.1785   65.4482   65.4482   66.9577   66.9577   67.2613   67.2613   68.3377   68.3377
   68.4335   68.4335   70.5659   70.5659   71.8889   71.8889   76.5193   76.5193   88.6318   88.6318
   91.9010   91.9010   92.9621   92.9621   94.9928   94.9928   96.4783   96.4783  100.0710  100.0710
  100.8475  100.8475  102.4811  102.4811  114.2812  114.2812  118.3527  118.3527  123.1732  123.1732
  132.4602  132.4602  138.7683  138.7683
siesta: Fermi energy =      -3.933808 eV

siesta: Program's energy decomposition (eV):
siesta: Ebs     =     -1119.715464
siesta: Eions   =      3553.971015
siesta: Ena     =       374.984482
siesta: Ekin    =      2743.048202
siesta: Enl     =     -2522.713098
siesta: Eso     =        -0.004663
siesta: Edftu   =         0.000000
siesta: DEna    =        36.858299
siesta: DUscf   =        13.879731
siesta: DUext   =         0.000000
siesta: Exc     =     -1090.834779
siesta: eta*DQ  =         0.000000
siesta: Emadel  =         0.000000
siesta: Emeta   =         0.000000
siesta: Emolmec =         0.000000
siesta: Ekinion =         0.000000
siesta: Eharris =     -3998.752841
siesta: Etot    =     -3998.752841
siesta: FreeEng =     -3998.752841

siesta: Final energy (eV):
siesta:  Band Struct. =   -1119.715464
siesta:       Kinetic =    2743.048202
siesta:       Hartree =    7432.895316
siesta:       Edftu   =       0.000000
siesta:       Eso     =      -0.004663
siesta:    Ext. field =       0.000000
siesta:   Exch.-corr. =   -1090.834779
siesta:  Ion-electron =  -17312.851718
siesta:       Ion-ion =    4228.994801
siesta:       Ekinion =       0.000000
siesta:         Total =   -3998.752841
siesta:         Fermi =      -3.933808

siesta: Atomic forces (eV/Ang):
siesta:      1    0.184724   -0.008321   -0.000000
siesta:      2   -0.029791    0.026391    0.000000
siesta:      3   -0.027576   -0.008310   -0.000000
siesta:      4    0.157649    0.052689   -0.000000
siesta:      5    0.005366   -0.029009    0.000000
siesta:      6   -0.180190    0.018128    0.000000
siesta:      7    1.004695   -0.007434   -0.000001
siesta:      8   -0.583156    1.383914    0.000001
siesta:      9    0.055913   -1.017168   -0.000002
siesta:     10   -0.067308    0.094014    0.000001
siesta:     11   -0.171972   -0.368790    0.000001
siesta:     12   -0.276487    0.047826    0.000000
siesta:     13   -0.079097    0.022860    0.000000
siesta:     14    0.022440   -0.157561   -0.000000
siesta:     15    0.102397    0.103163    0.000000
siesta:     16   -0.035620   -0.111734   -0.000944
siesta:     17    0.065004   -0.087004   -0.000804
siesta:     18   -0.161409    0.037360    0.005221
siesta:     19    0.073457   -0.013401   -0.001443
siesta:     20    0.122225    0.079504   -0.000969
siesta:     21    0.032456   -0.027087   -0.006985
siesta:     22    0.069411   -0.017594    0.104926
siesta:     23    0.049299    0.058226   -0.016699
siesta:     24    0.063984    0.036554   -0.083553
siesta:     25   -0.643875   -0.397977    0.001011
siesta:     26   -2.264255    0.946392    0.000513
siesta:     27    0.360600   -0.433212   -0.000549
siesta:     28   -0.179048    0.713372   -0.000072
siesta:     29    0.132207    0.168230   -0.000224
siesta:     30   -2.121400    0.874275    0.000259
siesta: ----------------------------------------
siesta:    Tot   -4.319356    1.978294   -0.000311

siesta: Stress tensor (static) (eV/Ang**3):
siesta:     0.000211    0.000192    0.000001
siesta:     0.000192    0.000495   -0.000010
siesta:     0.000001   -0.000010   -0.000027

siesta: Cell volume =       5317.455252 Ang**3

siesta: Pressure (static):
siesta:                Solid            Molecule  Units
siesta:          -0.00000247         -0.00000374  Ry/Bohr**3
siesta:          -0.00022635         -0.00034325  eV/Ang**3
siesta:          -0.36265106         -0.54994812  kBar
(Free)E+ p_basis*V_orbitals  =       -3977.624756
(Free)Eharris+ p_basis*V_orbitals  =       -3977.624756
     spin moment: S , {S} =    0.00000   0.00000   0.00000   0.00000

siesta: Electric dipole (a.u.)  =   -1.262400    1.670639   -0.001770
siesta: Electric dipole (Debye) =   -3.208704    4.246344   -0.004498

cite: Please see "AT.bib" for an exhaustive BiBTeX file.
cite: Please clearly indicate Siesta version in published work: v4.1.5-1-g384057250
cite: This calculation has made use of the following articles
cite: which are encouraged to be cited in a published work.
        Primary SIESTA paper
          DOI: www.doi.org/10.1088/0953-8984/14/11/302
        Spin-orbit coupling (on-site approximation)
          DOI: www.doi.org/10.1088/0953-8984/19/19/489001


WARNING: alloc-realloc-dealloc name mismatch
         Name: atomlist isa
         Size:              -120. Bytes
         Node:     0
         Subsequent mismatches will not be reported
>> End of run:  16-OCT-2023  20:53:25
Job completed
