Siesta Version  : v4.1.5-1-g384057250
Architecture    : gcc
Compiler version: GNU Fortran (Ubuntu 11.3.0-1ubuntu1~22.04) 11.3.0
Compiler flags  : mpifort -O2 -fPIC -ftree-vectorize -fallow-argument-mismatch
PP flags        : -DFC_HAVE_ABORT -DMPI -DSIESTA__FLOOK -DSIESTA__METIS -DSIESTA__MUMPS -DCDF -DNCDF -DNCDF_4 -DNCDF_PARALLEL -DSIESTA__MRRR -DSIESTA__ELPA
Libraries       : libncdf.a libfdict.a  -lflookall -ldl -lnetcdff -lnetcdf -lhdf5_hl -lhdf5 -lhdf5_fortran -lz -lscalapack-openmpi -lopenblas -lmetis -lzmumps -lcmumps -ldmumps -lmumps_common -lpord -lsmumps -lesmumps -lscotch -lscotcherr -fopenmp -lelpa
PARALLEL version
NetCDF support
NetCDF-4 support
NetCDF-4 MPI-IO support
METIS ordering support
Lua support

* Running on 4 nodes in parallel
>> Start of run:  28-JUN-2023  19:06:19

                           ***********************       
                           *  WELCOME TO SIESTA  *       
                           ***********************       

reinit: Reading from standard input
reinit: Dumped input in INPUT_TMP.37663
************************** Dump of input data file ****************************
SystemLabel      GC
NumberOfAtoms    29
NumberOfSpecies  4
%block ChemicalSpeciesLabel
    1    8  O
    2    7  N
    3   14  Si
    4    1  H
%endblock ChemicalSpeciesLabel
# Single point calculation
MD.TypeOfRun                CG
MD.Steps                    0
SCF.MustConverge            F # In case it does not. There can be 2 very close atoms
AtomicCoordinatesFormat NotScaledCartesianAng
%block AtomicCoordinatesAndAtomicSpecies
1.043624880    3.939228610    0.000000000       1
-3.040641290   1.071078170    0.000000000       2
2.054601450    1.213582070    0.000000000       2
0.999014100    -1.732643800   0.000000000       2
-2.132351640   -1.812968220   0.000000000       2
3.860190550    -1.112298180   0.000000000       2
-1.236183220   1.152964460    0.000000000       3
-0.532924260   -0.939006270   0.000000000       3
0.635660470    2.374516770    0.000000000       3
2.245170240    -0.549967100   0.000000000       3
-3.449816660   -0.583665030   0.000000000       3
2.963714090    1.790992630    0.000000000       4
-4.845591350   -1.123549660   0.000000000       4
4.007020910    -2.152308560   0.000000000       4
4.772194380    -0.502318160   0.000000000       4
-2.265399090   -2.864605110   0.000000000       4
5.693816254    5.415557782    0.000000000       3
7.598700224    6.622196722    0.000000000       3
7.102946084    2.649222812    0.000000000       3
9.180416374    5.118439972    0.000000000       3
5.753438924    3.698130212    0.000000000       2
4.154681194    6.169235092    0.000000000       2
8.755241344    3.379060032    0.000000000       2
7.790045024    8.114350472    0.000000000       4
10.664784354   5.337170792    0.000000000       4
4.043335914    7.218430202    0.000000000       4
3.222123484    5.544320912    0.000000000       4
7.092719254    1.041111692    0.000000000       1
9.530667224    2.652368472    0.000000000       4
%endblock AtomicCoordinatesAndAtomicSpecies
%include ../../../Defaults.fdf
************************** End of input data file *****************************

reinit: -----------------------------------------------------------------------
reinit: System Name: 
reinit: -----------------------------------------------------------------------
reinit: System Label: GC
reinit: -----------------------------------------------------------------------

initatom: Reading input for the pseudopotentials and atomic orbitals ----------
Species number:   1 Atomic number:    8 Label: O
Species number:   2 Atomic number:    7 Label: N
Species number:   3 Atomic number:   14 Label: Si
Species number:   4 Atomic number:    1 Label: H

Ground state valence configuration:   2s02  2p04
Reading pseudopotential information in formatted form from O.psf

Pseudopotential generated from a relativistic atomic calculation

Valence configuration for pseudopotential generation:
2s( 2.00) rc: 0.45
2p( 4.00) rc: 0.92
3d( 0.00) rc: 2.24
4f( 0.00) rc: 0.25
Ground state valence configuration:   2s02  2p03
Reading pseudopotential information in formatted form from N.psf

Pseudopotential generated from a relativistic atomic calculation

Valence configuration for pseudopotential generation:
2s( 2.00) rc: 0.94
2p( 3.00) rc: 0.59
3d( 0.00) rc: 3.46
4f( 0.00) rc: 2.47
Ground state valence configuration:   3s02  3p02
Reading pseudopotential information in formatted form from Si.psf

Pseudopotential generated from a relativistic atomic calculation

Valence configuration for pseudopotential generation:
3s( 2.00) rc: 1.67
3p( 2.00) rc: 2.04
3d( 0.00) rc: 2.89
4f( 0.00) rc: 2.49
Ground state valence configuration:   1s01
Reading pseudopotential information in formatted form from H.psf

Pseudopotential generated from a relativistic atomic calculation

Valence configuration for pseudopotential generation:
1s( 1.00) rc: 0.01
2p( 0.00) rc: 0.60
3d( 0.00) rc: 1.99
4f( 0.00) rc: 2.49
For O, standard SIESTA heuristics set lmxkb to 3
 (one more than the basis l, including polarization orbitals).
Use PS.lmax or PS.KBprojectors blocks to override.
For N, standard SIESTA heuristics set lmxkb to 3
 (one more than the basis l, including polarization orbitals).
Use PS.lmax or PS.KBprojectors blocks to override.
For Si, standard SIESTA heuristics set lmxkb to 3
 (one more than the basis l, including polarization orbitals).
Use PS.lmax or PS.KBprojectors blocks to override.
For H, standard SIESTA heuristics set lmxkb to 2
 (one more than the basis l, including polarization orbitals).
Use PS.lmax or PS.KBprojectors blocks to override.

<basis_specs>
===============================================================================
O                    Z=   8    Mass=  16.000        Charge= 0.17977+309
Lmxo=1 Lmxkb= 3    BasisType=split      Semic=F
L=0  Nsemic=0  Cnfigmx=2
          i=1  nzeta=2  polorb=0  (2s)
            splnorm:   0.28000    
               vcte:    0.0000    
               rinn:    0.0000    
               qcoe:    0.0000    
               qyuk:    0.0000    
               qwid:   0.10000E-01
                rcs:    0.0000      0.0000    
            lambdas:    1.0000      1.0000    
L=1  Nsemic=0  Cnfigmx=2
          i=1  nzeta=2  polorb=1  (2p)
            splnorm:   0.28000    
               vcte:    0.0000    
               rinn:    0.0000    
               qcoe:    0.0000    
               qyuk:    0.0000    
               qwid:   0.10000E-01
                rcs:    0.0000      0.0000    
            lambdas:    1.0000      1.0000    
-------------------------------------------------------------------------------
L=0  Nkbl=1  erefs: 0.17977+309
L=1  Nkbl=1  erefs: 0.17977+309
L=2  Nkbl=1  erefs: 0.17977+309
L=3  Nkbl=1  erefs: 0.17977+309
===============================================================================
</basis_specs>

atom: Called for O                     (Z =   8)

read_vps: Pseudopotential generation method:
read_vps: ATM4.2.7  Troullier-Martins                       
Valence charge for ps generation:    6.00000

xc_check: Exchange-correlation functional:
xc_check: GGA Perdew, Burke & Ernzerhof 1996
V l=0 = -2*Zval/r beyond r=  1.1000
V l=1 = -2*Zval/r beyond r=  1.1000
V l=2 = -2*Zval/r beyond r=  2.2154
V l=3 = -2*Zval/r beyond r=  1.1000
All V_l potentials equal beyond r=  2.2154
This should be close to max(r_c) in ps generation
All pots = -2*Zval/r beyond r=  2.2154

VLOCAL1: 99.0% of the norm of Vloc inside      8.845 Ry
VLOCAL1: 99.9% of the norm of Vloc inside     20.157 Ry
atom: Maximum radius for 4*pi*r*r*local-pseudopot. charge    2.67231
atom: Maximum radius for r*vlocal+2*Zval:    2.32897
GHOST: No ghost state for L =  0
GHOST: No ghost state for L =  1
GHOST: No ghost state for L =  2
GHOST: No ghost state for L =  3

KBgen: Kleinman-Bylander projectors: 
   l= 0   rc=  2.243238   el= -1.759686   Ekb=**********   kbcos= -0.171774
   l= 1   rc=  2.328968   el= -0.663873   Ekb=-14.506792   kbcos= -0.519897
   l= 2   rc=  2.573941   el=  0.002031   Ekb= -1.137373   kbcos= -0.019581
   l= 3   rc=  2.606321   el=  0.003153   Ekb= -1.013546   kbcos= -0.003122

KBgen: Total number of Kleinman-Bylander projectors:   16
atom: -------------------------------------------------------------------------

atom: SANKEY-TYPE ORBITALS:
atom: Selected multiple-zeta basis: split     

SPLIT: Orbitals with angular momentum L= 0

SPLIT: Basis orbitals for state 2s

SPLIT: PAO cut-off radius determined from an
SPLIT: energy shift=  0.002000 Ry

   izeta = 1
                 lambda =    1.000000
                     rc =    4.243912
                 energy =   -1.758270
                kinetic =    3.286084
    potential(screened) =   -5.044353
       potential(ionic) =  -12.921184

   izeta = 2
                 rmatch =    2.187845
              splitnorm =    0.280000
                 energy =   -0.885018
                kinetic =    8.134434
    potential(screened) =   -9.019452
       potential(ionic) =  -17.710645

SPLIT: Orbitals with angular momentum L= 1

SPLIT: Basis orbitals for state 2p

SPLIT: PAO cut-off radius determined from an
SPLIT: energy shift=  0.002000 Ry

   izeta = 1
                 lambda =    1.000000
                     rc =    5.314825
                 energy =   -0.661986
                kinetic =    4.917472
    potential(screened) =   -5.579458
       potential(ionic) =  -13.236259

   izeta = 2
                 rmatch =    2.160663
              splitnorm =    0.280000
                 energy =   -0.068760
                kinetic =    9.183374
    potential(screened) =   -9.252135
       potential(ionic) =  -18.274251

POLgen: Perturbative polarization orbital with L=  2

POLgen: Polarization orbital for state 2p

   izeta = 1
                     rc =    5.314825
                 energy =    1.970580
                kinetic =    3.886128
    potential(screened) =   -1.915547
       potential(ionic) =   -7.749584
atom: Total number of Sankey-type orbitals: 13

atm_pop: Valence configuration (for local Pseudopot. screening):
 2s( 2.00)                                                            
 2p( 4.00)                                                            
Vna: chval, zval:    6.00000   6.00000

Vna:  Cut-off radius for the neutral-atom potential:   5.314825

atom: _________________________________________________________________________

<basis_specs>
===============================================================================
N                    Z=   7    Mass=  14.010        Charge= 0.17977+309
Lmxo=1 Lmxkb= 3    BasisType=split      Semic=F
L=0  Nsemic=0  Cnfigmx=2
          i=1  nzeta=2  polorb=0  (2s)
            splnorm:   0.28000    
               vcte:    0.0000    
               rinn:    0.0000    
               qcoe:    0.0000    
               qyuk:    0.0000    
               qwid:   0.10000E-01
                rcs:    0.0000      0.0000    
            lambdas:    1.0000      1.0000    
L=1  Nsemic=0  Cnfigmx=2
          i=1  nzeta=2  polorb=1  (2p)
            splnorm:   0.28000    
               vcte:    0.0000    
               rinn:    0.0000    
               qcoe:    0.0000    
               qyuk:    0.0000    
               qwid:   0.10000E-01
                rcs:    0.0000      0.0000    
            lambdas:    1.0000      1.0000    
-------------------------------------------------------------------------------
L=0  Nkbl=1  erefs: 0.17977+309
L=1  Nkbl=1  erefs: 0.17977+309
L=2  Nkbl=1  erefs: 0.17977+309
L=3  Nkbl=1  erefs: 0.17977+309
===============================================================================
</basis_specs>

atom: Called for N                     (Z =   7)

read_vps: Pseudopotential generation method:
read_vps: ATM4.2.7  Troullier-Martins                       
Valence charge for ps generation:    5.00000

xc_check: Exchange-correlation functional:
xc_check: GGA Perdew, Burke & Ernzerhof 1996
V l=0 = -2*Zval/r beyond r=  1.2889
V l=1 = -2*Zval/r beyond r=  1.2889
V l=2 = -2*Zval/r beyond r=  3.4178
V l=3 = -2*Zval/r beyond r=  2.4084
All V_l potentials equal beyond r=  3.3753
This should be close to max(r_c) in ps generation
All pots = -2*Zval/r beyond r=  3.4178

VLOCAL1: 99.0% of the norm of Vloc inside      3.810 Ry
VLOCAL1: 99.9% of the norm of Vloc inside      8.683 Ry
atom: Maximum radius for 4*pi*r*r*local-pseudopot. charge    4.02088
atom: Maximum radius for r*vlocal+2*Zval:    3.54838
GHOST: No ghost state for L =  0
GHOST: No ghost state for L =  1
GHOST: No ghost state for L =  2
GHOST: No ghost state for L =  3

KBgen: Kleinman-Bylander projectors: 
   l= 0   rc=  3.417763   el= -1.365098   Ekb= -4.433130   kbcos= -0.707855
   l= 1   rc=  3.375302   el= -0.521201   Ekb=-13.264039   kbcos= -0.535594
   l= 2   rc=  3.872880   el=  0.001991   Ekb= -0.641094   kbcos= -0.062456
   l= 3   rc=  3.970931   el=  0.003093   Ekb= -0.474517   kbcos= -0.018236

KBgen: Total number of Kleinman-Bylander projectors:   16
atom: -------------------------------------------------------------------------

atom: SANKEY-TYPE ORBITALS:
atom: Selected multiple-zeta basis: split     

SPLIT: Orbitals with angular momentum L= 0

SPLIT: Basis orbitals for state 2s

SPLIT: PAO cut-off radius determined from an
SPLIT: energy shift=  0.002000 Ry

   izeta = 1
                 lambda =    1.000000
                     rc =    4.730425
                 energy =   -1.363399
                kinetic =    1.245246
    potential(screened) =   -2.608645
       potential(ionic) =   -8.121105

   izeta = 2
                 rmatch =    2.531849
              splitnorm =    0.280000
                 energy =   -0.959908
                kinetic =    2.409435
    potential(screened) =   -3.369343
       potential(ionic) =   -9.427975

SPLIT: Orbitals with angular momentum L= 1

SPLIT: Basis orbitals for state 2p

SPLIT: PAO cut-off radius determined from an
SPLIT: energy shift=  0.002000 Ry

   izeta = 1
                 lambda =    1.000000
                     rc =    5.924108
                 energy =   -0.519262
                kinetic =    3.672940
    potential(screened) =   -4.192202
       potential(ionic) =   -9.518354

   izeta = 2
                 rmatch =    2.531849
              splitnorm =    0.280000
                 energy =   -0.104258
                kinetic =    6.807538
    potential(screened) =   -6.911796
       potential(ionic) =  -13.149920

POLgen: Perturbative polarization orbital with L=  2

POLgen: Polarization orbital for state 2p

   izeta = 1
                     rc =    5.924108
                 energy =    1.427508
                kinetic =    2.872379
    potential(screened) =   -1.444871
       potential(ionic) =   -5.563644
atom: Total number of Sankey-type orbitals: 13

atm_pop: Valence configuration (for local Pseudopot. screening):
 2s( 2.00)                                                            
 2p( 3.00)                                                            
Vna: chval, zval:    5.00000   5.00000

Vna:  Cut-off radius for the neutral-atom potential:   5.924108

atom: _________________________________________________________________________

<basis_specs>
===============================================================================
Si                   Z=  14    Mass=  28.090        Charge= 0.17977+309
Lmxo=1 Lmxkb= 3    BasisType=split      Semic=F
L=0  Nsemic=0  Cnfigmx=3
          i=1  nzeta=2  polorb=0  (3s)
            splnorm:   0.28000    
               vcte:    0.0000    
               rinn:    0.0000    
               qcoe:    0.0000    
               qyuk:    0.0000    
               qwid:   0.10000E-01
                rcs:    0.0000      0.0000    
            lambdas:    1.0000      1.0000    
L=1  Nsemic=0  Cnfigmx=3
          i=1  nzeta=2  polorb=1  (3p)
            splnorm:   0.28000    
               vcte:    0.0000    
               rinn:    0.0000    
               qcoe:    0.0000    
               qyuk:    0.0000    
               qwid:   0.10000E-01
                rcs:    0.0000      0.0000    
            lambdas:    1.0000      1.0000    
-------------------------------------------------------------------------------
L=0  Nkbl=1  erefs: 0.17977+309
L=1  Nkbl=1  erefs: 0.17977+309
L=2  Nkbl=1  erefs: 0.17977+309
L=3  Nkbl=1  erefs: 0.17977+309
===============================================================================
</basis_specs>

atom: Called for Si                    (Z =  14)

read_vps: Pseudopotential generation method:
read_vps: ATM4.2.7  Troullier-Martins                       
Valence charge for ps generation:    4.00000

xc_check: Exchange-correlation functional:
xc_check: GGA Perdew, Burke & Ernzerhof 1996
V l=0 = -2*Zval/r beyond r=  2.7826
V l=1 = -2*Zval/r beyond r=  2.7826
V l=2 = -2*Zval/r beyond r=  2.9253
V l=3 = -2*Zval/r beyond r=  2.7826
All V_l potentials equal beyond r=  2.8530
This should be close to max(r_c) in ps generation
All pots = -2*Zval/r beyond r=  2.9253

VLOCAL1: 99.0% of the norm of Vloc inside      5.333 Ry
VLOCAL1: 99.9% of the norm of Vloc inside     12.154 Ry
atom: Maximum radius for 4*pi*r*r*local-pseudopot. charge    3.39869
atom: Maximum radius for r*vlocal+2*Zval:    2.96205
GHOST: No ghost state for L =  0
GHOST: No ghost state for L =  1
GHOST: No ghost state for L =  2
GHOST: No ghost state for L =  3

KBgen: Kleinman-Bylander projectors: 
   l= 0   rc=  3.075247   el= -0.794092   Ekb=  5.879390   kbcos=  0.167461
   l= 1   rc=  3.153101   el= -0.300068   Ekb=  2.642817   kbcos=  0.058301
   l= 2   rc=  3.273594   el=  0.001958   Ekb= -1.185135   kbcos= -0.104411
   l= 3   rc=  3.232927   el=  0.003046   Ekb= -0.497174   kbcos= -0.015889

KBgen: Total number of Kleinman-Bylander projectors:   16
atom: -------------------------------------------------------------------------

atom: SANKEY-TYPE ORBITALS:
atom: Selected multiple-zeta basis: split     

SPLIT: Orbitals with angular momentum L= 0

SPLIT: Basis orbitals for state 3s

SPLIT: PAO cut-off radius determined from an
SPLIT: energy shift=  0.002000 Ry

   izeta = 1
                 lambda =    1.000000
                     rc =    6.429618
                 energy =   -0.792283
                kinetic =    0.525293
    potential(screened) =   -1.317576
       potential(ionic) =   -3.744923

   izeta = 2
                 rmatch =    3.998416
              splitnorm =    0.280000
                 energy =   -0.583081
                kinetic =    1.069570
    potential(screened) =   -1.652651
       potential(ionic) =   -4.235185

SPLIT: Orbitals with angular momentum L= 1

SPLIT: Basis orbitals for state 3p

SPLIT: PAO cut-off radius determined from an
SPLIT: energy shift=  0.002000 Ry

   izeta = 1
                 lambda =    1.000000
                     rc =    8.464845
                 energy =   -0.298236
                kinetic =    0.785360
    potential(screened) =   -1.083596
       potential(ionic) =   -3.273779

   izeta = 2
                 rmatch =    4.587816
              splitnorm =    0.280000
                 energy =   -0.131871
                kinetic =    1.403687
    potential(screened) =   -1.535557
       potential(ionic) =   -4.015310

POLgen: Perturbative polarization orbital with L=  2

POLgen: Polarization orbital for state 3p

   izeta = 1
                     rc =    8.464845
                 energy =    0.321949
                kinetic =    1.055677
    potential(screened) =   -0.733728
       potential(ionic) =   -2.672950
atom: Total number of Sankey-type orbitals: 13

atm_pop: Valence configuration (for local Pseudopot. screening):
 3s( 2.00)                                                            
 3p( 2.00)                                                            
Vna: chval, zval:    4.00000   4.00000

Vna:  Cut-off radius for the neutral-atom potential:   8.464845

atom: _________________________________________________________________________

<basis_specs>
===============================================================================
H                    Z=   1    Mass=  1.0100        Charge= 0.17977+309
Lmxo=0 Lmxkb= 2    BasisType=split      Semic=F
L=0  Nsemic=0  Cnfigmx=1
          i=1  nzeta=2  polorb=1  (1s)
            splnorm:   0.62000    
               vcte:    0.0000    
               rinn:    0.0000    
               qcoe:    0.0000    
               qyuk:    0.0000    
               qwid:   0.10000E-01
                rcs:    0.0000      0.0000    
            lambdas:    1.0000      1.0000    
-------------------------------------------------------------------------------
L=0  Nkbl=1  erefs: 0.17977+309
L=1  Nkbl=1  erefs: 0.17977+309
L=2  Nkbl=1  erefs: 0.17977+309
===============================================================================
</basis_specs>

atom: Called for H                     (Z =   1)

read_vps: Pseudopotential generation method:
read_vps: ATM4.2.7  Troullier-Martins                       
Valence charge for ps generation:    1.00000

xc_check: Exchange-correlation functional:
xc_check: GGA Perdew, Burke & Ernzerhof 1996
V l=0 = -2*Zval/r beyond r=  0.0098
V l=1 = -2*Zval/r beyond r=  0.5817
V l=2 = -2*Zval/r beyond r=  1.9372
All V_l potentials equal beyond r=  1.9372
This should be close to max(r_c) in ps generation
All pots = -2*Zval/r beyond r=  1.9372

VLOCAL1: 99.0% of the norm of Vloc inside     11.567 Ry
VLOCAL1: 99.9% of the norm of Vloc inside     26.362 Ry
atom: Maximum radius for 4*pi*r*r*local-pseudopot. charge    2.25106
atom: Maximum radius for r*vlocal+2*Zval:    1.91306
GHOST: No ghost state for L =  0
GHOST: No ghost state for L =  1
GHOST: No ghost state for L =  2

KBgen: Kleinman-Bylander projectors: 
   l= 0   rc=  2.036604   el= -0.477180   Ekb= -6.081590   kbcos= -0.277285
   l= 1   rc=  2.195416   el=  0.001076   Ekb= -0.926943   kbcos= -0.034643
   l= 2   rc=  2.251056   el=  0.002010   Ekb= -0.130941   kbcos= -0.009788

KBgen: Total number of Kleinman-Bylander projectors:    9
atom: -------------------------------------------------------------------------

atom: SANKEY-TYPE ORBITALS:
atom: Selected multiple-zeta basis: split     

SPLIT: Orbitals with angular momentum L= 0

SPLIT: Basis orbitals for state 1s

SPLIT: PAO cut-off radius determined from an
SPLIT: energy shift=  0.002000 Ry

   izeta = 1
                 lambda =    1.000000
                     rc =    6.518340
                 energy =   -0.475305
                kinetic =    0.912139
    potential(screened) =   -1.387444
       potential(ionic) =   -1.907295

   izeta = 2
                 rmatch =    2.141150
              splitnorm =    0.620000
                 energy =    0.566467
                kinetic =    3.772856
    potential(screened) =   -3.206389
       potential(ionic) =   -3.759093

POLgen: Perturbative polarization orbital with L=  1

POLgen: Polarization orbital for state 1s

   izeta = 1
                     rc =    6.518340
                 energy =    0.533861
                kinetic =    1.121086
    potential(screened) =   -0.587225
       potential(ionic) =   -1.053027
atom: Total number of Sankey-type orbitals:  5

atm_pop: Valence configuration (for local Pseudopot. screening):
 1s( 1.00)                                                            
Vna: chval, zval:    1.00000   1.00000

Vna:  Cut-off radius for the neutral-atom potential:   6.518340

atom: _________________________________________________________________________

prinput: Basis input ----------------------------------------------------------

PAO.BasisType split     

%block ChemicalSpeciesLabel
    1    8 O                       # Species index, atomic number, species label
    2    7 N                       # Species index, atomic number, species label
    3   14 Si                      # Species index, atomic number, species label
    4    1 H                       # Species index, atomic number, species label
%endblock ChemicalSpeciesLabel

%block PAO.Basis                 # Define Basis set
O                     2                    # Species label, number of l-shells
 n=2   0   2                         # n, l, Nzeta 
   4.244      2.188   
   1.000      1.000   
 n=2   1   2 P   1                   # n, l, Nzeta, Polarization, NzetaPol
   5.315      2.161   
   1.000      1.000   
N                     2                    # Species label, number of l-shells
 n=2   0   2                         # n, l, Nzeta 
   4.730      2.532   
   1.000      1.000   
 n=2   1   2 P   1                   # n, l, Nzeta, Polarization, NzetaPol
   5.924      2.532   
   1.000      1.000   
Si                    2                    # Species label, number of l-shells
 n=3   0   2                         # n, l, Nzeta 
   6.430      3.998   
   1.000      1.000   
 n=3   1   2 P   1                   # n, l, Nzeta, Polarization, NzetaPol
   8.465      4.588   
   1.000      1.000   
H                     1                    # Species label, number of l-shells
 n=1   0   2 P   1                   # n, l, Nzeta, Polarization, NzetaPol
   6.518      2.141   
   1.000      1.000   
%endblock PAO.Basis

prinput: ----------------------------------------------------------------------

Dumping basis to NetCDF file O.ion.nc
Dumping basis to NetCDF file N.ion.nc
Dumping basis to NetCDF file Si.ion.nc
Dumping basis to NetCDF file H.ion.nc
coor:   Atomic-coordinates input format  =     Cartesian coordinates
coor:                                          (in Angstroms)

siesta: Atomic coordinates (Bohr) and species
siesta:      1.97217   7.44407   0.00000  1        1
siesta:     -5.74598   2.02405   0.00000  2        2
siesta:      3.88264   2.29334   0.00000  2        3
siesta:      1.88786  -3.27422   0.00000  2        4
siesta:     -4.02956  -3.42601   0.00000  2        5
siesta:      7.29471  -2.10194   0.00000  2        6
siesta:     -2.33605   2.17879   0.00000  3        7
siesta:     -1.00708  -1.77447   0.00000  3        8
siesta:      1.20122   4.48719   0.00000  3        9
siesta:      4.24276  -1.03929   0.00000  3       10
siesta:     -6.51921  -1.10297   0.00000  3       11
siesta:      5.60061   3.38449   0.00000  4       12
siesta:     -9.15684  -2.12320   0.00000  4       13
siesta:      7.57218  -4.06728   0.00000  4       14
siesta:      9.01814  -0.94924   0.00000  4       15
siesta:     -4.28099  -5.41332   0.00000  4       16
siesta:     10.75976  10.23393   0.00000  3       17
siesta:     14.35947  12.51414   0.00000  3       18
siesta:     13.42263   5.00631   0.00000  3       19
siesta:     17.34848   9.67245   0.00000  3       20
siesta:     10.87243   6.98846   0.00000  2       21
siesta:      7.85121  11.65817   0.00000  2       22
siesta:     16.54501   6.38550   0.00000  2       23
siesta:     14.72106  15.33391   0.00000  4       24
siesta:     20.15353  10.08580   0.00000  4       25
siesta:      7.64080  13.64086   0.00000  4       26
siesta:      6.08893  10.47725   0.00000  4       27
siesta:     13.40330   1.96742   0.00000  1       28
siesta:     18.01036   5.01225   0.00000  4       29

siesta: Automatic unit cell vectors (Ang):
siesta:   24.649996    0.000000    0.000000
siesta:    0.000000   19.665434    0.000000
siesta:    0.000000    0.000000    9.854683

siesta: System type = molecule  

initatomlists: Number of atoms, orbitals, and projectors:     29   297   394

siesta: ******************** Simulation parameters ****************************
siesta:
siesta: The following are some of the parameters of the simulation.
siesta: A complete list of the parameters used, including default values,
siesta: can be found in file out.fdf
siesta:
redata: Spin configuration                          = spin-orbit
redata: Number of spin components                   = 8
redata: Time-Reversal Symmetry                      = F
redata: Spin spiral                                 = F
############################################################
This spin-orbit implementation uses a local approximation.
From 4.2 and onwards the full non-local approximation is implemented
You are strongly advised to use >=4.2 versions!
############################################################
redata: Long output                                 =   F
redata: Number of Atomic Species                    =        4
redata: Charge density info will appear in .RHO file
redata: Write Mulliken Pop.                         = Atomic and Orbital charges
redata: Matel table size (NRTAB)                    =     1024
redata: Mesh Cutoff                                 =   340.0000 Ry
redata: Net charge of the system                    =     0.0000 |e|
redata: Min. number of SCF Iter                     =        1
redata: Max. number of SCF Iter                     =      200
redata: SCF mix quantity                            = Hamiltonian
redata: Mix DM or H after convergence               =   F
redata: Recompute H after scf cycle                 =   F
redata: Mix DM in first SCF step                    =   T
redata: Write Pulay info on disk                    =   F
redata: New DM Occupancy tolerance                  = 0.000000000001
redata: No kicks to SCF
redata: DM Mixing Weight for Kicks                  =     0.5000
redata: Require Harris convergence for SCF          =   F
redata: Harris energy tolerance for SCF             =     0.000100 eV
redata: Require DM convergence for SCF              =   T
redata: DM tolerance for SCF                        =     0.000008
redata: Require EDM convergence for SCF             =   F
redata: EDM tolerance for SCF                       =     0.001000 eV
redata: Require H convergence for SCF               =   T
redata: Hamiltonian tolerance for SCF               =     0.000001 eV
redata: Require (free) Energy convergence for SCF   =   F
redata: (free) Energy tolerance for SCF             =     0.000100 eV
redata: Using Saved Data (generic)                  =   F
redata: Use continuation files for DM               =   F
redata: Neglect nonoverlap interactions             =   F
redata: Method of Calculation                       = Diagonalization
redata: Electronic Temperature                      =   299.9978 K
redata: Fix the spin of the system                  =   F
redata: Dynamics option                             = Single-point calculation
mix.SCF: Pulay mixing                            = Pulay
mix.SCF:    Variant                              = stable
mix.SCF:    History steps                        = 6
mix.SCF:    Linear mixing weight                 =     0.250000
mix.SCF:    Mixing weight                        =     0.250000
mix.SCF:    SVD condition                        = 0.1000E-07
mix.SCF:    Restart steps                        = 24
mix.SCF:    Restart save steps                   = 3
mix.SCF: Spin-component mixing                   all
redata: Save all siesta data in one NC              =   F
redata: ***********************************************************************

%block SCF.Mixers
  Pulay
%endblock SCF.Mixers

%block SCF.Mixer.Pulay
  # Mixing method
  method pulay
  variant stable

  # Mixing options
  weight 0.2500
  weight.linear 0.2500
  history 6
  restart 24
  restart.save 3
%endblock SCF.Mixer.Pulay

DM_history_depth set to one: no extrapolation allowed by default for geometry relaxation
Size of DM history Fstack: 1
Total number of electrons:    98.000000
Total ionic charge:    98.000000

* ProcessorY, Blocksize:    2  24


* Orbital distribution balance (max,min):    81    72


Time-reversal symmetry not used.

siesta: k-grid: Number of k-points =     1
siesta: k-grid: Cutoff (effective) =     4.927 Ang
siesta: k-grid: Supercell and displacements
siesta: k-grid:    1   0   0      0.000
siesta: k-grid:    0   1   0      0.000
siesta: k-grid:    0   0   1      0.000

diag: Algorithm                                     = ELPA-1stage
diag: Parallel over k                               =   F
diag: Use parallel 2D distribution                  =   T
diag: Parallel block-size                           = 24
diag: Parallel distribution                         =     2 x     2
diag: Used triangular part                          = Lower
diag: Absolute tolerance                            =  0.100E-15
diag: Orthogonalization factor                      =  0.100E-05
diag: Memory factor                                 =  1.0000


ts: **************************************************************
ts: Save H and S matrices                           =    F
ts: Save DM and EDM matrices                        =    F
ts: Only save the overlap matrix S                  =    F
ts: **************************************************************

************************ Begin: TS CHECKS AND WARNINGS ************************
************************ End: TS CHECKS AND WARNINGS **************************


                     ====================================
                        Single-point calculation
                     ====================================

outcoor: Atomic coordinates (Ang):                          
    1.04362488    3.93922861    0.00000000   1       1  O
   -3.04064129    1.07107817    0.00000000   2       2  N
    2.05460145    1.21358207    0.00000000   2       3  N
    0.99901410   -1.73264380    0.00000000   2       4  N
   -2.13235164   -1.81296822    0.00000000   2       5  N
    3.86019055   -1.11229818    0.00000000   2       6  N
   -1.23618322    1.15296446    0.00000000   3       7  Si
   -0.53292426   -0.93900627    0.00000000   3       8  Si
    0.63566047    2.37451677    0.00000000   3       9  Si
    2.24517024   -0.54996710    0.00000000   3      10  Si
   -3.44981666   -0.58366503    0.00000000   3      11  Si
    2.96371409    1.79099263    0.00000000   4      12  H
   -4.84559135   -1.12354966    0.00000000   4      13  H
    4.00702091   -2.15230856    0.00000000   4      14  H
    4.77219438   -0.50231816    0.00000000   4      15  H
   -2.26539909   -2.86460511    0.00000000   4      16  H
    5.69381625    5.41555778    0.00000000   3      17  Si
    7.59870022    6.62219672    0.00000000   3      18  Si
    7.10294608    2.64922281    0.00000000   3      19  Si
    9.18041637    5.11843997    0.00000000   3      20  Si
    5.75343892    3.69813021    0.00000000   2      21  N
    4.15468119    6.16923509    0.00000000   2      22  N
    8.75524134    3.37906003    0.00000000   2      23  N
    7.79004502    8.11435047    0.00000000   4      24  H
   10.66478435    5.33717079    0.00000000   4      25  H
    4.04333591    7.21843020    0.00000000   4      26  H
    3.22212348    5.54432091    0.00000000   4      27  H
    7.09271925    1.04111169    0.00000000   1      28  O
    9.53066722    2.65236847    0.00000000   4      29  H

outcell: Unit cell vectors (Ang):
       24.649996    0.000000    0.000000
        0.000000   19.665434    0.000000
        0.000000    0.000000    9.854683

outcell: Cell vector modules (Ang)   :   24.649996   19.665434    9.854683
outcell: Cell angles (23,13,12) (deg):     90.0000     90.0000     90.0000
outcell: Cell volume (Ang**3)        :   4777.0860
<dSpData1D:S at geom step 0
  <sparsity:sparsity for geom step 0
    nrows_g=297 nrows=81 sparsity=.2056 nnzs=18138, refcount: 8>
  <dData1D:(new from dSpData1D) n=18138, refcount: 1>
refcount: 1>
new_DM -- step:     1
Initializing Density Matrix...
DM filled with atomic data:
<dSpData2D:DM initialized from atoms
  <sparsity:sparsity for geom step 0
    nrows_g=297 nrows=81 sparsity=.2056 nnzs=18138, refcount: 9>
  <dData2D:DM n=18138 m=8, refcount: 1>
refcount: 1>
     spin moment: S , {S} =   56.00000   0.00000   0.00000  56.00000
No. of atoms with KB's overlaping orbs in proc 0. Max # of overlaps:      29     175

Initializing spin-orbit part of the Hamiltonian
  Adding spin-orbit effects for O 
  Adding spin-orbit effects for N 
  Adding spin-orbit effects for Si
  Adding spin-orbit effects for H 


New grid distribution:   1
           1       1:  144    1:   60    1:   30
           2       1:  144    1:   60   31:   60
           3       1:  144   61:  120    1:   30
           4       1:  144   61:  120   31:   60

InitMesh: MESH =   288 x   240 x   120 =     8294400
InitMesh: (bp) =   144 x   120 x    60 =     1036800
InitMesh: Mesh cutoff (required, used) =   340.000   377.271 Ry
ExtMesh (bp) on 0 =   252 x   172 x   142 =     6154848
New grid distribution:   2
           1      40:  144    1:   29    1:   60
           2       1:   39    1:   28    1:   60
           3      40:  144   30:  120    1:   60
           4       1:   39   29:  120    1:   60
New grid distribution:   3
           1      48:  144    1:   35    1:   60
           2       1:   47    1:   40    1:   60
           3      48:  144   36:  120    1:   60
           4       1:   47   41:  120    1:   60
Setting up quadratic distribution...
ExtMesh (bp) on 0 =   213 x   141 x   172 =     5165676
PhiOnMesh: Number of (b)points on node 0 =               182700
PhiOnMesh: nlist on node 0 =              2781251

stepf: Fermi-Dirac step function

siesta: Program's energy decomposition (eV):
siesta: Ebs     =      -615.775908
siesta: Eions   =      3585.165840
siesta: Ena     =       381.986778
siesta: Ekin    =      3365.785337
siesta: Enl     =     -3294.829367
siesta: Eso     =        -0.003420
siesta: Edftu   =         0.000000
siesta: DEna    =       153.295850
siesta: DUscf   =        79.978505
siesta: DUext   =         0.000000
siesta: Exc     =     -1203.323547
siesta: eta*DQ  =         0.000000
siesta: Emadel  =         0.000000
siesta: Emeta   =         0.000000
siesta: Emolmec =         0.000000
siesta: Ekinion =         0.000000
siesta: Eharris =     -4025.710684
siesta: Etot    =     -4102.275704
siesta: FreeEng =     -4102.277099

        iscf     Eharris(eV)        E_KS(eV)     FreeEng(eV)     dDmax    Ef(eV) dHmax(eV)
   scf:    1    -4025.710684    -4102.275704    -4102.277099  0.962743 -4.905116 21.403386
     spin moment: S , {S} =    2.00718   0.00000   0.00000   2.00718
timer: Routine,Calls,Time,% = IterSCF        1      13.159  18.08
   scf:    2    -4149.012919    -4137.393700    -4137.395257  0.457550 -4.209873 11.399820
     spin moment: S , {S} =    1.99084   0.00000   0.00000   1.99084
   scf:    3    -4110.694257    -4134.891816    -4134.906877  0.426275 -4.289311 11.472359
     spin moment: S , {S} =    2.00041  -0.00000   0.00000   2.00041
   scf:    4    -4150.374881    -4145.724019    -4145.724019  0.309250 -3.898362  6.320229
     spin moment: S , {S} =    0.00009  -0.00000   0.00000   0.00009
   scf:    5    -4146.893593    -4146.400750    -4146.400750  0.035592 -3.696316  4.351044
     spin moment: S , {S} =    0.00006   0.00000   0.00000   0.00006
   scf:    6    -4147.149426    -4146.781141    -4146.781141  0.024755 -3.653966  2.121437
     spin moment: S , {S} =    0.00003   0.00000   0.00000   0.00003
   scf:    7    -4147.123363    -4146.949362    -4146.949362  0.021302 -3.811316  0.887786
     spin moment: S , {S} =    0.00001   0.00000   0.00000   0.00001
   scf:    8    -4147.069480    -4147.007467    -4147.007467  0.012631 -3.750253  0.488877
     spin moment: S , {S} =    0.00000   0.00000   0.00000   0.00000
   scf:    9    -4147.046026    -4147.026091    -4147.026091  0.006647 -3.780548  0.351130
     spin moment: S , {S} =    0.00000   0.00000   0.00000   0.00000
   scf:   10    -4147.076972    -4147.046468    -4147.046468  0.019778 -3.796302  0.180676
     spin moment: S , {S} =    0.00000   0.00000  -0.00000  -0.00000
   scf:   11    -4147.049428    -4147.047913    -4147.047913  0.005029 -3.787817  0.053357
     spin moment: S , {S} =    0.00000   0.00000  -0.00000  -0.00000
   scf:   12    -4147.048701    -4147.048317    -4147.048317  0.001351 -3.783428  0.025118
     spin moment: S , {S} =    0.00000   0.00000   0.00000   0.00000
   scf:   13    -4147.048705    -4147.048505    -4147.048505  0.001485 -3.781465  0.018601
     spin moment: S , {S} =    0.00000   0.00000   0.00000   0.00000
   scf:   14    -4147.048759    -4147.048624    -4147.048624  0.001439 -3.780345  0.014557
     spin moment: S , {S} =    0.00000   0.00000   0.00000   0.00000
   scf:   15    -4147.048791    -4147.048699    -4147.048699  0.001420 -3.780420  0.010305
     spin moment: S , {S} =    0.00000   0.00000   0.00000   0.00000
   scf:   16    -4147.048815    -4147.048747    -4147.048747  0.001511 -3.780423  0.005807
     spin moment: S , {S} =    0.00000   0.00000   0.00000   0.00000
   scf:   17    -4147.048778    -4147.048760    -4147.048760  0.000788 -3.780377  0.003600
     spin moment: S , {S} =    0.00000   0.00000   0.00000   0.00000
   scf:   18    -4147.048770    -4147.048764    -4147.048764  0.000453 -3.780423  0.001684
     spin moment: S , {S} =    0.00000   0.00000   0.00000   0.00000
   scf:   19    -4147.048767    -4147.048765    -4147.048765  0.000230 -3.780462  0.000846
     spin moment: S , {S} =    0.00000   0.00000   0.00000   0.00000
   scf:   20    -4147.048766    -4147.048765    -4147.048765  0.000084 -3.780457  0.000503
     spin moment: S , {S} =    0.00000   0.00000   0.00000   0.00000
   scf:   21    -4147.048766    -4147.048766    -4147.048766  0.000080 -3.780468  0.000246
     spin moment: S , {S} =    0.00000   0.00000   0.00000   0.00000
   scf:   22    -4147.048766    -4147.048766    -4147.048766  0.000019 -3.780465  0.000085
     spin moment: S , {S} =    0.00000   0.00000   0.00000   0.00000
   scf:   23    -4147.048766    -4147.048766    -4147.048766  0.000006 -3.780467  0.000056
     spin moment: S , {S} =    0.00000   0.00000   0.00000  -0.00000
   scf:   24    -4147.048766    -4147.048766    -4147.048766  0.000002 -3.780468  0.000058
     spin moment: S , {S} =    0.00000   0.00000   0.00000  -0.00000
mix: Pulay -- resetting history
   scf:   25    -4147.048766    -4147.048766    -4147.048766  0.000005 -3.780469  0.000036
     spin moment: S , {S} =    0.00000   0.00000   0.00000  -0.00000
   scf:   26    -4147.048766    -4147.048766    -4147.048766  0.000004 -3.780468  0.000020
     spin moment: S , {S} =    0.00000   0.00000   0.00000  -0.00000
   scf:   27    -4147.048766    -4147.048766    -4147.048766  0.000004 -3.780466  0.000006
     spin moment: S , {S} =    0.00000   0.00000   0.00000   0.00000
   scf:   28    -4147.048766    -4147.048766    -4147.048766  0.000000 -3.780466  0.000004
     spin moment: S , {S} =    0.00000   0.00000   0.00000   0.00000
   scf:   29    -4147.048766    -4147.048766    -4147.048766  0.000000 -3.780466  0.000002
     spin moment: S , {S} =    0.00000   0.00000   0.00000   0.00000
   scf:   30    -4147.048766    -4147.048766    -4147.048766  0.000000 -3.780466  0.000001
     spin moment: S , {S} =    0.00000   0.00000   0.00000   0.00000
   scf:   31    -4147.048766    -4147.048766    -4147.048766  0.000000 -3.780466  0.000001
     spin moment: S , {S} =    0.00000   0.00000   0.00000   0.00000

SCF Convergence by DM+H criterion
max |DM_out - DM_in|         :     0.0000001497
max |H_out - H_in|      (eV) :     0.0000006479
SCF cycle converged after 31 iterations

Using DM_out to compute the final energy and forces
No. of atoms with KB's overlaping orbs in proc 0. Max # of overlaps:      29     175

siesta: E_KS(eV) =            -4147.0488

siesta: E_KS - E_eggbox =     -4147.0488
     spin moment: S , {S} =    0.00000   0.00000   0.00000   0.00000

siesta: Atomic forces (eV/Ang):
     1   -1.860834   -1.521299    0.000000
     2   -0.015442    0.029290    0.000000
     3    0.607893   -0.272210    0.000000
     4    0.542576   -0.011840    0.000000
     5    0.054300   -0.095168   -0.000000
     6    1.593072    0.659559    0.000000
     7    0.033741   -0.196136    0.000000
     8   -0.301011    0.216124    0.000000
     9   -0.091664    0.974175   -0.000000
    10   -0.721838    0.305732   -0.000000
    11   -0.015702   -0.015850    0.000000
    12   -0.216257   -0.202725   -0.000000
    13   -0.002453   -0.022528    0.000000
    14    0.221775   -0.019363    0.000000
    15   -0.991071   -0.660033   -0.000000
    16   -0.042456    0.130027   -0.000000
    17    0.731200   -0.878052   -0.000000
    18   -0.164990    0.155911   -0.000000
    19   -0.181754   -0.903993   -0.000000
    20   -0.020588   -0.312463   -0.000000
    21   -0.224706    0.752978   -0.000000
    22   -1.972167   -0.923001   -0.000000
    23    0.188029    0.380630    0.000000
    24    0.024804   -0.172711    0.000000
    25    0.107564   -0.022305    0.000000
    26   -0.312745   -0.218654    0.000000
    27    1.373144    1.184672    0.000000
    28    2.036395    1.493787    0.000000
    29   -0.067574    0.092023    0.000000
----------------------------------------
   Tot    0.311240   -0.073421   -0.000000
----------------------------------------
   Max    2.036395
   Res    0.592463    sqrt( Sum f_i^2 / 3N )
----------------------------------------
   Max    2.036395    constrained

Stress tensor Voigt[x,y,z,yz,xz,xy] (kbar):        0.50        1.75       -0.10        0.00        0.00        1.64
(Free)E + p*V (eV/cell)    -4149.1832
Target enthalpy (eV/cell)    -4147.0488

mulliken: Atomic and Orbital Populations:

Species: O                   

Atom      Orb        Charge      Spin       Svec
----------------------------------------------------------------
    1  1 2s         1.74945   0.00000      0.000  -0.000  -0.000
    1  2 2s         0.06259   0.00000     -0.000   0.000   0.000
    1  3 2py        1.43309   0.00000      0.000  -0.000  -0.000
    1  4 2pz        1.56555   0.00000     -0.000  -0.000  -0.000
    1  5 2px        1.63351   0.00000     -0.000  -0.000  -0.000
    1  6 2py        0.03846   0.00000      0.000   0.000   0.000
    1  7 2pz       -0.01009   0.00000      0.000   0.000  -0.000
    1  8 2px        0.00066   0.00000      0.000  -0.000  -0.000
    1  9 3Pdxy      0.00647   0.00000     -0.000   0.000   0.000
    1 10 3Pdyz      0.00854   0.00000     -0.000  -0.000   0.000
    1 11 3Pdz2      0.00140   0.00000     -0.000  -0.000   0.000
    1 12 3Pdxz      0.00029   0.00000      0.000  -0.000   0.000
    1 13 3Pdx2-y2   0.00658   0.00000     -0.000  -0.000  -0.000
    1     Total     6.49651   0.00000      0.000  -0.000  -0.000

   28  1 2s         1.74736   0.00000     -0.000   0.000   0.000
   28  2 2s         0.06423   0.00000      0.000  -0.000  -0.000
   28  3 2py        1.41510   0.00000     -0.000   0.000  -0.000
   28  4 2pz        1.56308   0.00000      0.000   0.000  -0.000
   28  5 2px        1.64943   0.00000      0.000  -0.000  -0.000
   28  6 2py        0.04169   0.00000     -0.000   0.000   0.000
   28  7 2pz       -0.00817   0.00000     -0.000   0.000   0.000
   28  8 2px        0.00460   0.00000     -0.000   0.000  -0.000
   28  9 3Pdxy      0.00618   0.00000      0.000  -0.000   0.000
   28 10 3Pdyz      0.00936   0.00000     -0.000  -0.000   0.000
   28 11 3Pdz2      0.00112   0.00000      0.000  -0.000   0.000
   28 12 3Pdxz     -0.00018   0.00000     -0.000   0.000  -0.000
   28 13 3Pdx2-y2   0.00752   0.00000      0.000   0.000  -0.000
   28     Total     6.50132   0.00000      0.000   0.000  -0.000

----------------------------------------------------------------
Total              12.99783   0.00000      0.000   0.000  -0.000


Species: N                   

Atom      Orb        Charge      Spin       Svec
----------------------------------------------------------------
    2  1 2s         1.55004   0.00000      0.000  -0.000  -0.000
    2  2 2s         0.08457   0.00000     -0.000   0.000  -0.000
    2  3 2py        1.04433   0.00000     -0.000  -0.000  -0.000
    2  4 2pz        1.22445   0.00000      0.000  -0.000  -0.000
    2  5 2px        0.99164   0.00000     -0.000  -0.000  -0.000
    2  6 2py        0.18817   0.00000     -0.000  -0.000   0.000
    2  7 2pz        0.05525   0.00000     -0.000   0.000   0.000
    2  8 2px        0.19546   0.00000      0.000   0.000   0.000
    2  9 3Pdxy      0.00836   0.00000     -0.000  -0.000   0.000
    2 10 3Pdyz      0.01097   0.00000      0.000  -0.000   0.000
    2 11 3Pdz2      0.00193   0.00000      0.000   0.000   0.000
    2 12 3Pdxz      0.00759   0.00000      0.000  -0.000   0.000
    2 13 3Pdx2-y2   0.00907   0.00000     -0.000   0.000  -0.000
    2     Total     5.37183   0.00000      0.000  -0.000  -0.000

    3  1 2s         1.39342   0.00000     -0.000  -0.000  -0.000
    3  2 2s         0.11967   0.00000      0.000   0.000   0.000
    3  3 2py        0.94110   0.00000      0.000   0.000  -0.000
    3  4 2pz        1.54429   0.00000      0.000  -0.000  -0.000
    3  5 2px        1.08479   0.00000      0.000   0.000  -0.000
    3  6 2py        0.24957   0.00000     -0.000  -0.000   0.000
    3  7 2pz        0.00601   0.00000     -0.000   0.000   0.000
    3  8 2px        0.17836   0.00000     -0.000  -0.000   0.000
    3  9 3Pdxy      0.00387   0.00000     -0.000  -0.000   0.000
    3 10 3Pdyz      0.00404   0.00000      0.000   0.000   0.000
    3 11 3Pdz2      0.00069   0.00000      0.000   0.000   0.000
    3 12 3Pdxz      0.00272   0.00000      0.000   0.000  -0.000
    3 13 3Pdx2-y2   0.00265   0.00000      0.000   0.000  -0.000
    3     Total     5.53118   0.00000      0.000   0.000  -0.000

    4  1 2s         1.46073   0.00000      0.000   0.000  -0.000
    4  2 2s         0.11870   0.00000     -0.000  -0.000   0.000
    4  3 2py        1.12942   0.00000     -0.000  -0.000  -0.000
    4  4 2pz        1.29505   0.00000     -0.000   0.000  -0.000
    4  5 2px        0.82630   0.00000     -0.000   0.000  -0.000
    4  6 2py        0.14995   0.00000      0.000   0.000   0.000
    4  7 2pz        0.05318   0.00000     -0.000   0.000   0.000
    4  8 2px        0.29242   0.00000      0.000  -0.000   0.000
    4  9 3Pdxy      0.00871   0.00000      0.000   0.000  -0.000
    4 10 3Pdyz      0.01045   0.00000     -0.000  -0.000   0.000
    4 11 3Pdz2      0.00125   0.00000     -0.000  -0.000  -0.000
    4 12 3Pdxz      0.00488   0.00000     -0.000  -0.000   0.000
    4 13 3Pdx2-y2   0.00799   0.00000     -0.000   0.000   0.000
    4     Total     5.35904   0.00000     -0.000   0.000  -0.000

    5  1 2s         1.37603   0.00000      0.000  -0.000  -0.000
    5  2 2s         0.12806   0.00000     -0.000   0.000   0.000
    5  3 2py        1.02648   0.00000      0.000   0.000  -0.000
    5  4 2pz        1.50089   0.00000      0.000  -0.000  -0.000
    5  5 2px        1.05995   0.00000      0.000   0.000  -0.000
    5  6 2py        0.20363   0.00000     -0.000  -0.000   0.000
    5  7 2pz        0.01335   0.00000     -0.000   0.000   0.000
    5  8 2px        0.20124   0.00000     -0.000  -0.000   0.000
    5  9 3Pdxy      0.00391   0.00000      0.000   0.000   0.000
    5 10 3Pdyz      0.00242   0.00000      0.000  -0.000   0.000
    5 11 3Pdz2      0.00143   0.00000      0.000  -0.000   0.000
    5 12 3Pdxz      0.00677   0.00000      0.000   0.000   0.000
    5 13 3Pdx2-y2   0.00560   0.00000      0.000   0.000   0.000
    5     Total     5.52976   0.00000      0.000   0.000  -0.000

    6  1 2s         1.26582   0.00000      0.000  -0.000  -0.000
    6  2 2s         0.18116   0.00000     -0.000   0.000   0.000
    6  3 2py        1.07826   0.00000      0.000   0.000  -0.000
    6  4 2pz        1.56098   0.00000      0.000  -0.000  -0.000
    6  5 2px        0.96518   0.00000     -0.000   0.000  -0.000
    6  6 2py        0.18862   0.00000     -0.000  -0.000   0.000
    6  7 2pz        0.03049   0.00000     -0.000   0.000   0.000
    6  8 2px        0.25447   0.00000      0.000  -0.000   0.000
    6  9 3Pdxy      0.00218   0.00000     -0.000   0.000   0.000
    6 10 3Pdyz      0.00011   0.00000      0.000   0.000  -0.000
    6 11 3Pdz2      0.00165   0.00000     -0.000  -0.000   0.000
    6 12 3Pdxz      0.00340   0.00000      0.000  -0.000   0.000
    6 13 3Pdx2-y2   0.00402   0.00000     -0.000  -0.000   0.000
    6     Total     5.53634   0.00000      0.000   0.000  -0.000

   21  1 2s         1.41824   0.00000     -0.000   0.000   0.000
   21  2 2s         0.13003   0.00000     -0.000  -0.000  -0.000
   21  3 2py        0.87429   0.00000     -0.000   0.000  -0.000
   21  4 2pz        1.30203   0.00000     -0.000   0.000  -0.000
   21  5 2px        1.16241   0.00000     -0.000   0.000  -0.000
   21  6 2py        0.27506   0.00000     -0.000  -0.000   0.000
   21  7 2pz        0.04754   0.00000      0.000   0.000   0.000
   21  8 2px        0.16010   0.00000     -0.000  -0.000   0.000
   21  9 3Pdxy      0.00623   0.00000      0.000   0.000   0.000
   21 10 3Pdyz      0.00483   0.00000     -0.000   0.000  -0.000
   21 11 3Pdz2      0.00008   0.00000      0.000   0.000  -0.000
   21 12 3Pdxz      0.00581   0.00000      0.000  -0.000  -0.000
   21 13 3Pdx2-y2   0.00570   0.00000     -0.000  -0.000  -0.000
   21     Total     5.39235   0.00000     -0.000   0.000  -0.000

   22  1 2s         1.28932   0.00000      0.000  -0.000   0.000
   22  2 2s         0.17065   0.00000     -0.000   0.000  -0.000
   22  3 2py        1.06043   0.00000      0.000  -0.000  -0.000
   22  4 2pz        1.53957   0.00000     -0.000  -0.000  -0.000
   22  5 2px        0.99599   0.00000      0.000   0.000  -0.000
   22  6 2py        0.19654   0.00000     -0.000   0.000   0.000
   22  7 2pz        0.02911   0.00000      0.000   0.000   0.000
   22  8 2px        0.23304   0.00000     -0.000  -0.000   0.000
   22  9 3Pdxy      0.00306   0.00000     -0.000  -0.000   0.000
   22 10 3Pdyz      0.00030   0.00000     -0.000   0.000  -0.000
   22 11 3Pdz2      0.00243   0.00000     -0.000  -0.000   0.000
   22 12 3Pdxz      0.00337   0.00000      0.000   0.000   0.000
   22 13 3Pdx2-y2   0.00470   0.00000     -0.000   0.000  -0.000
   22     Total     5.52848   0.00000      0.000  -0.000  -0.000

   23  1 2s         1.39012   0.00000      0.000   0.000   0.000
   23  2 2s         0.12130   0.00000     -0.000  -0.000  -0.000
   23  3 2py        1.00814   0.00000      0.000   0.000  -0.000
   23  4 2pz        1.52935   0.00000      0.000   0.000  -0.000
   23  5 2px        1.06211   0.00000     -0.000  -0.000  -0.000
   23  6 2py        0.21182   0.00000     -0.000  -0.000  -0.000
   23  7 2pz        0.00461   0.00000     -0.000  -0.000   0.000
   23  8 2px        0.19844   0.00000     -0.000   0.000   0.000
   23  9 3Pdxy      0.00530   0.00000      0.000  -0.000   0.000
   23 10 3Pdyz      0.00447   0.00000     -0.000  -0.000  -0.000
   23 11 3Pdz2      0.00072   0.00000     -0.000   0.000   0.000
   23 12 3Pdxz      0.00245   0.00000      0.000  -0.000  -0.000
   23 13 3Pdx2-y2   0.00140   0.00000     -0.000  -0.000  -0.000
   23     Total     5.54022   0.00000      0.000   0.000  -0.000

----------------------------------------------------------------
Total              56.78703   0.00000      0.000   0.000  -0.000


Species: Si                  

Atom      Orb        Charge      Spin       Svec
----------------------------------------------------------------
    7  1 3s         0.66723   0.00000     -0.000   0.000   0.000
    7  2 3s         0.36477   0.00000      0.000  -0.000  -0.000
    7  3 3py        0.48101   0.00000     -0.000   0.000   0.000
    7  4 3pz        0.69580   0.00000     -0.000  -0.000  -0.000
    7  5 3px        0.12297   0.00000      0.000   0.000  -0.000
    7  6 3py        0.26908   0.00000      0.000  -0.000   0.000
    7  7 3pz        0.25943   0.00000      0.000   0.000   0.000
    7  8 3px        0.43921   0.00000     -0.000  -0.000   0.000
    7  9 3Pdxy      0.24554   0.00000      0.000  -0.000   0.000
    7 10 3Pdyz      0.02898   0.00000      0.000   0.000   0.000
    7 11 3Pdz2      0.01162   0.00000     -0.000   0.000   0.000
    7 12 3Pdxz      0.14568   0.00000     -0.000   0.000  -0.000
    7 13 3Pdx2-y2   0.11298   0.00000     -0.000  -0.000   0.000
    7     Total     3.84430   0.00000     -0.000  -0.000   0.000

    8  1 3s         0.65601   0.00000     -0.000  -0.000   0.000
    8  2 3s         0.36858   0.00000      0.000   0.000   0.000
    8  3 3py        0.38959   0.00000      0.000  -0.000   0.000
    8  4 3pz        0.51789   0.00000      0.000   0.000   0.000
    8  5 3px       -0.02842   0.00000      0.000   0.000  -0.000
    8  6 3py        0.30810   0.00000     -0.000   0.000   0.000
    8  7 3pz        0.20327   0.00000     -0.000   0.000   0.000
    8  8 3px        0.51482   0.00000     -0.000  -0.000   0.000
    8  9 3Pdxy      0.24699   0.00000     -0.000   0.000   0.000
    8 10 3Pdyz      0.11228   0.00000     -0.000  -0.000  -0.000
    8 11 3Pdz2      0.01416   0.00000      0.000   0.000   0.000
    8 12 3Pdxz      0.15461   0.00000     -0.000  -0.000   0.000
    8 13 3Pdx2-y2   0.20093   0.00000      0.000  -0.000   0.000
    8     Total     3.65880   0.00000     -0.000   0.000   0.000

    9  1 3s         0.60234   0.00000      0.000   0.000   0.000
    9  2 3s         0.36820   0.00000     -0.000  -0.000  -0.000
    9  3 3py        0.08425   0.00000     -0.000   0.000   0.000
    9  4 3pz        0.48361   0.00000      0.000   0.000  -0.000
    9  5 3px        0.37478   0.00000      0.000   0.000   0.000
    9  6 3py        0.43784   0.00000      0.000   0.000   0.000
    9  7 3pz        0.18670   0.00000     -0.000  -0.000   0.000
    9  8 3px        0.27630   0.00000     -0.000  -0.000   0.000
    9  9 3Pdxy      0.30664   0.00000     -0.000  -0.000   0.000
    9 10 3Pdyz      0.19115   0.00000      0.000  -0.000  -0.000
    9 11 3Pdz2      0.01520   0.00000      0.000   0.000  -0.000
    9 12 3Pdxz      0.10068   0.00000     -0.000  -0.000  -0.000
    9 13 3Pdx2-y2   0.17415   0.00000      0.000   0.000   0.000
    9     Total     3.60186   0.00000      0.000   0.000   0.000

   10  1 3s         0.48004   0.00000      0.000  -0.000   0.000
   10  2 3s         0.37886   0.00000     -0.000   0.000   0.000
   10  3 3py        0.23908   0.00000      0.000  -0.000   0.000
   10  4 3pz        0.40750   0.00000     -0.000   0.000   0.000
   10  5 3px        0.10091   0.00000     -0.000  -0.000   0.000
   10  6 3py        0.32705   0.00000     -0.000   0.000   0.000
   10  7 3pz        0.22260   0.00000      0.000  -0.000   0.000
   10  8 3px        0.43201   0.00000      0.000   0.000   0.000
   10  9 3Pdxy      0.17007   0.00000     -0.000  -0.000   0.000
   10 10 3Pdyz      0.13720   0.00000      0.000   0.000   0.000
   10 11 3Pdz2      0.01003   0.00000     -0.000   0.000   0.000
   10 12 3Pdxz      0.17647   0.00000      0.000  -0.000   0.000
   10 13 3Pdx2-y2   0.30909   0.00000      0.000   0.000   0.000
   10     Total     3.39092   0.00000     -0.000  -0.000   0.000

   11  1 3s         0.55298   0.00000      0.000   0.000   0.000
   11  2 3s         0.38508   0.00000     -0.000  -0.000   0.000
   11  3 3py        0.32260   0.00000      0.000  -0.000   0.000
   11  4 3pz        0.54183   0.00000     -0.000   0.000   0.000
   11  5 3px        0.12548   0.00000     -0.000   0.000   0.000
   11  6 3py        0.28648   0.00000     -0.000   0.000   0.000
   11  7 3pz        0.17712   0.00000      0.000  -0.000   0.000
   11  8 3px        0.44573   0.00000      0.000  -0.000  -0.000
   11  9 3Pdxy      0.22561   0.00000     -0.000  -0.000   0.000
   11 10 3Pdyz      0.12662   0.00000     -0.000  -0.000   0.000
   11 11 3Pdz2      0.00960   0.00000      0.000  -0.000   0.000
   11 12 3Pdxz      0.05302   0.00000     -0.000  -0.000   0.000
   11 13 3Pdx2-y2   0.20412   0.00000      0.000   0.000   0.000
   11     Total     3.45627   0.00000      0.000   0.000   0.000

   17  1 3s         0.63583   0.00000      0.000  -0.000   0.000
   17  2 3s         0.36180   0.00000     -0.000   0.000  -0.000
   17  3 3py        0.22257   0.00000      0.000  -0.000   0.000
   17  4 3pz        0.41866   0.00000      0.000   0.000   0.000
   17  5 3px        0.24293   0.00000      0.000   0.000   0.000
   17  6 3py        0.38596   0.00000     -0.000   0.000  -0.000
   17  7 3pz        0.21321   0.00000     -0.000  -0.000   0.000
   17  8 3px        0.37322   0.00000     -0.000  -0.000  -0.000
   17  9 3Pdxy      0.29777   0.00000     -0.000  -0.000   0.000
   17 10 3Pdyz      0.14131   0.00000      0.000  -0.000   0.000
   17 11 3Pdz2      0.00874   0.00000      0.000  -0.000   0.000
   17 12 3Pdxz      0.14369   0.00000      0.000   0.000   0.000
   17 13 3Pdx2-y2   0.16551   0.00000      0.000  -0.000  -0.000
   17     Total     3.61121   0.00000      0.000  -0.000   0.000

   18  1 3s         0.74257   0.00000     -0.000   0.000   0.000
   18  2 3s         0.34121   0.00000      0.000  -0.000   0.000
   18  3 3py        0.07437   0.00000      0.000  -0.000   0.000
   18  4 3pz        0.81352   0.00000     -0.000  -0.000   0.000
   18  5 3px        0.55492   0.00000     -0.000  -0.000   0.000
   18  6 3py        0.52140   0.00000     -0.000   0.000   0.000
   18  7 3pz        0.19846   0.00000      0.000   0.000   0.000
   18  8 3px        0.25175   0.00000      0.000   0.000   0.000
   18  9 3Pdxy      0.10290   0.00000      0.000   0.000  -0.000
   18 10 3Pdyz      0.02766   0.00000     -0.000  -0.000  -0.000
   18 11 3Pdz2      0.00857   0.00000     -0.000   0.000  -0.000
   18 12 3Pdxz      0.03072   0.00000     -0.000   0.000  -0.000
   18 13 3Pdx2-y2   0.11149   0.00000     -0.000  -0.000  -0.000
   18     Total     3.77953   0.00000     -0.000  -0.000   0.000

   19  1 3s         0.46107   0.00000      0.000  -0.000   0.000
   19  2 3s         0.36435   0.00000     -0.000   0.000  -0.000
   19  3 3py        0.08691   0.00000     -0.000  -0.000   0.000
   19  4 3pz        0.42594   0.00000     -0.000  -0.000   0.000
   19  5 3px        0.34625   0.00000     -0.000  -0.000   0.000
   19  6 3py        0.46435   0.00000      0.000  -0.000  -0.000
   19  7 3pz        0.18333   0.00000      0.000  -0.000   0.000
   19  8 3px        0.24743   0.00000     -0.000   0.000  -0.000
   19  9 3Pdxy      0.34030   0.00000     -0.000   0.000   0.000
   19 10 3Pdyz      0.18957   0.00000     -0.000   0.000   0.000
   19 11 3Pdz2      0.01511   0.00000     -0.000   0.000   0.000
   19 12 3Pdxz      0.09175   0.00000     -0.000  -0.000   0.000
   19 13 3Pdx2-y2   0.24207   0.00000     -0.000   0.000   0.000
   19     Total     3.45842   0.00000     -0.000  -0.000   0.000

   20  1 3s         0.67425   0.00000     -0.000   0.000  -0.000
   20  2 3s         0.37756   0.00000     -0.000  -0.000  -0.000
   20  3 3py        0.33027   0.00000     -0.000   0.000  -0.000
   20  4 3pz        0.59675   0.00000     -0.000  -0.000  -0.000
   20  5 3px        0.13900   0.00000      0.000   0.000   0.000
   20  6 3py        0.29068   0.00000     -0.000  -0.000   0.000
   20  7 3pz        0.16344   0.00000     -0.000   0.000  -0.000
   20  8 3px        0.49969   0.00000     -0.000  -0.000   0.000
   20  9 3Pdxy      0.09975   0.00000     -0.000   0.000  -0.000
   20 10 3Pdyz      0.13257   0.00000      0.000  -0.000  -0.000
   20 11 3Pdz2      0.00742   0.00000     -0.000   0.000   0.000
   20 12 3Pdxz      0.02678   0.00000      0.000   0.000  -0.000
   20 13 3Pdx2-y2   0.17331   0.00000      0.000  -0.000   0.000
   20     Total     3.51147   0.00000     -0.000   0.000  -0.000

----------------------------------------------------------------
Total              89.09981   0.00000     -0.000   0.000   0.000


Species: H                   

Atom      Orb        Charge      Spin       Svec
----------------------------------------------------------------
   12  1 1s         0.48859   0.00000      0.000   0.000  -0.000
   12  2 1s         0.18277   0.00000      0.000   0.000   0.000
   12  3 2Ppy       0.02933   0.00000     -0.000  -0.000  -0.000
   12  4 2Ppz       0.03204   0.00000     -0.000   0.000  -0.000
   12  5 2Ppx       0.02454   0.00000      0.000   0.000  -0.000
   12     Total     0.75727   0.00000      0.000   0.000  -0.000

   13  1 1s         1.01970   0.00000     -0.000  -0.000  -0.000
   13  2 1s         0.09534   0.00000      0.000   0.000   0.000
   13  3 2Ppy       0.01807   0.00000      0.000   0.000  -0.000
   13  4 2Ppz       0.02014   0.00000      0.000   0.000   0.000
   13  5 2Ppx       0.03505   0.00000     -0.000  -0.000   0.000
   13     Total     1.18831   0.00000     -0.000  -0.000  -0.000

   14  1 1s         0.46535   0.00000     -0.000  -0.000  -0.000
   14  2 1s         0.19944   0.00000      0.000   0.000   0.000
   14  3 2Ppy       0.01845   0.00000     -0.000   0.000  -0.000
   14  4 2Ppz       0.04582   0.00000     -0.000  -0.000  -0.000
   14  5 2Ppx       0.01758   0.00000     -0.000   0.000  -0.000
   14     Total     0.74664   0.00000     -0.000  -0.000  -0.000

   15  1 1s         0.48044   0.00000      0.000  -0.000  -0.000
   15  2 1s         0.17952   0.00000     -0.000  -0.000   0.000
   15  3 2Ppy       0.00711   0.00000     -0.000   0.000   0.000
   15  4 2Ppz       0.03793   0.00000     -0.000   0.000  -0.000
   15  5 2Ppx       0.03736   0.00000     -0.000  -0.000   0.000
   15     Total     0.74236   0.00000      0.000  -0.000   0.000

   16  1 1s         0.50925   0.00000     -0.000  -0.000  -0.000
   16  2 1s         0.18737   0.00000      0.000   0.000   0.000
   16  3 2Ppy       0.02978   0.00000     -0.000  -0.000   0.000
   16  4 2Ppz       0.03972   0.00000     -0.000   0.000  -0.000
   16  5 2Ppx       0.02356   0.00000      0.000   0.000   0.000
   16     Total     0.78967   0.00000     -0.000   0.000  -0.000

   24  1 1s         1.06215   0.00000      0.000   0.000  -0.000
   24  2 1s         0.07455   0.00000     -0.000  -0.000   0.000
   24  3 2Ppy       0.03227   0.00000      0.000   0.000   0.000
   24  4 2Ppz       0.03042   0.00000      0.000   0.000   0.000
   24  5 2Ppx       0.01734   0.00000      0.000   0.000  -0.000
   24     Total     1.21672   0.00000      0.000   0.000  -0.000

   25  1 1s         1.04277   0.00000     -0.000  -0.000  -0.000
   25  2 1s         0.08654   0.00000      0.000   0.000  -0.000
   25  3 2Ppy       0.01225   0.00000     -0.000   0.000  -0.000
   25  4 2Ppz       0.01867   0.00000     -0.000  -0.000  -0.000
   25  5 2Ppx       0.03568   0.00000      0.000   0.000   0.000
   25     Total     1.19590   0.00000     -0.000  -0.000  -0.000

   26  1 1s         0.47690   0.00000      0.000  -0.000  -0.000
   26  2 1s         0.19617   0.00000      0.000   0.000  -0.000
   26  3 2Ppy       0.02163   0.00000      0.000   0.000   0.000
   26  4 2Ppz       0.04818   0.00000      0.000   0.000   0.000
   26  5 2Ppx       0.01628   0.00000     -0.000   0.000  -0.000
   26     Total     0.75916   0.00000      0.000   0.000  -0.000

   27  1 1s         0.49239   0.00000      0.000   0.000   0.000
   27  2 1s         0.17033   0.00000     -0.000  -0.000  -0.000
   27  3 2Ppy       0.01046   0.00000     -0.000  -0.000   0.000
   27  4 2Ppz       0.03346   0.00000     -0.000   0.000  -0.000
   27  5 2Ppx       0.03870   0.00000      0.000  -0.000  -0.000
   27     Total     0.74534   0.00000      0.000   0.000   0.000

   29  1 1s         0.48677   0.00000      0.000   0.000  -0.000
   29  2 1s         0.18740   0.00000      0.000  -0.000   0.000
   29  3 2Ppy       0.02509   0.00000     -0.000   0.000  -0.000
   29  4 2Ppz       0.03467   0.00000     -0.000  -0.000  -0.000
   29  5 2Ppx       0.02489   0.00000      0.000  -0.000   0.000
   29     Total     0.75881   0.00000      0.000  -0.000  -0.000

----------------------------------------------------------------
Total              98.00000   0.00000      0.000   0.000   0.000


siesta: Eigenvalues (eV):
ik =     1
  -22.0650  -22.0650  -21.7671  -21.7671  -21.4950  -21.4950  -21.3671  -21.3671  -21.2096  -21.2096
  -21.1544  -21.1544  -20.6761  -20.6761  -19.7158  -19.7158  -19.4719  -19.4719  -19.3515  -19.3515
  -14.7786  -14.7786  -13.8169  -13.8169  -13.3201  -13.3201  -13.1003  -13.1003  -12.9919  -12.9919
  -12.8230  -12.8230  -12.6176  -12.6176  -12.2809  -12.2809  -12.2189  -12.2189  -12.0077  -12.0077
  -11.2761  -11.2761  -10.8298  -10.8298  -10.6797  -10.6797  -10.6185  -10.6185  -10.1467  -10.1467
   -9.5903   -9.5903   -9.1492   -9.1492   -8.8497   -8.8497   -8.7277   -8.7277   -8.6612   -8.6612
   -8.5232   -8.5232   -8.4711   -8.4711   -8.1108   -8.1108   -7.8788   -7.8788   -7.7577   -7.7577
   -7.6740   -7.6740   -7.3522   -7.3522   -7.2015   -7.2015   -6.8510   -6.8510   -6.7345   -6.7345
   -6.6298   -6.6298   -6.4775   -6.4775   -6.2171   -6.2171   -6.1429   -6.1429   -6.1035   -6.1035
   -6.0549   -6.0549   -5.7781   -5.7781   -5.5301   -5.5301   -4.2973   -4.2973   -3.2638   -3.2638
   -2.3260   -2.3260   -2.3186   -2.3186   -2.2056   -2.2056   -1.8643   -1.8643   -1.8429   -1.8429
   -1.8143   -1.8143   -1.7720   -1.7720   -1.5982   -1.5982   -1.3918   -1.3918   -1.1013   -1.1013
   -0.9648   -0.9648   -0.7190   -0.7190   -0.3392   -0.3392   -0.2876   -0.2876    0.1523    0.1523
    0.4647    0.4647    0.4830    0.4830    0.6193    0.6193    0.8154    0.8154    0.9985    0.9985
    1.1791    1.1791    1.2413    1.2413    1.3856    1.3856    1.4122    1.4122    1.6185    1.6185
    1.7622    1.7622    1.9094    1.9094    2.1837    2.1837    2.4493    2.4493    2.7578    2.7578
    2.7604    2.7604    2.8256    2.8256    2.9153    2.9153    3.3288    3.3288    3.4332    3.4332
    3.6207    3.6207    3.8404    3.8404    4.0074    4.0074    4.0776    4.0776    4.3295    4.3295
    4.4967    4.4967    4.5977    4.5977    4.6379    4.6379    4.6598    4.6598    4.7892    4.7892
    5.0222    5.0222    5.0658    5.0658    5.2876    5.2876    5.5305    5.5305    5.6437    5.6437
    5.8101    5.8101    5.9079    5.9079    5.9970    5.9970    6.2237    6.2237    6.2340    6.2340
    6.3978    6.3978    6.4580    6.4580    6.5642    6.5642    6.7322    6.7322    6.9480    6.9480
    7.0077    7.0077    7.2393    7.2393    7.4965    7.4965    7.6926    7.6926    7.8243    7.8243
    7.9390    7.9390    8.0429    8.0429    8.0940    8.0940    8.3199    8.3199    8.5866    8.5866
    8.6716    8.6716    8.7903    8.7903    8.8468    8.8468    8.9580    8.9580    9.2949    9.2949
    9.3290    9.3290    9.5379    9.5379    9.8275    9.8275    9.8664    9.8664    9.9817    9.9817
   10.1364   10.1364   10.2052   10.2052   10.5095   10.5095   10.9199   10.9199   11.0741   11.0741
   11.1642   11.1642   11.3095   11.3095   11.5281   11.5281   11.8375   11.8375   11.9206   11.9206
   12.0477   12.0477   12.1502   12.1502   12.4741   12.4741   12.5206   12.5206   12.6842   12.6842
   12.7666   12.7666   12.7732   12.7732   13.5103   13.5103   13.5121   13.5121   13.6977   13.6977
   13.9752   13.9752   14.0730   14.0730   14.3815   14.3815   14.6934   14.6934   14.8904   14.8904
   15.0652   15.0652   15.3453   15.3453   16.0437   16.0437   16.5899   16.5899   16.6399   16.6399
   16.9942   16.9942   17.5105   17.5105   17.6241   17.6241   18.5472   18.5472   18.5804   18.5804
   18.9435   18.9435   19.1187   19.1187   19.7308   19.7308   20.0670   20.0670   20.2161   20.2161
   20.9920   20.9920   21.5334   21.5334   21.9709   21.9709   22.0952   22.0952   22.6783   22.6783
   23.2471   23.2471   23.5588   23.5588   23.8475   23.8475   24.1141   24.1141   24.2910   24.2910
   25.0027   25.0027   25.2743   25.2743   26.2111   26.2111   27.0782   27.0782   28.0274   28.0274
   28.8000   28.8000   29.0621   29.0621   29.1477   29.1477   29.5996   29.5996   29.8627   29.8627
   30.1531   30.1531   30.3156   30.3156   30.6937   30.6937   30.9263   30.9263   31.0990   31.0990
   31.1349   31.1349   31.4194   31.4194   31.6981   31.6981   32.5625   32.5625   32.8014   32.8014
   33.9960   33.9960   34.2376   34.2376   34.2903   34.2903   34.4841   34.4841   34.5439   34.5439
   35.3076   35.3076   35.4000   35.4000   35.5595   35.5595   35.7124   35.7124   36.5230   36.5230
   37.0279   37.0279   37.8340   37.8340   37.9137   37.9137   38.0004   38.0004   38.4159   38.4159
   38.8580   38.8580   39.2721   39.2721   39.7044   39.7044   40.1025   40.1025   40.3866   40.3866
   40.5689   40.5689   40.7746   40.7746   40.8459   40.8459   41.2561   41.2561   41.5783   41.5783
   42.5934   42.5934   42.8323   42.8323   43.0892   43.0892   43.1644   43.1644   43.7338   43.7338
   43.8423   43.8423   44.3859   44.3859   44.4928   44.4928   44.7445   44.7445   44.9833   44.9833
   45.2842   45.2842   45.5300   45.5300   46.1470   46.1470   46.4858   46.4858   46.8102   46.8102
   47.3278   47.3278   47.5884   47.5884   48.0772   48.0772   48.9226   48.9226   49.7267   49.7267
   50.0553   50.0553   50.2447   50.2447   50.7888   50.7888   50.8054   50.8054   51.2712   51.2712
   51.2775   51.2775   52.3110   52.3110   53.2092   53.2092   54.2447   54.2447   54.6392   54.6392
   55.0153   55.0153   55.0664   55.0664   55.7740   55.7740   55.8851   55.8851   56.7102   56.7102
   56.8912   56.8912   57.2581   57.2581   57.6441   57.6441   58.7616   58.7616   59.8532   59.8532
   60.4184   60.4184   60.8713   60.8713   61.0260   61.0260   61.5162   61.5162   62.1123   62.1123
   62.9439   62.9439   63.0660   63.0660   63.7964   63.7964   64.8492   64.8492   66.7253   66.7253
   67.3641   67.3641   67.7620   67.7620   68.3443   68.3443   69.8558   69.8558   70.9453   70.9453
   74.5797   74.5797   83.0189   83.0189   91.4704   91.4704   92.0456   92.0456   93.7504   93.7504
   98.6841   98.6841   99.4760   99.4760  101.4066  101.4066  103.5980  103.5980  104.7325  104.7325
  111.3879  111.3879  113.5390  113.5390  123.9510  123.9510  126.0848  126.0848  131.7342  131.7342
  136.3745  136.3745  139.5355  139.5355
siesta: Fermi energy =      -3.780466 eV

siesta: Program's energy decomposition (eV):
siesta: Ebs     =     -1133.089099
siesta: Eions   =      3585.165840
siesta: Ena     =       381.986778
siesta: Ekin    =      2903.375316
siesta: Enl     =     -2788.697064
siesta: Eso     =        -0.004282
siesta: Edftu   =         0.000000
siesta: DEna    =        47.304653
siesta: DUscf   =        14.093012
siesta: DUext   =         0.000000
siesta: Exc     =     -1119.941338
siesta: eta*DQ  =         0.000000
siesta: Emadel  =         0.000000
siesta: Emeta   =         0.000000
siesta: Emolmec =         0.000000
siesta: Ekinion =         0.000000
siesta: Eharris =     -4147.048766
siesta: Etot    =     -4147.048766
siesta: FreeEng =     -4147.048766

siesta: Final energy (eV):
siesta:  Band Struct. =   -1133.089099
siesta:       Kinetic =    2903.375316
siesta:       Hartree =    8556.103004
siesta:       Edftu   =       0.000000
siesta:       Eso     =      -0.004282
siesta:    Ext. field =       0.000000
siesta:   Exch.-corr. =   -1119.941338
siesta:  Ion-electron =  -19694.862979
siesta:       Ion-ion =    5208.281514
siesta:       Ekinion =       0.000000
siesta:         Total =   -4147.048766
siesta:         Fermi =      -3.780466

siesta: Atomic forces (eV/Ang):
siesta:      1   -1.860834   -1.521299    0.000000
siesta:      2   -0.015442    0.029290    0.000000
siesta:      3    0.607893   -0.272210    0.000000
siesta:      4    0.542576   -0.011840    0.000000
siesta:      5    0.054300   -0.095168   -0.000000
siesta:      6    1.593072    0.659559    0.000000
siesta:      7    0.033741   -0.196136    0.000000
siesta:      8   -0.301011    0.216124    0.000000
siesta:      9   -0.091664    0.974175   -0.000000
siesta:     10   -0.721838    0.305732   -0.000000
siesta:     11   -0.015702   -0.015850    0.000000
siesta:     12   -0.216257   -0.202725   -0.000000
siesta:     13   -0.002453   -0.022528    0.000000
siesta:     14    0.221775   -0.019363    0.000000
siesta:     15   -0.991071   -0.660033   -0.000000
siesta:     16   -0.042456    0.130027   -0.000000
siesta:     17    0.731200   -0.878052   -0.000000
siesta:     18   -0.164990    0.155911   -0.000000
siesta:     19   -0.181754   -0.903993   -0.000000
siesta:     20   -0.020588   -0.312463   -0.000000
siesta:     21   -0.224706    0.752978   -0.000000
siesta:     22   -1.972167   -0.923001   -0.000000
siesta:     23    0.188029    0.380630    0.000000
siesta:     24    0.024804   -0.172711    0.000000
siesta:     25    0.107564   -0.022305    0.000000
siesta:     26   -0.312745   -0.218654    0.000000
siesta:     27    1.373144    1.184672    0.000000
siesta:     28    2.036395    1.493787    0.000000
siesta:     29   -0.067574    0.092023    0.000000
siesta: ----------------------------------------
siesta:    Tot    0.311240   -0.073421   -0.000000

siesta: Stress tensor (static) (eV/Ang**3):
siesta:     0.000314    0.001022   -0.000000
siesta:     0.001022    0.001089   -0.000000
siesta:     0.000000    0.000000   -0.000063

siesta: Cell volume =       4777.085995 Ang**3

siesta: Pressure (static):
siesta:                Solid            Molecule  Units
siesta:          -0.00000487         -0.00000605  Ry/Bohr**3
siesta:          -0.00044681         -0.00055507  eV/Ang**3
siesta:          -0.71588358         -0.88932554  kBar
(Free)E+ p_basis*V_orbitals  =       -4127.198348
(Free)Eharris+ p_basis*V_orbitals  =       -4127.198348
     spin moment: S , {S} =    0.00000   0.00000   0.00000   0.00000

siesta: Electric dipole (a.u.)  =    1.644086    0.120570    0.000000
siesta: Electric dipole (Debye) =    4.178852    0.306458    0.000000

cite: Please see "GC.bib" for an exhaustive BiBTeX file.
cite: Please clearly indicate Siesta version in published work: v4.1.5-1-g384057250
cite: This calculation has made use of the following articles
cite: which are encouraged to be cited in a published work.
        Primary SIESTA paper
          DOI: www.doi.org/10.1088/0953-8984/14/11/302
        Spin-orbit coupling (on-site approximation)
          DOI: www.doi.org/10.1088/0953-8984/19/19/489001


WARNING: alloc-realloc-dealloc name mismatch
         Name: atomlist isa
         Size:              -116. Bytes
         Node:     0
         Subsequent mismatches will not be reported
>> End of run:  28-JUN-2023  19:11:12
Job completed
