Siesta Version  : v4.1.5-1-g384057250
Architecture    : gcc
Compiler version: GNU Fortran (Debian 12.2.0-14) 12.2.0
Compiler flags  : mpifort -O2 -fPIC -ftree-vectorize -fallow-argument-mismatch
PP flags        : -DFC_HAVE_ABORT -DMPI -DSIESTA__FLOOK -DSIESTA__METIS -DSIESTA__MUMPS -DCDF -DNCDF -DNCDF_4 -DNCDF_PARALLEL -DSIESTA__MRRR -DSIESTA__ELPA
Libraries       : libncdf.a libfdict.a  -lflookall -ldl -lnetcdff -lnetcdf -lz -lscalapack-openmpi -lopenblas -lmetis -lzmumps -lcmumps -ldmumps -lmumps_common -lpord -lsmumps -lesmumps -lscotch -lscotcherr -fopenmp -lelpa
PARALLEL version
NetCDF support
NetCDF-4 support
NetCDF-4 MPI-IO support
METIS ordering support
Lua support

* Running on 32 nodes in parallel
>> Start of run:  16-OCT-2023   2:31:53

                           ***********************       
                           *  WELCOME TO SIESTA  *       
                           ***********************       

reinit: Reading from standard input
reinit: Dumped input in INPUT_TMP.24259
************************** Dump of input data file ****************************
# mpirun -np 4 siesta-4.1.5 < Cytosine.fdf > Cytosine.out
SystemLabel      Cytosine
NumberOfAtoms    13
NumberOfSpecies  4
%block ChemicalSpeciesLabel
    1    1  H
    2    7  N
    3    14 Si
    4    8  O
%endblock ChemicalSpeciesLabel
###################################
# This overrides Defaults.fdf conf
###################################
MaxSCFIterations            500
SCF.MustConverge            T
SCF.Mixer.Method            Pulay
SCF.Mixer.History           20
SCF.Mixer.Restart           60
SCF.Mixer.Restart.Save      5
SCF.H.Tolerance             0.1 eV
SCF.DM.Tolerance            0.8
MD.TypeOfRun                CG # CG, Verlet
MD.Steps                    0
AtomicCoordinatesFormat NotScaledCartesianAng
%block AtomicCoordinatesAndAtomicSpecies # x2.5
2.48616018   8.74686580   0.00000000   1       1  H
0.64976730   6.84346308   0.00000000   2       2  N
-3.59376768   8.07690322   0.00000000   3       3  Si
-3.91647995   11.84900525   0.00000000   1       4  H
-7.42349065   4.14659255   0.00000000   3       5  Si
-11.12421378   4.69925802   0.00000000   1       6  H
-4.35083832   -0.57356360   0.00000000   3       7  Si
-6.24014665   -4.52898715   0.00000000   2       8  N
-4.74317750   -6.70681703   0.00000000   1       9  H
-8.84827715   -4.92215873   0.00000000   1       10  H
-0.12218652   -0.60698383   0.00000000   2       11  N
2.61419730   2.72205825   0.00000000   3       12  Si
6.58647988   2.90694240   0.00000000   4       13  O
%endblock AtomicCoordinatesAndAtomicSpecies
%include ../../../Defaults.fdf
************************** End of input data file *****************************

reinit: -----------------------------------------------------------------------
reinit: System Name: 
reinit: -----------------------------------------------------------------------
reinit: System Label: Cytosine
reinit: -----------------------------------------------------------------------

initatom: Reading input for the pseudopotentials and atomic orbitals ----------
Species number:   1 Atomic number:    1 Label: H
Species number:   2 Atomic number:    7 Label: N
Species number:   3 Atomic number:   14 Label: Si
Species number:   4 Atomic number:    8 Label: O

Ground state valence configuration:   1s01
Reading pseudopotential information in formatted form from H.psf

Pseudopotential generated from a relativistic atomic calculation

Valence configuration for pseudopotential generation:
1s( 1.00) rc: 0.01
2p( 0.00) rc: 0.60
3d( 0.00) rc: 1.99
4f( 0.00) rc: 2.49
Ground state valence configuration:   2s02  2p03
Reading pseudopotential information in formatted form from N.psf

Pseudopotential generated from a relativistic atomic calculation

Valence configuration for pseudopotential generation:
2s( 2.00) rc: 0.94
2p( 3.00) rc: 0.59
3d( 0.00) rc: 3.46
4f( 0.00) rc: 2.47
Ground state valence configuration:   3s02  3p02
Reading pseudopotential information in formatted form from Si.psf

Pseudopotential generated from a relativistic atomic calculation

Valence configuration for pseudopotential generation:
3s( 2.00) rc: 1.67
3p( 2.00) rc: 2.04
3d( 0.00) rc: 2.89
4f( 0.00) rc: 2.49
Ground state valence configuration:   2s02  2p04
Reading pseudopotential information in formatted form from O.psf

Pseudopotential generated from a relativistic atomic calculation

Valence configuration for pseudopotential generation:
2s( 2.00) rc: 0.45
2p( 4.00) rc: 0.92
3d( 0.00) rc: 2.24
4f( 0.00) rc: 0.25
For H, standard SIESTA heuristics set lmxkb to 2
 (one more than the basis l, including polarization orbitals).
Use PS.lmax or PS.KBprojectors blocks to override.
For N, standard SIESTA heuristics set lmxkb to 3
 (one more than the basis l, including polarization orbitals).
Use PS.lmax or PS.KBprojectors blocks to override.
For Si, standard SIESTA heuristics set lmxkb to 3
 (one more than the basis l, including polarization orbitals).
Use PS.lmax or PS.KBprojectors blocks to override.
For O, standard SIESTA heuristics set lmxkb to 3
 (one more than the basis l, including polarization orbitals).
Use PS.lmax or PS.KBprojectors blocks to override.

<basis_specs>
===============================================================================
H                    Z=   1    Mass=  1.0100        Charge= 0.17977+309
Lmxo=0 Lmxkb= 2    BasisType=split      Semic=F
L=0  Nsemic=0  Cnfigmx=1
          i=1  nzeta=2  polorb=1  (1s)
            splnorm:   0.62000    
               vcte:    0.0000    
               rinn:    0.0000    
               qcoe:    0.0000    
               qyuk:    0.0000    
               qwid:   0.10000E-01
                rcs:    0.0000      0.0000    
            lambdas:    1.0000      1.0000    
-------------------------------------------------------------------------------
L=0  Nkbl=1  erefs: 0.17977+309
L=1  Nkbl=1  erefs: 0.17977+309
L=2  Nkbl=1  erefs: 0.17977+309
===============================================================================
</basis_specs>

atom: Called for H                     (Z =   1)

read_vps: Pseudopotential generation method:
read_vps: ATM4.2.7  Troullier-Martins                       
Valence charge for ps generation:    1.00000

xc_check: Exchange-correlation functional:
xc_check: GGA Perdew, Burke & Ernzerhof 1996
V l=0 = -2*Zval/r beyond r=  0.0098
V l=1 = -2*Zval/r beyond r=  0.5817
V l=2 = -2*Zval/r beyond r=  1.9372
All V_l potentials equal beyond r=  1.9372
This should be close to max(r_c) in ps generation
All pots = -2*Zval/r beyond r=  1.9372

VLOCAL1: 99.0% of the norm of Vloc inside     11.567 Ry
VLOCAL1: 99.9% of the norm of Vloc inside     26.362 Ry
atom: Maximum radius for 4*pi*r*r*local-pseudopot. charge    2.25106
atom: Maximum radius for r*vlocal+2*Zval:    1.91306
GHOST: No ghost state for L =  0
GHOST: No ghost state for L =  1
GHOST: No ghost state for L =  2

KBgen: Kleinman-Bylander projectors: 
   l= 0   rc=  2.036604   el= -0.477180   Ekb= -6.081590   kbcos= -0.277285
   l= 1   rc=  2.195416   el=  0.001076   Ekb= -0.926943   kbcos= -0.034643
   l= 2   rc=  2.251056   el=  0.002010   Ekb= -0.130941   kbcos= -0.009788

KBgen: Total number of Kleinman-Bylander projectors:    9
atom: -------------------------------------------------------------------------

atom: SANKEY-TYPE ORBITALS:
atom: Selected multiple-zeta basis: split     

SPLIT: Orbitals with angular momentum L= 0

SPLIT: Basis orbitals for state 1s

SPLIT: PAO cut-off radius determined from an
SPLIT: energy shift=  0.002000 Ry

   izeta = 1
                 lambda =    1.000000
                     rc =    6.518340
                 energy =   -0.475305
                kinetic =    0.912139
    potential(screened) =   -1.387444
       potential(ionic) =   -1.907295

   izeta = 2
                 rmatch =    2.141150
              splitnorm =    0.620000
                 energy =    0.566467
                kinetic =    3.772856
    potential(screened) =   -3.206389
       potential(ionic) =   -3.759093

POLgen: Perturbative polarization orbital with L=  1

POLgen: Polarization orbital for state 1s

   izeta = 1
                     rc =    6.518340
                 energy =    0.533861
                kinetic =    1.121086
    potential(screened) =   -0.587225
       potential(ionic) =   -1.053027
atom: Total number of Sankey-type orbitals:  5

atm_pop: Valence configuration (for local Pseudopot. screening):
 1s( 1.00)                                                            
Vna: chval, zval:    1.00000   1.00000

Vna:  Cut-off radius for the neutral-atom potential:   6.518340

atom: _________________________________________________________________________

<basis_specs>
===============================================================================
N                    Z=   7    Mass=  14.010        Charge= 0.17977+309
Lmxo=1 Lmxkb= 3    BasisType=split      Semic=F
L=0  Nsemic=0  Cnfigmx=2
          i=1  nzeta=2  polorb=0  (2s)
            splnorm:   0.28000    
               vcte:    0.0000    
               rinn:    0.0000    
               qcoe:    0.0000    
               qyuk:    0.0000    
               qwid:   0.10000E-01
                rcs:    0.0000      0.0000    
            lambdas:    1.0000      1.0000    
L=1  Nsemic=0  Cnfigmx=2
          i=1  nzeta=2  polorb=1  (2p)
            splnorm:   0.28000    
               vcte:    0.0000    
               rinn:    0.0000    
               qcoe:    0.0000    
               qyuk:    0.0000    
               qwid:   0.10000E-01
                rcs:    0.0000      0.0000    
            lambdas:    1.0000      1.0000    
-------------------------------------------------------------------------------
L=0  Nkbl=1  erefs: 0.17977+309
L=1  Nkbl=1  erefs: 0.17977+309
L=2  Nkbl=1  erefs: 0.17977+309
L=3  Nkbl=1  erefs: 0.17977+309
===============================================================================
</basis_specs>

atom: Called for N                     (Z =   7)

read_vps: Pseudopotential generation method:
read_vps: ATM4.2.7  Troullier-Martins                       
Valence charge for ps generation:    5.00000

xc_check: Exchange-correlation functional:
xc_check: GGA Perdew, Burke & Ernzerhof 1996
V l=0 = -2*Zval/r beyond r=  1.2889
V l=1 = -2*Zval/r beyond r=  1.2889
V l=2 = -2*Zval/r beyond r=  3.4178
V l=3 = -2*Zval/r beyond r=  2.4084
All V_l potentials equal beyond r=  3.3753
This should be close to max(r_c) in ps generation
All pots = -2*Zval/r beyond r=  3.4178

VLOCAL1: 99.0% of the norm of Vloc inside      3.810 Ry
VLOCAL1: 99.9% of the norm of Vloc inside      8.683 Ry
atom: Maximum radius for 4*pi*r*r*local-pseudopot. charge    4.02088
atom: Maximum radius for r*vlocal+2*Zval:    3.54838
GHOST: No ghost state for L =  0
GHOST: No ghost state for L =  1
GHOST: No ghost state for L =  2
GHOST: No ghost state for L =  3

KBgen: Kleinman-Bylander projectors: 
   l= 0   rc=  3.417763   el= -1.365098   Ekb= -4.433130   kbcos= -0.707855
   l= 1   rc=  3.375302   el= -0.521201   Ekb=-13.264039   kbcos= -0.535594
   l= 2   rc=  3.872880   el=  0.001991   Ekb= -0.641094   kbcos= -0.062456
   l= 3   rc=  3.970931   el=  0.003093   Ekb= -0.474517   kbcos= -0.018236

KBgen: Total number of Kleinman-Bylander projectors:   16
atom: -------------------------------------------------------------------------

atom: SANKEY-TYPE ORBITALS:
atom: Selected multiple-zeta basis: split     

SPLIT: Orbitals with angular momentum L= 0

SPLIT: Basis orbitals for state 2s

SPLIT: PAO cut-off radius determined from an
SPLIT: energy shift=  0.002000 Ry

   izeta = 1
                 lambda =    1.000000
                     rc =    4.730425
                 energy =   -1.363399
                kinetic =    1.245246
    potential(screened) =   -2.608645
       potential(ionic) =   -8.121105

   izeta = 2
                 rmatch =    2.531849
              splitnorm =    0.280000
                 energy =   -0.959908
                kinetic =    2.409435
    potential(screened) =   -3.369343
       potential(ionic) =   -9.427975

SPLIT: Orbitals with angular momentum L= 1

SPLIT: Basis orbitals for state 2p

SPLIT: PAO cut-off radius determined from an
SPLIT: energy shift=  0.002000 Ry

   izeta = 1
                 lambda =    1.000000
                     rc =    5.924108
                 energy =   -0.519262
                kinetic =    3.672940
    potential(screened) =   -4.192202
       potential(ionic) =   -9.518354

   izeta = 2
                 rmatch =    2.531849
              splitnorm =    0.280000
                 energy =   -0.104258
                kinetic =    6.807538
    potential(screened) =   -6.911796
       potential(ionic) =  -13.149920

POLgen: Perturbative polarization orbital with L=  2

POLgen: Polarization orbital for state 2p

   izeta = 1
                     rc =    5.924108
                 energy =    1.427508
                kinetic =    2.872379
    potential(screened) =   -1.444871
       potential(ionic) =   -5.563644
atom: Total number of Sankey-type orbitals: 13

atm_pop: Valence configuration (for local Pseudopot. screening):
 2s( 2.00)                                                            
 2p( 3.00)                                                            
Vna: chval, zval:    5.00000   5.00000

Vna:  Cut-off radius for the neutral-atom potential:   5.924108

atom: _________________________________________________________________________

<basis_specs>
===============================================================================
Si                   Z=  14    Mass=  28.090        Charge= 0.17977+309
Lmxo=1 Lmxkb= 3    BasisType=split      Semic=F
L=0  Nsemic=0  Cnfigmx=3
          i=1  nzeta=2  polorb=0  (3s)
            splnorm:   0.28000    
               vcte:    0.0000    
               rinn:    0.0000    
               qcoe:    0.0000    
               qyuk:    0.0000    
               qwid:   0.10000E-01
                rcs:    0.0000      0.0000    
            lambdas:    1.0000      1.0000    
L=1  Nsemic=0  Cnfigmx=3
          i=1  nzeta=2  polorb=1  (3p)
            splnorm:   0.28000    
               vcte:    0.0000    
               rinn:    0.0000    
               qcoe:    0.0000    
               qyuk:    0.0000    
               qwid:   0.10000E-01
                rcs:    0.0000      0.0000    
            lambdas:    1.0000      1.0000    
-------------------------------------------------------------------------------
L=0  Nkbl=1  erefs: 0.17977+309
L=1  Nkbl=1  erefs: 0.17977+309
L=2  Nkbl=1  erefs: 0.17977+309
L=3  Nkbl=1  erefs: 0.17977+309
===============================================================================
</basis_specs>

atom: Called for Si                    (Z =  14)

read_vps: Pseudopotential generation method:
read_vps: ATM4.2.7  Troullier-Martins                       
Valence charge for ps generation:    4.00000

xc_check: Exchange-correlation functional:
xc_check: GGA Perdew, Burke & Ernzerhof 1996
V l=0 = -2*Zval/r beyond r=  2.7826
V l=1 = -2*Zval/r beyond r=  2.7826
V l=2 = -2*Zval/r beyond r=  2.9253
V l=3 = -2*Zval/r beyond r=  2.7826
All V_l potentials equal beyond r=  2.8530
This should be close to max(r_c) in ps generation
All pots = -2*Zval/r beyond r=  2.9253

VLOCAL1: 99.0% of the norm of Vloc inside      5.333 Ry
VLOCAL1: 99.9% of the norm of Vloc inside     12.154 Ry
atom: Maximum radius for 4*pi*r*r*local-pseudopot. charge    3.39869
atom: Maximum radius for r*vlocal+2*Zval:    2.96205
GHOST: No ghost state for L =  0
GHOST: No ghost state for L =  1
GHOST: No ghost state for L =  2
GHOST: No ghost state for L =  3

KBgen: Kleinman-Bylander projectors: 
   l= 0   rc=  3.075247   el= -0.794092   Ekb=  5.879390   kbcos=  0.167461
   l= 1   rc=  3.153101   el= -0.300068   Ekb=  2.642817   kbcos=  0.058301
   l= 2   rc=  3.273594   el=  0.001958   Ekb= -1.185135   kbcos= -0.104411
   l= 3   rc=  3.232927   el=  0.003046   Ekb= -0.497174   kbcos= -0.015889

KBgen: Total number of Kleinman-Bylander projectors:   16
atom: -------------------------------------------------------------------------

atom: SANKEY-TYPE ORBITALS:
atom: Selected multiple-zeta basis: split     

SPLIT: Orbitals with angular momentum L= 0

SPLIT: Basis orbitals for state 3s

SPLIT: PAO cut-off radius determined from an
SPLIT: energy shift=  0.002000 Ry

   izeta = 1
                 lambda =    1.000000
                     rc =    6.429618
                 energy =   -0.792283
                kinetic =    0.525293
    potential(screened) =   -1.317576
       potential(ionic) =   -3.744923

   izeta = 2
                 rmatch =    3.998416
              splitnorm =    0.280000
                 energy =   -0.583081
                kinetic =    1.069570
    potential(screened) =   -1.652651
       potential(ionic) =   -4.235185

SPLIT: Orbitals with angular momentum L= 1

SPLIT: Basis orbitals for state 3p

SPLIT: PAO cut-off radius determined from an
SPLIT: energy shift=  0.002000 Ry

   izeta = 1
                 lambda =    1.000000
                     rc =    8.464845
                 energy =   -0.298236
                kinetic =    0.785360
    potential(screened) =   -1.083596
       potential(ionic) =   -3.273779

   izeta = 2
                 rmatch =    4.587816
              splitnorm =    0.280000
                 energy =   -0.131871
                kinetic =    1.403687
    potential(screened) =   -1.535557
       potential(ionic) =   -4.015310

POLgen: Perturbative polarization orbital with L=  2

POLgen: Polarization orbital for state 3p

   izeta = 1
                     rc =    8.464845
                 energy =    0.321949
                kinetic =    1.055677
    potential(screened) =   -0.733728
       potential(ionic) =   -2.672950
atom: Total number of Sankey-type orbitals: 13

atm_pop: Valence configuration (for local Pseudopot. screening):
 3s( 2.00)                                                            
 3p( 2.00)                                                            
Vna: chval, zval:    4.00000   4.00000

Vna:  Cut-off radius for the neutral-atom potential:   8.464845

atom: _________________________________________________________________________

<basis_specs>
===============================================================================
O                    Z=   8    Mass=  16.000        Charge= 0.17977+309
Lmxo=1 Lmxkb= 3    BasisType=split      Semic=F
L=0  Nsemic=0  Cnfigmx=2
          i=1  nzeta=2  polorb=0  (2s)
            splnorm:   0.28000    
               vcte:    0.0000    
               rinn:    0.0000    
               qcoe:    0.0000    
               qyuk:    0.0000    
               qwid:   0.10000E-01
                rcs:    0.0000      0.0000    
            lambdas:    1.0000      1.0000    
L=1  Nsemic=0  Cnfigmx=2
          i=1  nzeta=2  polorb=1  (2p)
            splnorm:   0.28000    
               vcte:    0.0000    
               rinn:    0.0000    
               qcoe:    0.0000    
               qyuk:    0.0000    
               qwid:   0.10000E-01
                rcs:    0.0000      0.0000    
            lambdas:    1.0000      1.0000    
-------------------------------------------------------------------------------
L=0  Nkbl=1  erefs: 0.17977+309
L=1  Nkbl=1  erefs: 0.17977+309
L=2  Nkbl=1  erefs: 0.17977+309
L=3  Nkbl=1  erefs: 0.17977+309
===============================================================================
</basis_specs>

atom: Called for O                     (Z =   8)

read_vps: Pseudopotential generation method:
read_vps: ATM4.2.7  Troullier-Martins                       
Valence charge for ps generation:    6.00000

xc_check: Exchange-correlation functional:
xc_check: GGA Perdew, Burke & Ernzerhof 1996
V l=0 = -2*Zval/r beyond r=  1.1000
V l=1 = -2*Zval/r beyond r=  1.1000
V l=2 = -2*Zval/r beyond r=  2.2154
V l=3 = -2*Zval/r beyond r=  1.1000
All V_l potentials equal beyond r=  2.2154
This should be close to max(r_c) in ps generation
All pots = -2*Zval/r beyond r=  2.2154

VLOCAL1: 99.0% of the norm of Vloc inside      8.845 Ry
VLOCAL1: 99.9% of the norm of Vloc inside     20.157 Ry
atom: Maximum radius for 4*pi*r*r*local-pseudopot. charge    2.67231
atom: Maximum radius for r*vlocal+2*Zval:    2.32897
GHOST: No ghost state for L =  0
GHOST: No ghost state for L =  1
GHOST: No ghost state for L =  2
GHOST: No ghost state for L =  3

KBgen: Kleinman-Bylander projectors: 
   l= 0   rc=  2.243238   el= -1.759686   Ekb=**********   kbcos= -0.171774
   l= 1   rc=  2.328968   el= -0.663873   Ekb=-14.506792   kbcos= -0.519897
   l= 2   rc=  2.573941   el=  0.002031   Ekb= -1.137373   kbcos= -0.019581
   l= 3   rc=  2.606321   el=  0.003153   Ekb= -1.013546   kbcos= -0.003122

KBgen: Total number of Kleinman-Bylander projectors:   16
atom: -------------------------------------------------------------------------

atom: SANKEY-TYPE ORBITALS:
atom: Selected multiple-zeta basis: split     

SPLIT: Orbitals with angular momentum L= 0

SPLIT: Basis orbitals for state 2s

SPLIT: PAO cut-off radius determined from an
SPLIT: energy shift=  0.002000 Ry

   izeta = 1
                 lambda =    1.000000
                     rc =    4.243912
                 energy =   -1.758270
                kinetic =    3.286084
    potential(screened) =   -5.044353
       potential(ionic) =  -12.921184

   izeta = 2
                 rmatch =    2.187845
              splitnorm =    0.280000
                 energy =   -0.885018
                kinetic =    8.134434
    potential(screened) =   -9.019452
       potential(ionic) =  -17.710645

SPLIT: Orbitals with angular momentum L= 1

SPLIT: Basis orbitals for state 2p

SPLIT: PAO cut-off radius determined from an
SPLIT: energy shift=  0.002000 Ry

   izeta = 1
                 lambda =    1.000000
                     rc =    5.314825
                 energy =   -0.661986
                kinetic =    4.917472
    potential(screened) =   -5.579458
       potential(ionic) =  -13.236259

   izeta = 2
                 rmatch =    2.160663
              splitnorm =    0.280000
                 energy =   -0.068760
                kinetic =    9.183374
    potential(screened) =   -9.252135
       potential(ionic) =  -18.274251

POLgen: Perturbative polarization orbital with L=  2

POLgen: Polarization orbital for state 2p

   izeta = 1
                     rc =    5.314825
                 energy =    1.970580
                kinetic =    3.886128
    potential(screened) =   -1.915547
       potential(ionic) =   -7.749584
atom: Total number of Sankey-type orbitals: 13

atm_pop: Valence configuration (for local Pseudopot. screening):
 2s( 2.00)                                                            
 2p( 4.00)                                                            
Vna: chval, zval:    6.00000   6.00000

Vna:  Cut-off radius for the neutral-atom potential:   5.314825

atom: _________________________________________________________________________

prinput: Basis input ----------------------------------------------------------

PAO.BasisType split     

%block ChemicalSpeciesLabel
    1    1 H                       # Species index, atomic number, species label
    2    7 N                       # Species index, atomic number, species label
    3   14 Si                      # Species index, atomic number, species label
    4    8 O                       # Species index, atomic number, species label
%endblock ChemicalSpeciesLabel

%block PAO.Basis                 # Define Basis set
H                     1                    # Species label, number of l-shells
 n=1   0   2 P   1                   # n, l, Nzeta, Polarization, NzetaPol
   6.518      2.141   
   1.000      1.000   
N                     2                    # Species label, number of l-shells
 n=2   0   2                         # n, l, Nzeta 
   4.730      2.532   
   1.000      1.000   
 n=2   1   2 P   1                   # n, l, Nzeta, Polarization, NzetaPol
   5.924      2.532   
   1.000      1.000   
Si                    2                    # Species label, number of l-shells
 n=3   0   2                         # n, l, Nzeta 
   6.430      3.998   
   1.000      1.000   
 n=3   1   2 P   1                   # n, l, Nzeta, Polarization, NzetaPol
   8.465      4.588   
   1.000      1.000   
O                     2                    # Species label, number of l-shells
 n=2   0   2                         # n, l, Nzeta 
   4.244      2.188   
   1.000      1.000   
 n=2   1   2 P   1                   # n, l, Nzeta, Polarization, NzetaPol
   5.315      2.161   
   1.000      1.000   
%endblock PAO.Basis

prinput: ----------------------------------------------------------------------

Dumping basis to NetCDF file H.ion.nc
Dumping basis to NetCDF file N.ion.nc
Dumping basis to NetCDF file Si.ion.nc
Dumping basis to NetCDF file O.ion.nc
coor:   Atomic-coordinates input format  =     Cartesian coordinates
coor:                                          (in Angstroms)

siesta: Atomic coordinates (Bohr) and species
siesta:      4.69816  16.52919   0.00000  1        1
siesta:      1.22788  12.93228   0.00000  2        2
siesta:     -6.79124  15.26314   0.00000  3        3
siesta:     -7.40108  22.39138   0.00000  1        4
siesta:    -14.02837   7.83593   0.00000  3        5
siesta:    -21.02173   8.88031   0.00000  1        6
siesta:     -8.22190  -1.08388   0.00000  3        7
siesta:    -11.79217  -8.55855   0.00000  2        8
siesta:     -8.96331 -12.67405   0.00000  1        9
siesta:    -16.72083  -9.30154   0.00000  1       10
siesta:     -0.23090  -1.14703   0.00000  2       11
siesta:      4.94012   5.14395   0.00000  3       12
siesta:     12.44665   5.49333   0.00000  4       13

siesta: Automatic unit cell vectors (Ang):
siesta:   26.369786    0.000000    0.000000
siesta:    0.000000   27.999987    0.000000
siesta:    0.000000    0.000000    9.854683

siesta: System type = molecule  

initatomlists: Number of atoms, orbitals, and projectors:     13   129   173

siesta: ******************** Simulation parameters ****************************
siesta:
siesta: The following are some of the parameters of the simulation.
siesta: A complete list of the parameters used, including default values,
siesta: can be found in file out.fdf
siesta:
redata: Spin configuration                          = spin-orbit
redata: Number of spin components                   = 8
redata: Time-Reversal Symmetry                      = F
redata: Spin spiral                                 = F
############################################################
This spin-orbit implementation uses a local approximation.
From 4.2 and onwards the full non-local approximation is implemented
You are strongly advised to use >=4.2 versions!
############################################################
redata: Long output                                 =   F
redata: Number of Atomic Species                    =        4
redata: Charge density info will appear in .RHO file
redata: Write Mulliken Pop.                         = NO
redata: Matel table size (NRTAB)                    =     1024
redata: Mesh Cutoff                                 =   340.0000 Ry
redata: Net charge of the system                    =     0.0000 |e|
redata: Min. number of SCF Iter                     =        1
redata: Max. number of SCF Iter                     =      500
redata: SCF convergence failure will abort job
redata: SCF mix quantity                            = Hamiltonian
redata: Mix DM or H after convergence               =   F
redata: Recompute H after scf cycle                 =   F
redata: Mix DM in first SCF step                    =   T
redata: Write Pulay info on disk                    =   F
redata: New DM Occupancy tolerance                  = 0.000000000001
redata: No kicks to SCF
redata: DM Mixing Weight for Kicks                  =     0.5000
redata: Require Harris convergence for SCF          =   F
redata: Harris energy tolerance for SCF             =     0.000100 eV
redata: Require DM convergence for SCF              =   T
redata: DM tolerance for SCF                        =     0.800000
redata: Require EDM convergence for SCF             =   F
redata: EDM tolerance for SCF                       =     0.001000 eV
redata: Require H convergence for SCF               =   T
redata: Hamiltonian tolerance for SCF               =     0.100000 eV
redata: Require (free) Energy convergence for SCF   =   F
redata: (free) Energy tolerance for SCF             =     0.000100 eV
redata: Using Saved Data (generic)                  =   F
redata: Use continuation files for DM               =   T
redata: Neglect nonoverlap interactions             =   F
redata: Method of Calculation                       = Diagonalization
redata: Electronic Temperature                      =   299.9978 K
redata: Fix the spin of the system                  =   F
redata: Dynamics option                             = Single-point calculation
mix.SCF: Pulay mixing                            = Pulay
mix.SCF:    Variant                              = stable
mix.SCF:    History steps                        = 20
mix.SCF:    Linear mixing weight                 =     0.250000
mix.SCF:    Mixing weight                        =     0.250000
mix.SCF:    SVD condition                        = 0.1000E-07
mix.SCF:    Restart steps                        = 60
mix.SCF:    Restart save steps                   = 5
mix.SCF: Spin-component mixing                   all
redata: Save all siesta data in one NC              =   F
redata: ***********************************************************************

%block SCF.Mixers
  Pulay
%endblock SCF.Mixers

%block SCF.Mixer.Pulay
  # Mixing method
  method pulay
  variant stable

  # Mixing options
  weight 0.2500
  weight.linear 0.2500
  history 20
  restart 60
  restart.save 5
%endblock SCF.Mixer.Pulay

DM_history_depth set to one: no extrapolation allowed by default for geometry relaxation
Size of DM history Fstack: 1
Total number of electrons:    42.000000
Total ionic charge:    42.000000

* ProcessorY, Blocksize:    4   4


* Orbital distribution balance (max,min):     5     4


Time-reversal symmetry not used.

siesta: k-grid: Number of k-points =     1
siesta: k-grid: Cutoff (effective) =     4.927 Ang
siesta: k-grid: Supercell and displacements
siesta: k-grid:    1   0   0      0.000
siesta: k-grid:    0   1   0      0.000
siesta: k-grid:    0   0   1      0.000

diag: Algorithm                                     = ELPA-1stage
diag: Parallel over k                               =   F
diag: Use parallel 2D distribution                  =   T
diag: Parallel block-size                           = 4
diag: Parallel distribution                         =     4 x     8
diag: Used triangular part                          = Lower
diag: Absolute tolerance                            =  0.100E-15
diag: Orthogonalization factor                      =  0.100E-05
diag: Memory factor                                 =  1.0000


ts: **************************************************************
ts: Save H and S matrices                           =    F
ts: Save DM and EDM matrices                        =    F
ts: Only save the overlap matrix S                  =    F
ts: **************************************************************

************************ Begin: TS CHECKS AND WARNINGS ************************
************************ End: TS CHECKS AND WARNINGS **************************


                     ====================================
                        Single-point calculation
                     ====================================

outcoor: Atomic coordinates (Ang):                          
    2.48616018    8.74686580    0.00000000   1       1  H
    0.64976730    6.84346308    0.00000000   2       2  N
   -3.59376768    8.07690322    0.00000000   3       3  Si
   -3.91647995   11.84900525    0.00000000   1       4  H
   -7.42349065    4.14659255    0.00000000   3       5  Si
  -11.12421378    4.69925802    0.00000000   1       6  H
   -4.35083832   -0.57356360    0.00000000   3       7  Si
   -6.24014665   -4.52898715    0.00000000   2       8  N
   -4.74317750   -6.70681703    0.00000000   1       9  H
   -8.84827715   -4.92215873    0.00000000   1      10  H
   -0.12218652   -0.60698383    0.00000000   2      11  N
    2.61419730    2.72205825    0.00000000   3      12  Si
    6.58647988    2.90694240    0.00000000   4      13  O

outcell: Unit cell vectors (Ang):
       26.369786    0.000000    0.000000
        0.000000   27.999987    0.000000
        0.000000    0.000000    9.854683

outcell: Cell vector modules (Ang)   :   26.369786   27.999987    9.854683
outcell: Cell angles (23,13,12) (deg):     90.0000     90.0000     90.0000
outcell: Cell volume (Ang**3)        :   7276.2416
<dSpData1D:S at geom step 0
  <sparsity:sparsity for geom step 0
    nrows_g=129 nrows=5 sparsity=.0119 nnzs=198, refcount: 8>
  <dData1D:(new from dSpData1D) n=198, refcount: 1>
refcount: 1>
new_DM -- step:     1
Initializing Density Matrix...

Attempting to read DM from file... Succeeded...
DM from file:
<dSpData2D:IO-DM: Cytosine.DM
  <sparsity:IO-DM: Cytosine.DM
    nrows_g=129 nrows=5 sparsity=.0119 nnzs=198, refcount: 1>
  <dData2D:(new from dSpData2D) n=198 m=8, refcount: 1>
refcount: 1>
DM to be used:
<dSpData2D:Re-structured SpM
  <sparsity:sparsity for geom step 0
    nrows_g=129 nrows=5 sparsity=.0119 nnzs=198, refcount: 9>
  <dData2D:(new in restruct) n=198 m=8, refcount: 1>
refcount: 1>
     spin moment: S , {S} =    8.08410   1.95286   0.05779   7.84447
No. of atoms with KB's overlaping orbs in proc 0. Max # of overlaps:       4      39

Initializing spin-orbit part of the Hamiltonian
  Adding spin-orbit effects for H 
  Adding spin-orbit effects for N 
  Adding spin-orbit effects for Si
  Adding spin-orbit effects for O 


New grid distribution:   1
           1       1:  150    1:   40    1:    8
           2       1:  150    1:   40    9:   16
           3       1:  150    1:   40   17:   24
           4       1:  150    1:   40   25:   32
           5       1:  150    1:   40   33:   39
           6       1:  150    1:   40   40:   46
           7       1:  150    1:   40   47:   53
           8       1:  150    1:   40   54:   60
           9       1:  150   41:   80    1:    8
          10       1:  150   41:   80    9:   16
          11       1:  150   41:   80   17:   24
          12       1:  150   41:   80   25:   32
          13       1:  150   41:   80   33:   39
          14       1:  150   41:   80   40:   46
          15       1:  150   41:   80   47:   53
          16       1:  150   41:   80   54:   60
          17       1:  150   81:  120    1:    8
          18       1:  150   81:  120    9:   16
          19       1:  150   81:  120   17:   24
          20       1:  150   81:  120   25:   32
          21       1:  150   81:  120   33:   39
          22       1:  150   81:  120   40:   46
          23       1:  150   81:  120   47:   53
          24       1:  150   81:  120   54:   60
          25       1:  150  121:  160    1:    8
          26       1:  150  121:  160    9:   16
          27       1:  150  121:  160   17:   24
          28       1:  150  121:  160   25:   32
          29       1:  150  121:  160   33:   39
          30       1:  150  121:  160   40:   46
          31       1:  150  121:  160   47:   53
          32       1:  150  121:  160   54:   60

InitMesh: MESH =   300 x   320 x   120 =    11520000
InitMesh: (bp) =   150 x   160 x    60 =     1440000
InitMesh: Mesh cutoff (required, used) =   340.000   357.710 Ry
ExtMesh (bp) on 0 =   254 x   144 x   120 =     4389120
New grid distribution:   2
           1       1:  109  126:  160    1:   20
           2       1:   25    1:   19   26:   60
           3       1:   25    1:   19    1:   25
           4      25:  101   20:   37   23:   60
           5      26:  101    1:   19   22:   60
           6      25:  101   20:   37    1:   22
           7     124:  150    1:   17   23:   60
           8     123:  150   18:   37    1:   20
           9      26:  101    1:   19    1:   21
          10       1:   24   20:   37   24:   60
          11     135:  150   38:   72    1:   23
          12       1:   89   38:  125   26:   60
          13      90:  119   38:  125   22:   60
          14     123:  150   18:   37   21:   60
          15     120:  134   38:   72   26:   60
          16     102:  122   18:   37    1:   25
          17       1:   89   38:  125    1:   25
          18     131:  150   73:  160    1:   22
          19     102:  122   18:   37   26:   60
          20     124:  150    1:   17    1:   22
          21     131:  150   73:  160   23:   60
          22     120:  130   73:  160   25:   60
          23     102:  123    1:   17   24:   60
          24       1:   24   20:   37    1:   23
          25     120:  130   73:  160    1:   24
          26     120:  134   38:   72    1:   25
          27     102:  123    1:   17    1:   23
          28       1:  109  126:  160   21:   60
          29      90:  119   38:  125    1:   21
          30     135:  150   38:   72   24:   60
          31     110:  119  126:  160   22:   60
          32     110:  119  126:  160    1:   21
New grid distribution:   3
           1       1:   99  125:  160    1:   20
           2      26:   94    1:   21    1:   22
           3     121:  150    1:   23    1:   25
           4       1:   28   22:   44   26:   60
           5      29:   94   22:   44   21:   60
           6      29:   94   22:   44    1:   20
           7     121:  150   24:   44   26:   60
           8     121:  150   24:   44    1:   25
           9       1:   83   45:  124    1:   21
          10     119:  131   45:  110    1:   26
          11       1:   28   22:   44    1:   25
          12     132:  150   45:  110   26:   60
          13      84:  118   45:  124    1:   20
          14     119:  131   45:  110   27:   60
          15      95:  120    1:   23   27:   60
          16      95:  120    1:   23    1:   26
          17     132:  150   45:  110    1:   25
          18      95:  120   24:   44   27:   60
          19     119:  130  111:  160    1:   26
          20       1:   83   45:  124   22:   60
          21      84:  118   45:  124   21:   60
          22     121:  150    1:   23   26:   60
          23       1:   25    1:   21   28:   60
          24      95:  120   24:   44    1:   26
          25     131:  150  111:  160    1:   24
          26     100:  118  125:  160    1:   23
          27     100:  118  125:  160   24:   60
          28       1:   99  125:  160   21:   60
          29      26:   94    1:   21   23:   60
          30     131:  150  111:  160   25:   60
          31     119:  130  111:  160   27:   60
          32       1:   25    1:   21    1:   27
Setting up quadratic distribution...
ExtMesh (bp) on 0 =   213 x   139 x   132 =     3908124
PhiOnMesh: Number of (b)points on node 0 =                76300
PhiOnMesh: nlist on node 0 =               161110

stepf: Fermi-Dirac step function

siesta: Program's energy decomposition (eV):
siesta: Ebs     =      -340.993293
siesta: Eions   =      1544.210757
siesta: Ena     =       130.473152
siesta: Ekin    =      1166.360018
siesta: Enl     =     -1023.077080
siesta: Eso     =        -0.008247
siesta: Edftu   =         0.000000
siesta: DEna    =         4.603001
siesta: DUscf   =        11.439731
siesta: DUext   =         0.000000
siesta: Exc     =      -446.750691
siesta: eta*DQ  =         0.000000
siesta: Emadel  =         0.000000
siesta: Emeta   =         0.000000
siesta: Emolmec =         0.000000
siesta: Ekinion =         0.000000
siesta: Eharris =     -1686.715000
siesta: Etot    =     -1701.170873
siesta: FreeEng =     -1701.228129

        iscf     Eharris(eV)        E_KS(eV)     FreeEng(eV)     dDmax    Ef(eV) dHmax(eV)
   scf:    1    -1686.715000    -1701.170873    -1701.228129  0.416747 -4.779790 17.432659
     spin moment: S , {S} =    8.13865   1.31554   0.11652   8.03077
timer: Routine,Calls,Time,% = IterSCF        1       3.605  20.85
   scf:    2    -1103.216605    -1526.922024    -1526.946512  1.014990 -4.500617 79.397074
     spin moment: S , {S} =    6.47947   1.34004  -0.78735   6.29031
   scf:    3    -1721.330411    -1697.195857    -1697.264909  1.004642 -4.717576 11.061790
     spin moment: S , {S} =    6.72973   2.90333   0.12616   6.06993
   scf:    4    -1699.010570    -1703.369526    -1703.424138  0.746009 -4.748642 12.808477
     spin moment: S , {S} =    8.94239   2.31227   0.26658   8.63416
   scf:    5    -1704.765135    -1705.672063    -1705.748839  0.392272 -4.773771 10.822542
     spin moment: S , {S} =    7.83363   2.27228  -0.02724   7.49678
   scf:    6    -1708.887132    -1707.720528    -1707.786504  0.199482 -4.785058  5.879720
     spin moment: S , {S} =    8.09342   2.12724   0.07007   7.80855
   scf:    7    -1706.956669    -1707.502873    -1707.581195  0.110643 -4.785655  3.711661
     spin moment: S , {S} =    7.77413   2.15339  -0.02177   7.46991
   scf:    8    -1707.117790    -1707.521247    -1707.603384  0.168182 -4.797352  2.744383
     spin moment: S , {S} =    7.82891   2.03717   0.00827   7.55922
   scf:    9    -1698.434314    -1705.079354    -1705.156803  0.455216 -4.773259 12.739940
     spin moment: S , {S} =    8.37927   2.27237   0.12012   8.06437
   scf:   10    -1707.911350    -1707.991049    -1708.073316  0.264634 -4.798825  1.893258
     spin moment: S , {S} =    7.81488   2.03515  -0.00066   7.54524
   scf:   11    -1707.943249    -1707.967409    -1708.046492  0.060099 -4.797581  2.085413
     spin moment: S , {S} =    7.84249   2.04859   0.00337   7.57020
   scf:   12    -1707.871658    -1707.920653    -1708.001177  0.021726 -4.796981  2.142533
     spin moment: S , {S} =    7.79598   2.05075  -0.00970   7.52141
   scf:   13    -1708.002813    -1708.024441    -1708.111049  0.151928 -4.804983  2.228089
     spin moment: S , {S} =    7.77942   1.96103   0.00246   7.52819
   scf:   14    -1707.637884    -1708.063452    -1708.148171  0.150123 -4.801511  2.856924
     spin moment: S , {S} =    8.05598   2.02366   0.07055   7.79735
   scf:   15    -1708.271347    -1708.209555    -1708.297197  0.090004 -4.806000  0.672947
     spin moment: S , {S} =    7.97971   1.96689   0.06002   7.73328
   scf:   16    -1708.108209    -1708.169063    -1708.256968  0.017908 -4.806191  1.634475
     spin moment: S , {S} =    8.01190   1.98108   0.07081   7.76278
   scf:   17    -1708.187448    -1708.228624    -1708.318245  0.067343 -4.811018  0.630863
     spin moment: S , {S} =    7.95689   1.91055   0.07078   7.72379
   scf:   18    -1708.235168    -1708.232174    -1708.321809  0.003710 -4.810963  0.466413
     spin moment: S , {S} =    7.96422   1.91222   0.07359   7.73090
   scf:   19    -1708.219744    -1708.230751    -1708.320221  0.021800 -4.808650  0.315817
     spin moment: S , {S} =    7.98468   1.93773   0.06816   7.74569
   scf:   20    -1708.231164    -1708.230957    -1708.320929  0.012415 -4.809189  0.296566
     spin moment: S , {S} =    7.96845   1.93282   0.07021   7.73017
   scf:   21    -1708.230666    -1708.230808    -1708.320786  0.001244 -4.809209  0.301266
     spin moment: S , {S} =    7.96697   1.93256   0.07033   7.72871
   scf:   22    -1708.179011    -1708.214096    -1708.303452  0.022230 -4.809035  1.125508
     spin moment: S , {S} =    8.03399   1.94346   0.07975   7.79497
   scf:   23    -1708.042254    -1708.182834    -1708.275443  0.055264 -4.815012  1.412482
     spin moment: S , {S} =    7.89406   1.89180   0.04199   7.66391
   scf:   24    -1708.159891    -1708.218804    -1708.305104  0.145235 -4.808658  1.089369
     spin moment: S , {S} =    8.07596   1.96586   0.06557   7.83277
   scf:   25    -1708.228618    -1708.223943    -1708.310374  0.013089 -4.808584  0.893541
     spin moment: S , {S} =    8.06638   1.96834   0.05924   7.82232
   scf:   26    -1708.138724    -1708.212172    -1708.299541  0.151691 -4.810052  1.328335
     spin moment: S , {S} =    7.94686   1.98414  -0.00238   7.69518
   scf:   27    -1708.233760    -1708.220393    -1708.304075  0.079737 -4.810125  1.102154
     spin moment: S , {S} =    8.01523   2.02106  -0.01701   7.75622
   scf:   28    -1708.236363    -1708.228574    -1708.311625  0.021568 -4.809842  0.942284
     spin moment: S , {S} =    8.00500   2.03592  -0.02044   7.74175
   scf:   29    -1708.243332    -1708.234960    -1708.318915  0.043535 -4.810205  0.695885
     spin moment: S , {S} =    7.97361   2.03889  -0.01436   7.70851
   scf:   30    -1708.249132    -1708.242952    -1708.326551  0.008761 -4.809729  0.391375
     spin moment: S , {S} =    7.99286   2.04209  -0.00687   7.72759
   scf:   31    -1708.244057    -1708.243513    -1708.327235  0.003241 -4.809756  0.352119
     spin moment: S , {S} =    7.99218   2.03876  -0.00251   7.72777
   scf:   32    -1708.250131    -1708.249470    -1708.331927  0.024932 -4.810915  0.211825
     spin moment: S , {S} =    8.02151   2.04944   0.01568   7.75527
   scf:   33    -1708.250152    -1708.248431    -1708.332106  0.031910 -4.809701  0.104289
     spin moment: S , {S} =    8.01759   2.02509   0.02711   7.75758
   scf:   34    -1708.253086    -1708.250127    -1708.333713  0.022861 -4.811245  0.087911
     spin moment: S , {S} =    7.98347   2.02001   0.03479   7.72361

SCF Convergence by DM+H criterion
max |DM_out - DM_in|         :     0.0228605940
max |H_out - H_in|      (eV) :     0.0879112356
SCF cycle converged after 34 iterations

Using DM_out to compute the final energy and forces
No. of atoms with KB's overlaping orbs in proc 0. Max # of overlaps:       4      39

siesta: E_KS(eV) =            -1708.2501

siesta: E_KS - E_eggbox =     -1708.2501
     spin moment: S , {S} =    7.98347   2.02001   0.03479   7.72361

siesta: Atomic forces (eV/Ang):
     1   -0.247786   -0.158500    0.000064
     2    0.145379    0.180940   -0.001453
     3   -0.020195    0.080194    0.003798
     4    0.002240   -0.131859   -0.000696
     5    0.015727   -0.034910   -0.004608
     6    0.038336    0.016655    0.000801
     7    0.034437    0.004704    0.004180
     8   -0.066252   -0.153415   -0.001353
     9   -0.140729    0.129663   -0.000058
    10    0.191715    0.069372   -0.000061
    11   -0.107383    0.029395   -0.001346
    12    0.288398   -0.009353    0.000856
    13    1.072249   -2.780245    0.038307
----------------------------------------
   Tot    1.206137   -2.757359    0.038431
----------------------------------------
   Max    2.780245
   Res    0.487059    sqrt( Sum f_i^2 / 3N )
----------------------------------------
   Max    2.780245    constrained

Stress tensor Voigt[x,y,z,yz,xz,xy] (kbar):        0.71        0.46       -0.04       -0.00        0.00        0.02
(Free)E + p*V (eV/cell)    -1710.0508
Target enthalpy (eV/cell)    -1708.3337

siesta: Eigenvalues (eV):
ik =     1
  -22.1048  -20.0213  -19.6155  -19.5648  -19.2166  -15.3562  -15.0299  -14.9673  -11.6270  -11.5987
  -11.5847  -11.5839  -10.2187  -10.0486  -10.0034   -9.9751   -8.5359   -8.5224   -8.5079   -8.2480
   -8.1475   -8.1322   -8.1212   -8.0895   -8.0691   -8.0608   -7.8841   -7.7653   -7.6641   -7.6572
   -7.5907   -7.1519   -6.6406   -4.9800   -4.9521   -4.9286   -4.8992   -4.8932   -4.8762   -4.8635
   -4.8616   -4.8363   -4.8104   -4.7712   -4.6982   -4.6373   -4.4356   -4.1728   -4.0131   -3.8732
   -3.8315   -3.8252   -3.7561   -3.7380   -3.6320   -3.6087   -3.5333   -3.4624   -3.4595   -3.4514
   -3.4434   -3.1168   -3.0834   -3.0319   -2.9944   -2.9873   -2.9499   -2.9359   -2.9160   -1.8919
   -1.3660   -1.3288   -1.2871   -1.1813    2.1508    2.3488    2.4373    2.4679    2.5089    2.5930
    2.6318    2.6383    2.6530    2.6638    2.6783    2.7018    2.7670    2.8317    2.8469    2.8928
    2.9048    2.9904    3.0237    3.1213    3.3793    3.5942    3.6404    3.6992    3.7830    3.7854
    3.7944    3.8396    3.8873    3.9040    3.9685    4.1053    4.1920    4.2007    4.3072    4.3566
    4.3605    4.3786    4.4478    4.4510    5.6870    5.8181    6.0890    6.1777    6.2458    6.3540
    6.4200    6.4439    6.4567    6.4858    6.5109    6.5207    6.5263    6.5371    6.5674    6.6437
    6.6923    6.7655    6.8611    6.9149    6.9240    6.9276    7.2107    7.2154    7.2233    7.3596
    7.5251    7.5368    7.6203    7.7322    7.7611    7.8374    7.9191    7.9933    8.1896    8.1944
    8.6300    9.7012    9.9395    9.9707   10.2812   10.2937   10.3406   10.3822   10.5782   10.6625
   10.6683   10.7616   10.7998   11.0588   11.0850   11.0914   11.3138   11.5029   12.2377   12.2665
   13.2607   13.3824   13.9843   14.1793   14.4663   15.1416   23.1567   23.2346   23.3967   23.4794
   23.4953   23.7345   24.1156   24.2720   24.6129   24.8521   25.5839   25.7422   25.7908   25.8686
   26.4080   26.7033   26.7856   27.0274   27.2491   27.2889   27.3059   27.4719   27.5021   27.6167
   27.7776   27.9046   28.0488   28.1205   28.1290   28.3135   28.4731   28.5940   28.7141   28.8729
   28.8873   29.1063   29.2060   29.2360   29.4812   29.5473   29.5766   29.6833   29.8597   30.0123
   30.0401   30.0813   30.1096   30.2278   30.2453   30.4048   30.6767   30.7265   30.7458   30.9536
   31.3589   31.3782   31.5061   31.7345   31.8871   32.3710   32.5718   32.9816   33.2996   33.5813
   34.1991   34.2529   34.3039   34.9652   35.6541   36.0477   36.0964   36.2544   36.3336   37.1534
   38.9864   39.0475   39.5115   39.5735   40.8479   40.9630   55.8971   57.8130
siesta: Fermi energy =      -4.811245 eV

siesta: Program's energy decomposition (eV):
siesta: Ebs     =      -411.583182
siesta: Eions   =      1544.210757
siesta: Ena     =       130.473152
siesta: Ekin    =      1128.409417
siesta: Enl     =      -986.329676
siesta: Eso     =        -0.009757
siesta: Edftu   =         0.000000
siesta: DEna    =         1.749588
siesta: DUscf   =         1.327924
siesta: DUext   =         0.000000
siesta: Exc     =      -439.660018
siesta: eta*DQ  =         0.000000
siesta: Emadel  =         0.000000
siesta: Emeta   =         0.000000
siesta: Emolmec =         0.000000
siesta: Ekinion =         0.000000
siesta: Eharris =     -1708.253086
siesta: Etot    =     -1708.250127
siesta: FreeEng =     -1708.333713

siesta: Final energy (eV):
siesta:  Band Struct. =    -411.583182
siesta:       Kinetic =    1128.409417
siesta:       Hartree =    1581.847796
siesta:       Edftu   =       0.000000
siesta:       Eso     =      -0.009757
siesta:    Ext. field =       0.000000
siesta:   Exch.-corr. =    -439.660018
siesta:  Ion-electron =   -4134.766178
siesta:       Ion-ion =     155.928612
siesta:       Ekinion =       0.000000
siesta:         Total =   -1708.250127
siesta:         Fermi =      -4.811245

siesta: Atomic forces (eV/Ang):
siesta:      1   -0.247786   -0.158500    0.000064
siesta:      2    0.145379    0.180940   -0.001453
siesta:      3   -0.020195    0.080194    0.003798
siesta:      4    0.002240   -0.131859   -0.000696
siesta:      5    0.015727   -0.034910   -0.004608
siesta:      6    0.038336    0.016655    0.000801
siesta:      7    0.034437    0.004704    0.004180
siesta:      8   -0.066252   -0.153415   -0.001353
siesta:      9   -0.140729    0.129663   -0.000058
siesta:     10    0.191715    0.069372   -0.000061
siesta:     11   -0.107383    0.029395   -0.001346
siesta:     12    0.288398   -0.009353    0.000856
siesta:     13    1.072249   -2.780245    0.038307
siesta: ----------------------------------------
siesta:    Tot    1.206137   -2.757359    0.038431

siesta: Stress tensor (static) (eV/Ang**3):
siesta:     0.000444    0.000009    0.000000
siesta:     0.000012    0.000288   -0.000002
siesta:     0.000000   -0.000003   -0.000024

siesta: Cell volume =       7276.241641 Ang**3

siesta: Pressure (static):
siesta:                Solid            Molecule  Units
siesta:          -0.00000257         -0.00000593  Ry/Bohr**3
siesta:          -0.00023598         -0.00054491  eV/Ang**3
siesta:          -0.37809253         -0.87304715  kBar
(Free)E+ p_basis*V_orbitals  =       -1699.472971
(Free)Eharris+ p_basis*V_orbitals  =       -1699.475930
     spin moment: S , {S} =    7.98347   2.02001   0.03479   7.72361

siesta: Electric dipole (a.u.)  =   -2.426930    0.420118   -0.000914
siesta: Electric dipole (Debye) =   -6.168644    1.067835   -0.002323

cite: Please see "Cytosine.bib" for an exhaustive BiBTeX file.
cite: Please clearly indicate Siesta version in published work: v4.1.5-1-g384057250
cite: This calculation has made use of the following articles
cite: which are encouraged to be cited in a published work.
        Primary SIESTA paper
          DOI: www.doi.org/10.1088/0953-8984/14/11/302
        Spin-orbit coupling (on-site approximation)
          DOI: www.doi.org/10.1088/0953-8984/19/19/489001


WARNING: alloc-realloc-dealloc name mismatch
         Name: atomlist isa
         Size:               -52. Bytes
         Node:     0
         Subsequent mismatches will not be reported
>> End of run:  16-OCT-2023   2:33:31
Job completed
