Siesta Version  : v4.1.5-1-g384057250
Architecture    : gcc
Compiler version: GNU Fortran (Ubuntu 11.4.0-1ubuntu1~22.04) 11.4.0
Compiler flags  : mpifort -O2 -fPIC -ftree-vectorize -fallow-argument-mismatch
PP flags        : -DFC_HAVE_ABORT -DMPI -DSIESTA__FLOOK -DSIESTA__METIS -DSIESTA__MUMPS -DCDF -DNCDF -DNCDF_4 -DNCDF_PARALLEL -DSIESTA__MRRR -DSIESTA__ELPA
Libraries       : libncdf.a libfdict.a  -lflookall -ldl -lnetcdff -lnetcdf -lhdf5_hl -lhdf5 -lhdf5_fortran -lz -lscalapack-openmpi -lopenblas -lmetis -lzmumps -lcmumps -ldmumps -lmumps_common -lpord -lsmumps -lesmumps -lscotch -lscotcherr -fopenmp -lelpa
PARALLEL version
NetCDF support
NetCDF-4 support
NetCDF-4 MPI-IO support
METIS ordering support
Lua support

* Running on 8 nodes in parallel
>> Start of run:   1-FEB-2024  21:02:33

                           ***********************       
                           *  WELCOME TO SIESTA  *       
                           ***********************       

reinit: Reading from standard input
reinit: Dumped input in INPUT_TMP.23990
************************** Dump of input data file ****************************
# mpirun -np 4 siesta-4.1.5 < AT.fdf > AT.out &
SystemLabel      AT
NumberOfAtoms    30
NumberOfSpecies  4
%block ChemicalSpeciesLabel
    1    1  H
    2    7  N
    3   14  Si
    4    8  O
%endblock ChemicalSpeciesLabel
############################################
# This overrides Defaults.fdf configuration
############################################
MD.TypeOfRun                Verlet # CG, Verlet
MD.Steps                    0
MaxSCFIterations            200
SCF.MustConverge            F
AtomicCoordinatesFormat NotScaledCartesianAng
%block AtomicCoordinatesAndAtomicSpecies
    2.28494382 -5.19529124 0.0  1  1  H
    1.37433094 -4.6647107 0.0  2  2  N
    -0.21830245 -5.49458215 0.0  3  3  Si
    -0.17484108 -6.98516892 0.0  1  4  H
    -1.66171682 -4.58600741 0.0  2  5  N
    -1.09026419 -2.87456374 0.0  3  6  Si
    -1.53038332 -0.70765692 0.0  3  7  Si
    -3.14415959 -0.09186471 0.0  2  8  N
    -3.40268075 0.95848335 0.0  1  9  H
    -3.95073599 -0.76720972 0.0  1  10  H
    -0.17836637 0.41349951 0.0  2  11  N
    1.49520211 -0.0473996 0.0  3  12  Si
    2.45603905 1.10727302 0.0  1  13  H
    2.30451743 -1.58574382 0.0  2  14  N
    1.10725559 -2.84610319 0.0  3  15  Si
    0.011188400375617968 11.556613587832363 0.0  1  16  H
    -0.797522279624382 10.864407707832362 0.0  2  17  N
    -2.454112119624382 11.577527807832361 0.0  3  18  Si
    -2.3572469496243817 13.088253017832361 0.0  1  19  H
    -4.180268469624382 10.234479677832361 0.0  3  20  Si
    -6.534722719624382 10.226492747832362 0.0  3  21  Si
    -7.097140839624382 10.96098239783236 -1.20183078  1  22  H
    -6.834536469624382 8.747401617832361 -0.08618332  1  23  H
    -7.0972532996243824 10.791325207832362 1.28814761  1  24  H
    -3.250877829624382 8.163908447832362 0.0  3  25  Si
    -4.200346189624382 6.875372317832362 0.0  4  26  O
    -1.459932959624382 7.990172977832362 0.0  2  27  N
    -1.128941599624382 6.957815997832362 0.0  1  28  H
    -0.15147473962438207 9.18471939783236 0.0  3  29  Si
    1.4144621903756178 8.91747254783236 0.0  4  30  O
%endblock AtomicCoordinatesAndAtomicSpecies
#############
# Unit Cell
#############
LatticeConstant 1.0 Ang
%block LatticeVectors
    30.00000    0.000000    0.000000
    0.000000    45.00000    0.000000
    0.000000    0.000000    10.00000
%endblock LatticeVectors
%include ../../../../Defaults.fdf
************************** End of input data file *****************************

reinit: -----------------------------------------------------------------------
reinit: System Name: 
reinit: -----------------------------------------------------------------------
reinit: System Label: AT
reinit: -----------------------------------------------------------------------

initatom: Reading input for the pseudopotentials and atomic orbitals ----------
Species number:   1 Atomic number:    1 Label: H
Species number:   2 Atomic number:    7 Label: N
Species number:   3 Atomic number:   14 Label: Si
Species number:   4 Atomic number:    8 Label: O

Ground state valence configuration:   1s01
Reading pseudopotential information in formatted form from H.psf

Pseudopotential generated from a relativistic atomic calculation

Valence configuration for pseudopotential generation:
1s( 1.00) rc: 0.01
2p( 0.00) rc: 0.60
3d( 0.00) rc: 1.99
4f( 0.00) rc: 2.49
Ground state valence configuration:   2s02  2p03
Reading pseudopotential information in formatted form from N.psf

Pseudopotential generated from a relativistic atomic calculation

Valence configuration for pseudopotential generation:
2s( 2.00) rc: 0.94
2p( 3.00) rc: 0.59
3d( 0.00) rc: 3.46
4f( 0.00) rc: 2.47
Ground state valence configuration:   3s02  3p02
Reading pseudopotential information in formatted form from Si.psf

Pseudopotential generated from a relativistic atomic calculation

Valence configuration for pseudopotential generation:
3s( 2.00) rc: 1.67
3p( 2.00) rc: 2.04
3d( 0.00) rc: 2.89
4f( 0.00) rc: 2.49
Ground state valence configuration:   2s02  2p04
Reading pseudopotential information in formatted form from O.psf

Pseudopotential generated from a relativistic atomic calculation

Valence configuration for pseudopotential generation:
2s( 2.00) rc: 0.45
2p( 4.00) rc: 0.92
3d( 0.00) rc: 2.24
4f( 0.00) rc: 0.25
For H, standard SIESTA heuristics set lmxkb to 2
 (one more than the basis l, including polarization orbitals).
Use PS.lmax or PS.KBprojectors blocks to override.
For N, standard SIESTA heuristics set lmxkb to 3
 (one more than the basis l, including polarization orbitals).
Use PS.lmax or PS.KBprojectors blocks to override.
For Si, standard SIESTA heuristics set lmxkb to 3
 (one more than the basis l, including polarization orbitals).
Use PS.lmax or PS.KBprojectors blocks to override.
For O, standard SIESTA heuristics set lmxkb to 3
 (one more than the basis l, including polarization orbitals).
Use PS.lmax or PS.KBprojectors blocks to override.

<basis_specs>
===============================================================================
H                    Z=   1    Mass=  1.0100        Charge= 0.17977+309
Lmxo=0 Lmxkb= 2    BasisType=split      Semic=F
L=0  Nsemic=0  Cnfigmx=1
          i=1  nzeta=2  polorb=1  (1s)
            splnorm:   0.62000    
               vcte:    0.0000    
               rinn:    0.0000    
               qcoe:    0.0000    
               qyuk:    0.0000    
               qwid:   0.10000E-01
                rcs:    0.0000      0.0000    
            lambdas:    1.0000      1.0000    
-------------------------------------------------------------------------------
L=0  Nkbl=1  erefs: 0.17977+309
L=1  Nkbl=1  erefs: 0.17977+309
L=2  Nkbl=1  erefs: 0.17977+309
===============================================================================
</basis_specs>

atom: Called for H                     (Z =   1)

read_vps: Pseudopotential generation method:
read_vps: ATM4.2.7  Troullier-Martins                       
Valence charge for ps generation:    1.00000

xc_check: Exchange-correlation functional:
xc_check: GGA Perdew, Burke & Ernzerhof 1996
V l=0 = -2*Zval/r beyond r=  0.0098
V l=1 = -2*Zval/r beyond r=  0.5817
V l=2 = -2*Zval/r beyond r=  1.9372
All V_l potentials equal beyond r=  1.9372
This should be close to max(r_c) in ps generation
All pots = -2*Zval/r beyond r=  1.9372

VLOCAL1: 99.0% of the norm of Vloc inside     11.567 Ry
VLOCAL1: 99.9% of the norm of Vloc inside     26.362 Ry
atom: Maximum radius for 4*pi*r*r*local-pseudopot. charge    2.25106
atom: Maximum radius for r*vlocal+2*Zval:    1.91306
GHOST: No ghost state for L =  0
GHOST: No ghost state for L =  1
GHOST: No ghost state for L =  2

KBgen: Kleinman-Bylander projectors: 
   l= 0   rc=  2.036604   el= -0.477180   Ekb= -6.081590   kbcos= -0.277285
   l= 1   rc=  2.195416   el=  0.001076   Ekb= -0.926943   kbcos= -0.034643
   l= 2   rc=  2.251056   el=  0.002010   Ekb= -0.130941   kbcos= -0.009788

KBgen: Total number of Kleinman-Bylander projectors:    9
atom: -------------------------------------------------------------------------

atom: SANKEY-TYPE ORBITALS:
atom: Selected multiple-zeta basis: split     

SPLIT: Orbitals with angular momentum L= 0

SPLIT: Basis orbitals for state 1s

SPLIT: PAO cut-off radius determined from an
SPLIT: energy shift=  0.002000 Ry

   izeta = 1
                 lambda =    1.000000
                     rc =    6.518340
                 energy =   -0.475305
                kinetic =    0.912139
    potential(screened) =   -1.387444
       potential(ionic) =   -1.907295

   izeta = 2
                 rmatch =    2.141150
              splitnorm =    0.620000
                 energy =    0.566467
                kinetic =    3.772856
    potential(screened) =   -3.206389
       potential(ionic) =   -3.759093

POLgen: Perturbative polarization orbital with L=  1

POLgen: Polarization orbital for state 1s

   izeta = 1
                     rc =    6.518340
                 energy =    0.533861
                kinetic =    1.121086
    potential(screened) =   -0.587225
       potential(ionic) =   -1.053027
atom: Total number of Sankey-type orbitals:  5

atm_pop: Valence configuration (for local Pseudopot. screening):
 1s( 1.00)                                                            
Vna: chval, zval:    1.00000   1.00000

Vna:  Cut-off radius for the neutral-atom potential:   6.518340

atom: _________________________________________________________________________

<basis_specs>
===============================================================================
N                    Z=   7    Mass=  14.010        Charge= 0.17977+309
Lmxo=1 Lmxkb= 3    BasisType=split      Semic=F
L=0  Nsemic=0  Cnfigmx=2
          i=1  nzeta=2  polorb=0  (2s)
            splnorm:   0.28000    
               vcte:    0.0000    
               rinn:    0.0000    
               qcoe:    0.0000    
               qyuk:    0.0000    
               qwid:   0.10000E-01
                rcs:    0.0000      0.0000    
            lambdas:    1.0000      1.0000    
L=1  Nsemic=0  Cnfigmx=2
          i=1  nzeta=2  polorb=1  (2p)
            splnorm:   0.28000    
               vcte:    0.0000    
               rinn:    0.0000    
               qcoe:    0.0000    
               qyuk:    0.0000    
               qwid:   0.10000E-01
                rcs:    0.0000      0.0000    
            lambdas:    1.0000      1.0000    
-------------------------------------------------------------------------------
L=0  Nkbl=1  erefs: 0.17977+309
L=1  Nkbl=1  erefs: 0.17977+309
L=2  Nkbl=1  erefs: 0.17977+309
L=3  Nkbl=1  erefs: 0.17977+309
===============================================================================
</basis_specs>

atom: Called for N                     (Z =   7)

read_vps: Pseudopotential generation method:
read_vps: ATM4.2.7  Troullier-Martins                       
Valence charge for ps generation:    5.00000

xc_check: Exchange-correlation functional:
xc_check: GGA Perdew, Burke & Ernzerhof 1996
V l=0 = -2*Zval/r beyond r=  1.2889
V l=1 = -2*Zval/r beyond r=  1.2889
V l=2 = -2*Zval/r beyond r=  3.4178
V l=3 = -2*Zval/r beyond r=  2.4084
All V_l potentials equal beyond r=  3.3753
This should be close to max(r_c) in ps generation
All pots = -2*Zval/r beyond r=  3.4178

VLOCAL1: 99.0% of the norm of Vloc inside      3.810 Ry
VLOCAL1: 99.9% of the norm of Vloc inside      8.683 Ry
atom: Maximum radius for 4*pi*r*r*local-pseudopot. charge    4.02088
atom: Maximum radius for r*vlocal+2*Zval:    3.54838
GHOST: No ghost state for L =  0
GHOST: No ghost state for L =  1
GHOST: No ghost state for L =  2
GHOST: No ghost state for L =  3

KBgen: Kleinman-Bylander projectors: 
   l= 0   rc=  3.417763   el= -1.365098   Ekb= -4.433130   kbcos= -0.707855
   l= 1   rc=  3.375302   el= -0.521201   Ekb=-13.264039   kbcos= -0.535594
   l= 2   rc=  3.872880   el=  0.001991   Ekb= -0.641094   kbcos= -0.062456
   l= 3   rc=  3.970931   el=  0.003093   Ekb= -0.474517   kbcos= -0.018236

KBgen: Total number of Kleinman-Bylander projectors:   16
atom: -------------------------------------------------------------------------

atom: SANKEY-TYPE ORBITALS:
atom: Selected multiple-zeta basis: split     

SPLIT: Orbitals with angular momentum L= 0

SPLIT: Basis orbitals for state 2s

SPLIT: PAO cut-off radius determined from an
SPLIT: energy shift=  0.002000 Ry

   izeta = 1
                 lambda =    1.000000
                     rc =    4.730425
                 energy =   -1.363399
                kinetic =    1.245246
    potential(screened) =   -2.608645
       potential(ionic) =   -8.121105

   izeta = 2
                 rmatch =    2.531849
              splitnorm =    0.280000
                 energy =   -0.959908
                kinetic =    2.409435
    potential(screened) =   -3.369343
       potential(ionic) =   -9.427975

SPLIT: Orbitals with angular momentum L= 1

SPLIT: Basis orbitals for state 2p

SPLIT: PAO cut-off radius determined from an
SPLIT: energy shift=  0.002000 Ry

   izeta = 1
                 lambda =    1.000000
                     rc =    5.924108
                 energy =   -0.519262
                kinetic =    3.672940
    potential(screened) =   -4.192202
       potential(ionic) =   -9.518354

   izeta = 2
                 rmatch =    2.531849
              splitnorm =    0.280000
                 energy =   -0.104258
                kinetic =    6.807538
    potential(screened) =   -6.911796
       potential(ionic) =  -13.149920

POLgen: Perturbative polarization orbital with L=  2

POLgen: Polarization orbital for state 2p

   izeta = 1
                     rc =    5.924108
                 energy =    1.427508
                kinetic =    2.872379
    potential(screened) =   -1.444871
       potential(ionic) =   -5.563644
atom: Total number of Sankey-type orbitals: 13

atm_pop: Valence configuration (for local Pseudopot. screening):
 2s( 2.00)                                                            
 2p( 3.00)                                                            
Vna: chval, zval:    5.00000   5.00000

Vna:  Cut-off radius for the neutral-atom potential:   5.924108

atom: _________________________________________________________________________

<basis_specs>
===============================================================================
Si                   Z=  14    Mass=  28.090        Charge= 0.17977+309
Lmxo=1 Lmxkb= 3    BasisType=split      Semic=F
L=0  Nsemic=0  Cnfigmx=3
          i=1  nzeta=2  polorb=0  (3s)
            splnorm:   0.28000    
               vcte:    0.0000    
               rinn:    0.0000    
               qcoe:    0.0000    
               qyuk:    0.0000    
               qwid:   0.10000E-01
                rcs:    0.0000      0.0000    
            lambdas:    1.0000      1.0000    
L=1  Nsemic=0  Cnfigmx=3
          i=1  nzeta=2  polorb=1  (3p)
            splnorm:   0.28000    
               vcte:    0.0000    
               rinn:    0.0000    
               qcoe:    0.0000    
               qyuk:    0.0000    
               qwid:   0.10000E-01
                rcs:    0.0000      0.0000    
            lambdas:    1.0000      1.0000    
-------------------------------------------------------------------------------
L=0  Nkbl=1  erefs: 0.17977+309
L=1  Nkbl=1  erefs: 0.17977+309
L=2  Nkbl=1  erefs: 0.17977+309
L=3  Nkbl=1  erefs: 0.17977+309
===============================================================================
</basis_specs>

atom: Called for Si                    (Z =  14)

read_vps: Pseudopotential generation method:
read_vps: ATM4.2.7  Troullier-Martins                       
Valence charge for ps generation:    4.00000

xc_check: Exchange-correlation functional:
xc_check: GGA Perdew, Burke & Ernzerhof 1996
V l=0 = -2*Zval/r beyond r=  2.7826
V l=1 = -2*Zval/r beyond r=  2.7826
V l=2 = -2*Zval/r beyond r=  2.9253
V l=3 = -2*Zval/r beyond r=  2.7826
All V_l potentials equal beyond r=  2.8530
This should be close to max(r_c) in ps generation
All pots = -2*Zval/r beyond r=  2.9253

VLOCAL1: 99.0% of the norm of Vloc inside      5.333 Ry
VLOCAL1: 99.9% of the norm of Vloc inside     12.154 Ry
atom: Maximum radius for 4*pi*r*r*local-pseudopot. charge    3.39869
atom: Maximum radius for r*vlocal+2*Zval:    2.96205
GHOST: No ghost state for L =  0
GHOST: No ghost state for L =  1
GHOST: No ghost state for L =  2
GHOST: No ghost state for L =  3

KBgen: Kleinman-Bylander projectors: 
   l= 0   rc=  3.075247   el= -0.794092   Ekb=  5.879390   kbcos=  0.167461
   l= 1   rc=  3.153101   el= -0.300068   Ekb=  2.642817   kbcos=  0.058301
   l= 2   rc=  3.273594   el=  0.001958   Ekb= -1.185135   kbcos= -0.104411
   l= 3   rc=  3.232927   el=  0.003046   Ekb= -0.497174   kbcos= -0.015889

KBgen: Total number of Kleinman-Bylander projectors:   16
atom: -------------------------------------------------------------------------

atom: SANKEY-TYPE ORBITALS:
atom: Selected multiple-zeta basis: split     

SPLIT: Orbitals with angular momentum L= 0

SPLIT: Basis orbitals for state 3s

SPLIT: PAO cut-off radius determined from an
SPLIT: energy shift=  0.002000 Ry

   izeta = 1
                 lambda =    1.000000
                     rc =    6.429618
                 energy =   -0.792283
                kinetic =    0.525293
    potential(screened) =   -1.317576
       potential(ionic) =   -3.744923

   izeta = 2
                 rmatch =    3.998416
              splitnorm =    0.280000
                 energy =   -0.583081
                kinetic =    1.069570
    potential(screened) =   -1.652651
       potential(ionic) =   -4.235185

SPLIT: Orbitals with angular momentum L= 1

SPLIT: Basis orbitals for state 3p

SPLIT: PAO cut-off radius determined from an
SPLIT: energy shift=  0.002000 Ry

   izeta = 1
                 lambda =    1.000000
                     rc =    8.464845
                 energy =   -0.298236
                kinetic =    0.785360
    potential(screened) =   -1.083596
       potential(ionic) =   -3.273779

   izeta = 2
                 rmatch =    4.587816
              splitnorm =    0.280000
                 energy =   -0.131871
                kinetic =    1.403687
    potential(screened) =   -1.535557
       potential(ionic) =   -4.015310

POLgen: Perturbative polarization orbital with L=  2

POLgen: Polarization orbital for state 3p

   izeta = 1
                     rc =    8.464845
                 energy =    0.321949
                kinetic =    1.055677
    potential(screened) =   -0.733728
       potential(ionic) =   -2.672950
atom: Total number of Sankey-type orbitals: 13

atm_pop: Valence configuration (for local Pseudopot. screening):
 3s( 2.00)                                                            
 3p( 2.00)                                                            
Vna: chval, zval:    4.00000   4.00000

Vna:  Cut-off radius for the neutral-atom potential:   8.464845

atom: _________________________________________________________________________

<basis_specs>
===============================================================================
O                    Z=   8    Mass=  16.000        Charge= 0.17977+309
Lmxo=1 Lmxkb= 3    BasisType=split      Semic=F
L=0  Nsemic=0  Cnfigmx=2
          i=1  nzeta=2  polorb=0  (2s)
            splnorm:   0.28000    
               vcte:    0.0000    
               rinn:    0.0000    
               qcoe:    0.0000    
               qyuk:    0.0000    
               qwid:   0.10000E-01
                rcs:    0.0000      0.0000    
            lambdas:    1.0000      1.0000    
L=1  Nsemic=0  Cnfigmx=2
          i=1  nzeta=2  polorb=1  (2p)
            splnorm:   0.28000    
               vcte:    0.0000    
               rinn:    0.0000    
               qcoe:    0.0000    
               qyuk:    0.0000    
               qwid:   0.10000E-01
                rcs:    0.0000      0.0000    
            lambdas:    1.0000      1.0000    
-------------------------------------------------------------------------------
L=0  Nkbl=1  erefs: 0.17977+309
L=1  Nkbl=1  erefs: 0.17977+309
L=2  Nkbl=1  erefs: 0.17977+309
L=3  Nkbl=1  erefs: 0.17977+309
===============================================================================
</basis_specs>

atom: Called for O                     (Z =   8)

read_vps: Pseudopotential generation method:
read_vps: ATM4.2.7  Troullier-Martins                       
Valence charge for ps generation:    6.00000

xc_check: Exchange-correlation functional:
xc_check: GGA Perdew, Burke & Ernzerhof 1996
V l=0 = -2*Zval/r beyond r=  1.1000
V l=1 = -2*Zval/r beyond r=  1.1000
V l=2 = -2*Zval/r beyond r=  2.2154
V l=3 = -2*Zval/r beyond r=  1.1000
All V_l potentials equal beyond r=  2.2154
This should be close to max(r_c) in ps generation
All pots = -2*Zval/r beyond r=  2.2154

VLOCAL1: 99.0% of the norm of Vloc inside      8.845 Ry
VLOCAL1: 99.9% of the norm of Vloc inside     20.157 Ry
atom: Maximum radius for 4*pi*r*r*local-pseudopot. charge    2.67231
atom: Maximum radius for r*vlocal+2*Zval:    2.32897
GHOST: No ghost state for L =  0
GHOST: No ghost state for L =  1
GHOST: No ghost state for L =  2
GHOST: No ghost state for L =  3

KBgen: Kleinman-Bylander projectors: 
   l= 0   rc=  2.243238   el= -1.759686   Ekb=**********   kbcos= -0.171774
   l= 1   rc=  2.328968   el= -0.663873   Ekb=-14.506792   kbcos= -0.519897
   l= 2   rc=  2.573941   el=  0.002031   Ekb= -1.137373   kbcos= -0.019581
   l= 3   rc=  2.606321   el=  0.003153   Ekb= -1.013546   kbcos= -0.003122

KBgen: Total number of Kleinman-Bylander projectors:   16
atom: -------------------------------------------------------------------------

atom: SANKEY-TYPE ORBITALS:
atom: Selected multiple-zeta basis: split     

SPLIT: Orbitals with angular momentum L= 0

SPLIT: Basis orbitals for state 2s

SPLIT: PAO cut-off radius determined from an
SPLIT: energy shift=  0.002000 Ry

   izeta = 1
                 lambda =    1.000000
                     rc =    4.243912
                 energy =   -1.758270
                kinetic =    3.286084
    potential(screened) =   -5.044353
       potential(ionic) =  -12.921184

   izeta = 2
                 rmatch =    2.187845
              splitnorm =    0.280000
                 energy =   -0.885018
                kinetic =    8.134434
    potential(screened) =   -9.019452
       potential(ionic) =  -17.710645

SPLIT: Orbitals with angular momentum L= 1

SPLIT: Basis orbitals for state 2p

SPLIT: PAO cut-off radius determined from an
SPLIT: energy shift=  0.002000 Ry

   izeta = 1
                 lambda =    1.000000
                     rc =    5.314825
                 energy =   -0.661986
                kinetic =    4.917472
    potential(screened) =   -5.579458
       potential(ionic) =  -13.236259

   izeta = 2
                 rmatch =    2.160663
              splitnorm =    0.280000
                 energy =   -0.068760
                kinetic =    9.183374
    potential(screened) =   -9.252135
       potential(ionic) =  -18.274251

POLgen: Perturbative polarization orbital with L=  2

POLgen: Polarization orbital for state 2p

   izeta = 1
                     rc =    5.314825
                 energy =    1.970580
                kinetic =    3.886128
    potential(screened) =   -1.915547
       potential(ionic) =   -7.749584
atom: Total number of Sankey-type orbitals: 13

atm_pop: Valence configuration (for local Pseudopot. screening):
 2s( 2.00)                                                            
 2p( 4.00)                                                            
Vna: chval, zval:    6.00000   6.00000

Vna:  Cut-off radius for the neutral-atom potential:   5.314825

atom: _________________________________________________________________________

prinput: Basis input ----------------------------------------------------------

PAO.BasisType split     

%block ChemicalSpeciesLabel
    1    1 H                       # Species index, atomic number, species label
    2    7 N                       # Species index, atomic number, species label
    3   14 Si                      # Species index, atomic number, species label
    4    8 O                       # Species index, atomic number, species label
%endblock ChemicalSpeciesLabel

%block PAO.Basis                 # Define Basis set
H                     1                    # Species label, number of l-shells
 n=1   0   2 P   1                   # n, l, Nzeta, Polarization, NzetaPol
   6.518      2.141   
   1.000      1.000   
N                     2                    # Species label, number of l-shells
 n=2   0   2                         # n, l, Nzeta 
   4.730      2.532   
   1.000      1.000   
 n=2   1   2 P   1                   # n, l, Nzeta, Polarization, NzetaPol
   5.924      2.532   
   1.000      1.000   
Si                    2                    # Species label, number of l-shells
 n=3   0   2                         # n, l, Nzeta 
   6.430      3.998   
   1.000      1.000   
 n=3   1   2 P   1                   # n, l, Nzeta, Polarization, NzetaPol
   8.465      4.588   
   1.000      1.000   
O                     2                    # Species label, number of l-shells
 n=2   0   2                         # n, l, Nzeta 
   4.244      2.188   
   1.000      1.000   
 n=2   1   2 P   1                   # n, l, Nzeta, Polarization, NzetaPol
   5.315      2.161   
   1.000      1.000   
%endblock PAO.Basis

prinput: ----------------------------------------------------------------------

Dumping basis to NetCDF file H.ion.nc
Dumping basis to NetCDF file N.ion.nc
Dumping basis to NetCDF file Si.ion.nc
Dumping basis to NetCDF file O.ion.nc
coor:   Atomic-coordinates input format  =     Cartesian coordinates
coor:                                          (in Angstroms)

siesta: Atomic coordinates (Bohr) and species
siesta:      4.31792  -9.81768   0.00000  1        1
siesta:      2.59711  -8.81503   0.00000  2        2
siesta:     -0.41253 -10.38326   0.00000  3        3
siesta:     -0.33040 -13.20006   0.00000  1        4
siesta:     -3.14019  -8.66630   0.00000  2        5
siesta:     -2.06030  -5.43214   0.00000  3        6
siesta:     -2.89201  -1.33728   0.00000  3        7
siesta:     -5.94160  -0.17360   0.00000  2        8
siesta:     -6.43014   1.81127   0.00000  1        9
siesta:     -7.46581  -1.44982   0.00000  1       10
siesta:     -0.33706   0.78140   0.00000  2       11
siesta:      2.82552  -0.08957   0.00000  3       12
siesta:      4.64124   2.09244   0.00000  1       13
siesta:      4.35491  -2.99662   0.00000  2       14
siesta:      2.09241  -5.37836   0.00000  3       15
siesta:      0.02114  21.83884   0.00000  1       16
siesta:     -1.50710  20.53076   0.00000  2       17
siesta:     -4.63760  21.87837   0.00000  3       18
siesta:     -4.45455  24.73322   0.00000  1       19
siesta:     -7.89957  19.34037   0.00000  3       20
siesta:    -12.34884  19.32528   0.00000  3       21
siesta:    -13.41166  20.71326  -2.27113  1       22
siesta:    -12.91541  16.53020  -0.16286  1       23
siesta:    -13.41187  20.39266   2.43425  1       24
siesta:     -6.14327  15.42756   0.00000  3       25
siesta:     -7.93751  12.99258   0.00000  4       26
siesta:     -2.75887  15.09924   0.00000  2       27
siesta:     -2.13339  13.14837   0.00000  1       28
siesta:     -0.28625  17.35661   0.00000  3       29
siesta:      2.67295  16.85159   0.00000  4       30

siesta: System type = molecule  

initatomlists: Number of atoms, orbitals, and projectors:     30   302   403

siesta: ******************** Simulation parameters ****************************
siesta:
siesta: The following are some of the parameters of the simulation.
siesta: A complete list of the parameters used, including default values,
siesta: can be found in file out.fdf
siesta:
redata: Spin configuration                          = spin-orbit
redata: Number of spin components                   = 8
redata: Time-Reversal Symmetry                      = F
redata: Spin spiral                                 = F
############################################################
This spin-orbit implementation uses a local approximation.
From 4.2 and onwards the full non-local approximation is implemented
You are strongly advised to use >=4.2 versions!
############################################################
redata: Long output                                 =   F
redata: Number of Atomic Species                    =        4
redata: Charge density info will appear in .RHO file
redata: Write Mulliken Pop.                         = NO
redata: Matel table size (NRTAB)                    =     1024
redata: Mesh Cutoff                                 =   340.0000 Ry
redata: Net charge of the system                    =     0.0000 |e|
redata: Min. number of SCF Iter                     =        1
redata: Max. number of SCF Iter                     =      200
redata: SCF mix quantity                            = Hamiltonian
redata: Mix DM or H after convergence               =   F
redata: Recompute H after scf cycle                 =   F
redata: Mix DM in first SCF step                    =   T
redata: Write Pulay info on disk                    =   F
redata: New DM Occupancy tolerance                  = 0.000000000001
redata: No kicks to SCF
redata: DM Mixing Weight for Kicks                  =     0.5000
redata: Require Harris convergence for SCF          =   F
redata: Harris energy tolerance for SCF             =     0.000100 eV
redata: Require DM convergence for SCF              =   T
redata: DM tolerance for SCF                        =     0.000008
redata: Require EDM convergence for SCF             =   F
redata: EDM tolerance for SCF                       =     0.001000 eV
redata: Require H convergence for SCF               =   T
redata: Hamiltonian tolerance for SCF               =     0.000001 eV
redata: Require (free) Energy convergence for SCF   =   F
redata: (free) Energy tolerance for SCF             =     0.000100 eV
redata: Using Saved Data (generic)                  =   F
redata: Use continuation files for DM               =   T
redata: Neglect nonoverlap interactions             =   F
redata: Method of Calculation                       = Diagonalization
redata: Electronic Temperature                      =   299.9978 K
redata: Fix the spin of the system                  =   F
redata: Dynamics option                             = Verlet MD run
redata: Initial MD time step                        =        1
redata:   Final MD time step                        =        1
redata: Length of MD time step                      =     0.5000 fs
redata: Initial Temperature of MD run               =     0.0000 K
redata: Perform a MD quench                         =   F
mix.SCF: Pulay mixing                            = Pulay
mix.SCF:    Variant                              = stable
mix.SCF:    History steps                        = 6
mix.SCF:    Linear mixing weight                 =     0.250000
mix.SCF:    Mixing weight                        =     0.250000
mix.SCF:    SVD condition                        = 0.1000E-07
mix.SCF:    Restart steps                        = 24
mix.SCF:    Restart save steps                   = 3
mix.SCF: Spin-component mixing                   all
redata: Save all siesta data in one NC              =   F
redata: ***********************************************************************

%block SCF.Mixers
  Pulay
%endblock SCF.Mixers

%block SCF.Mixer.Pulay
  # Mixing method
  method pulay
  variant stable

  # Mixing options
  weight 0.2500
  weight.linear 0.2500
  history 6
  restart 24
  restart.save 3
%endblock SCF.Mixer.Pulay

Size of DM history Fstack: 3
Total number of electrons:    98.000000
Total ionic charge:    98.000000

* ProcessorY, Blocksize:    2  24


* Orbital distribution balance (max,min):    48    24


Time-reversal symmetry not used.

siesta: k-grid: Number of k-points =     1
siesta: k-grid: Cutoff (effective) =     5.000 Ang
siesta: k-grid: Supercell and displacements
siesta: k-grid:    1   0   0      0.000
siesta: k-grid:    0   1   0      0.000
siesta: k-grid:    0   0   1      0.000

diag: Algorithm                                     = ELPA-1stage
diag: Parallel over k                               =   F
diag: Use parallel 2D distribution                  =   T
diag: Parallel block-size                           = 24
diag: Parallel distribution                         =     2 x     4
diag: Used triangular part                          = Lower
diag: Absolute tolerance                            =  0.100E-15
diag: Orthogonalization factor                      =  0.100E-05
diag: Memory factor                                 =  1.0000


ts: **************************************************************
ts: Save H and S matrices                           =    F
ts: Save DM and EDM matrices                        =    F
ts: Only save the overlap matrix S                  =    F
ts: **************************************************************

************************ Begin: TS CHECKS AND WARNINGS ************************
************************ End: TS CHECKS AND WARNINGS **************************


                     ====================================
                        Begin MD step =      1
                     ====================================

outcoor: Atomic coordinates (Ang):                          
    2.28494382   -5.19529124    0.00000000   1       1  H
    1.37433094   -4.66471070    0.00000000   2       2  N
   -0.21830245   -5.49458215    0.00000000   3       3  Si
   -0.17484108   -6.98516892    0.00000000   1       4  H
   -1.66171682   -4.58600741    0.00000000   2       5  N
   -1.09026419   -2.87456374    0.00000000   3       6  Si
   -1.53038332   -0.70765692    0.00000000   3       7  Si
   -3.14415959   -0.09186471    0.00000000   2       8  N
   -3.40268075    0.95848335    0.00000000   1       9  H
   -3.95073599   -0.76720972    0.00000000   1      10  H
   -0.17836637    0.41349951    0.00000000   2      11  N
    1.49520211   -0.04739960    0.00000000   3      12  Si
    2.45603905    1.10727302    0.00000000   1      13  H
    2.30451743   -1.58574382    0.00000000   2      14  N
    1.10725559   -2.84610319    0.00000000   3      15  Si
    0.01118840   11.55661359    0.00000000   1      16  H
   -0.79752228   10.86440771    0.00000000   2      17  N
   -2.45411212   11.57752781    0.00000000   3      18  Si
   -2.35724695   13.08825302    0.00000000   1      19  H
   -4.18026847   10.23447968    0.00000000   3      20  Si
   -6.53472272   10.22649275    0.00000000   3      21  Si
   -7.09714084   10.96098240   -1.20183078   1      22  H
   -6.83453647    8.74740162   -0.08618332   1      23  H
   -7.09725330   10.79132521    1.28814761   1      24  H
   -3.25087783    8.16390845    0.00000000   3      25  Si
   -4.20034619    6.87537232    0.00000000   4      26  O
   -1.45993296    7.99017298    0.00000000   2      27  N
   -1.12894160    6.95781600    0.00000000   1      28  H
   -0.15147474    9.18471940    0.00000000   3      29  Si
    1.41446219    8.91747255    0.00000000   4      30  O

outcell: Unit cell vectors (Ang):
       30.000000    0.000000    0.000000
        0.000000   45.000000    0.000000
        0.000000    0.000000   10.000000

outcell: Cell vector modules (Ang)   :   30.000000   45.000000   10.000000
outcell: Cell angles (23,13,12) (deg):     90.0000     90.0000     90.0000
outcell: Cell volume (Ang**3)        :  13500.0000
<dSpData1D:S at geom step 1
  <sparsity:sparsity for geom step 1
    nrows_g=302 nrows=48 sparsity=.0767 nnzs=6994, refcount: 8>
  <dData1D:(new from dSpData1D) n=6994, refcount: 1>
refcount: 1>
new_DM -- step:     1
Initializing Density Matrix...

Attempting to read DM from file... Failed...
DM filled with atomic data:
<dSpData2D:DM initialized from atoms
  <sparsity:sparsity for geom step 1
    nrows_g=302 nrows=48 sparsity=.0767 nnzs=6994, refcount: 9>
  <dData2D:DM n=6994 m=8, refcount: 1>
refcount: 1>
     spin moment: S , {S} =   56.00000   0.00000   0.00000  56.00000
No. of atoms with KB's overlaping orbs in proc 0. Max # of overlaps:      27     134

Initializing spin-orbit part of the Hamiltonian
  Adding spin-orbit effects for H 
  Adding spin-orbit effects for N 
  Adding spin-orbit effects for Si
  Adding spin-orbit effects for O 


New grid distribution:   1
           1       1:  180    1:  125    1:   15
           2       1:  180    1:  125   16:   30
           3       1:  180    1:  125   31:   45
           4       1:  180    1:  125   46:   60
           5       1:  180  126:  250    1:   15
           6       1:  180  126:  250   16:   30
           7       1:  180  126:  250   31:   45
           8       1:  180  126:  250   46:   60

InitMesh: MESH =   360 x   500 x   120 =    21600000
InitMesh: (bp) =   180 x   250 x    60 =     2700000
InitMesh: Mesh cutoff (required, used) =   340.000   341.206 Ry
ExtMesh (bp) on 0 =   288 x   225 x   123 =     7970400
New grid distribution:   2
           1       1:  158    1:   49    1:   60
           2       1:  151  233:  250    1:   60
           3       1:  158   50:   66    1:   60
           4     159:  180   50:   66    1:   60
           5       1:  151   67:  232    1:   60
           6     152:  180   67:  231    1:   60
           7     159:  180    1:   49    1:   60
           8     152:  180  232:  250    1:   60
New grid distribution:   3
           1       1:  144    1:   43    1:   60
           2       1:  146  221:  250    1:   60
           3       1:  144   44:   65    1:   60
           4     145:  180   39:   65    1:   60
           5       1:  146   66:  220    1:   60
           6     147:  180   66:  216    1:   60
           7     145:  180    1:   38    1:   60
           8     147:  180  217:  250    1:   60
Setting up quadratic distribution...
ExtMesh (bp) on 0 =   266 x   149 x   168 =     6658512
PhiOnMesh: Number of (b)points on node 0 =               464520
PhiOnMesh: nlist on node 0 =              1784789

stepf: Fermi-Dirac step function

siesta: Program's energy decomposition (eV):
siesta: Ebs     =      -627.963801
siesta: Eions   =      3553.971015
siesta: Ena     =       374.984508
siesta: Ekin    =      3171.276147
siesta: Enl     =     -2984.656180
siesta: Eso     =        -0.003884
siesta: Edftu   =         0.000000
siesta: DEna    =       129.717976
siesta: DUscf   =        75.711752
siesta: DUext   =         0.000000
siesta: Exc     =     -1168.659318
siesta: eta*DQ  =         0.000000
siesta: Emadel  =         0.000000
siesta: Emeta   =         0.000000
siesta: Emolmec =         0.000000
siesta: Ekinion =         0.000000
siesta: Eharris =     -3884.457627
siesta: Etot    =     -3955.600014
siesta: FreeEng =     -3955.603311

        iscf     Eharris(eV)        E_KS(eV)     FreeEng(eV)     dDmax    Ef(eV) dHmax(eV)
   scf:    1    -3884.457627    -3955.600014    -3955.603311  0.970544 -4.935205 21.597988
     spin moment: S , {S} =    2.02339  -0.00000  -0.00000   2.02339
timer: Routine,Calls,Time,% = IterSCF        1      16.043  28.62
   scf:    2    -3994.894900    -3988.274228    -3988.274236  0.466025 -4.255666 12.074631
     spin moment: S , {S} =    2.00008   0.00000  -0.00000   2.00008
   scf:    3    -3955.737823    -3984.932539    -3984.962964  0.422024 -4.216655 12.620911
     spin moment: S , {S} =    1.99803  -0.00000  -0.00001   1.99803
   scf:    4    -4002.394583    -3997.244844    -3997.244844  0.216337 -3.866941  6.201012
     spin moment: S , {S} =    0.00010  -0.00000   0.00000   0.00010
   scf:    5    -3998.657762    -3998.024749    -3998.024749  0.038391 -3.747573  3.980840
     spin moment: S , {S} =    0.00006  -0.00000   0.00000   0.00006
   scf:    6    -3998.820250    -3998.422158    -3998.422158  0.026706 -3.727588  1.901492
     spin moment: S , {S} =    0.00003  -0.00000   0.00000   0.00003
   scf:    7    -3998.808477    -3998.609490    -3998.609490  0.022455 -3.754647  0.786317
     spin moment: S , {S} =    0.00001  -0.00000   0.00000   0.00001
   scf:    8    -3998.741760    -3998.673339    -3998.673339  0.012527 -3.817161  0.524459
     spin moment: S , {S} =    0.00000  -0.00000   0.00000   0.00000
   scf:    9    -3998.724207    -3998.697621    -3998.697621  0.007249 -3.837706  0.418904
     spin moment: S , {S} =    0.00000  -0.00000   0.00000   0.00000
   scf:   10    -3998.759359    -3998.717216    -3998.717216  0.025777 -3.872125  0.237913
     spin moment: S , {S} =    0.00000  -0.00000  -0.00000  -0.00000
   scf:   11    -3998.723818    -3998.720708    -3998.720709  0.004274 -3.855659  0.088403
     spin moment: S , {S} =    0.00000  -0.00000  -0.00000  -0.00000
   scf:   12    -3998.722044    -3998.721411    -3998.721412  0.001138 -3.852256  0.051781
     spin moment: S , {S} =    0.00000   0.00000  -0.00000  -0.00000
   scf:   13    -3998.722562    -3998.721975    -3998.721976  0.001164 -3.849937  0.028114
     spin moment: S , {S} =    0.00000   0.00000  -0.00000   0.00000
   scf:   14    -3998.722516    -3998.722235    -3998.722235  0.000934 -3.848793  0.017595
     spin moment: S , {S} =    0.00000   0.00000  -0.00000  -0.00000
   scf:   15    -3998.722460    -3998.722341    -3998.722342  0.000624 -3.848425  0.010165
     spin moment: S , {S} =    0.00000   0.00000  -0.00000  -0.00000
   scf:   16    -3998.722433    -3998.722383    -3998.722384  0.000486 -3.848380  0.004086
     spin moment: S , {S} =    0.00000   0.00000   0.00000  -0.00000
   scf:   17    -3998.722398    -3998.722390    -3998.722391  0.000161 -3.848555  0.001977
     spin moment: S , {S} =    0.00000   0.00000   0.00000   0.00000
   scf:   18    -3998.722397    -3998.722393    -3998.722394  0.000128 -3.848683  0.001278
     spin moment: S , {S} =    0.00000   0.00000   0.00000   0.00000
   scf:   19    -3998.722396    -3998.722394    -3998.722395  0.000080 -3.848724  0.000734
     spin moment: S , {S} =    0.00000   0.00000   0.00000   0.00000
   scf:   20    -3998.722395    -3998.722394    -3998.722395  0.000037 -3.848747  0.000527
     spin moment: S , {S} =    0.00000   0.00000   0.00000   0.00000
   scf:   21    -3998.722395    -3998.722395    -3998.722395  0.000031 -3.848761  0.000342
     spin moment: S , {S} =    0.00000   0.00000   0.00000   0.00000
   scf:   22    -3998.722395    -3998.722395    -3998.722396  0.000032 -3.848779  0.000163
     spin moment: S , {S} =    0.00000   0.00000   0.00000   0.00000
   scf:   23    -3998.722395    -3998.722395    -3998.722396  0.000013 -3.848784  0.000133
     spin moment: S , {S} =    0.00000   0.00000   0.00000   0.00000
   scf:   24    -3998.722395    -3998.722395    -3998.722396  0.000012 -3.848783  0.000075
     spin moment: S , {S} =    0.00000   0.00000   0.00000   0.00000
mix: Pulay -- resetting history
   scf:   25    -3998.722395    -3998.722395    -3998.722396  0.000010 -3.848778  0.000039
     spin moment: S , {S} =    0.00000   0.00000   0.00000   0.00000
   scf:   26    -3998.722395    -3998.722395    -3998.722396  0.000004 -3.848777  0.000025
     spin moment: S , {S} =    0.00000   0.00000   0.00000   0.00000
   scf:   27    -3998.722395    -3998.722395    -3998.722396  0.000003 -3.848775  0.000017
     spin moment: S , {S} =    0.00000   0.00000   0.00000   0.00000
   scf:   28    -3998.722395    -3998.722395    -3998.722396  0.000002 -3.848776  0.000008
     spin moment: S , {S} =    0.00000   0.00000   0.00000   0.00000
   scf:   29    -3998.722395    -3998.722395    -3998.722396  0.000001 -3.848776  0.000006
     spin moment: S , {S} =    0.00000  -0.00000   0.00000   0.00000
   scf:   30    -3998.722395    -3998.722395    -3998.722396  0.000001 -3.848776  0.000004
     spin moment: S , {S} =    0.00000  -0.00000   0.00000  -0.00000
   scf:   31    -3998.722395    -3998.722395    -3998.722396  0.000000 -3.848776  0.000003
     spin moment: S , {S} =    0.00000   0.00000   0.00000  -0.00000
   scf:   32    -3998.722395    -3998.722395    -3998.722396  0.000000 -3.848778  0.000002
     spin moment: S , {S} =    0.00000   0.00000   0.00000  -0.00000
   scf:   33    -3998.722395    -3998.722395    -3998.722396  0.000000 -3.848777  0.000001
     spin moment: S , {S} =    0.00000   0.00000   0.00000  -0.00000
   scf:   34    -3998.722395    -3998.722395    -3998.722396  0.000000 -3.848777  0.000000
     spin moment: S , {S} =    0.00000   0.00000   0.00000   0.00000

SCF Convergence by DM+H criterion
max |DM_out - DM_in|         :     0.0000001321
max |H_out - H_in|      (eV) :     0.0000004045
SCF cycle converged after 34 iterations

Using DM_out to compute the final energy and forces
No. of atoms with KB's overlaping orbs in proc 0. Max # of overlaps:      27     134

siesta: E_KS(eV) =            -3998.7224

siesta: E_KS - E_eggbox =     -3998.7224
     spin moment: S , {S} =    0.00000   0.00000   0.00000   0.00000

siesta: Atomic forces (eV/Ang):
     1    0.143160   -0.027278    0.000000
     2   -0.035613    0.043884    0.000000
     3   -0.031069   -0.017912   -0.000000
     4    0.068477   -0.134401   -0.000000
     5    0.054240    0.005180   -0.000000
     6   -0.194148    0.018771    0.000000
     7    1.078411   -0.042761   -0.000000
     8   -0.658801    1.418328    0.000000
     9    0.171004   -1.015587   -0.000000
    10   -0.111384    0.134987    0.000000
    11   -0.194579   -0.377376    0.000000
    12   -0.281263    0.050010   -0.000000
    13   -0.123202   -0.052068    0.000000
    14    0.031498   -0.118852   -0.000000
    15    0.111794    0.096766   -0.000000
    16   -0.104655   -0.092904   -0.000949
    17    0.040340   -0.096279   -0.000795
    18   -0.153905    0.039023    0.005203
    19    0.091932   -0.135352   -0.001427
    20    0.124428    0.080901   -0.001055
    21    0.054993   -0.028175   -0.006963
    22    0.084849    0.031645    0.127259
    23    0.028986   -0.057296    0.001765
    24    0.082305    0.065607   -0.101132
    25   -0.659647   -0.411603    0.001041
    26    1.853591   -3.293520    0.000505
    27    0.356546   -0.454141   -0.000553
    28   -0.178751    0.701504   -0.000072
    29    0.143860    0.176172   -0.000224
    30   -0.089465   -1.578531    0.000263
----------------------------------------
   Tot    1.703932   -5.071259    0.022866
----------------------------------------
   Max    3.293520
   Res    0.511672    sqrt( Sum f_i^2 / 3N )
----------------------------------------
   Max    3.293520    constrained

Stress tensor Voigt[x,y,z,yz,xz,xy] (kbar):        0.11        0.28       -0.01       -0.01        0.00        0.12
(Free)E + p*V (eV/cell)    -3999.8054
Target enthalpy (eV/cell)    -3998.7224

siesta: Stress tensor (static) (eV/Ang**3):
         0.000072    0.000077    0.000000
         0.000077    0.000175   -0.000004
         0.000000   -0.000004   -0.000006

siesta: Pressure (static):         -0.12853053  kBar

siesta: Stress tensor (total) (eV/Ang**3):
         0.000072    0.000077    0.000000
         0.000077    0.000175   -0.000004
         0.000000   -0.000004   -0.000006

siesta: Pressure (total):         -0.12853053  kBar

siesta: Temp_ion =       0.000 K

siesta: Eigenvalues (eV):
ik =     1
  -22.8494  -22.8494  -22.3147  -22.3147  -21.7201  -21.7201  -21.2733  -21.2733  -21.0300  -21.0300
  -20.9547  -20.9547  -19.4061  -19.4061  -19.2428  -19.2428  -18.6191  -18.6191  -15.0109  -15.0109
  -14.0987  -14.0987  -13.6573  -13.6573  -13.5643  -13.5643  -13.0665  -13.0665  -12.8983  -12.8983
  -12.5446  -12.5446  -12.1744  -12.1744  -11.9008  -11.9008  -11.6205  -11.6205  -11.4808  -11.4808
  -10.9972  -10.9972  -10.6072  -10.6072  -10.2112  -10.2112   -9.5336   -9.5336   -9.3152   -9.3152
   -9.1660   -9.1660   -9.0864   -9.0864   -9.0155   -9.0155   -8.8024   -8.8024   -8.5883   -8.5883
   -8.3835   -8.3835   -8.2445   -8.2445   -8.1410   -8.1410   -7.9963   -7.9963   -7.9286   -7.9286
   -7.7070   -7.7070   -7.4048   -7.4048   -7.3098   -7.3098   -7.2589   -7.2589   -6.8506   -6.8506
   -6.8337   -6.8337   -6.7088   -6.7088   -6.4175   -6.4175   -6.2615   -6.2615   -6.1751   -6.1751
   -5.8143   -5.8143   -5.6906   -5.6906   -5.5522   -5.5522   -4.2227   -4.2227   -3.4749   -3.4749
   -2.6880   -2.6880   -2.1925   -2.1925   -2.1800   -2.1800   -2.1090   -2.1090   -1.9768   -1.9768
   -1.9513   -1.9513   -1.7174   -1.7174   -1.6178   -1.6178   -1.5963   -1.5963   -1.4093   -1.4093
   -1.1463   -1.1463   -0.5822   -0.5822   -0.3184   -0.3184   -0.2087   -0.2087   -0.1711   -0.1711
   -0.0069   -0.0069    0.0635    0.0635    0.2594    0.2594    0.5330    0.5330    0.5676    0.5676
    0.6296    0.6296    0.7592    0.7592    1.2112    1.2112    1.2693    1.2693    1.3014    1.3014
    1.4601    1.4601    1.5798    1.5798    1.9121    1.9121    1.9643    1.9643    2.1734    2.1734
    2.4309    2.4309    2.7606    2.7606    2.7974    2.7974    2.8188    2.8188    2.8433    2.8433
    3.0750    3.0750    3.1109    3.1109    3.1517    3.1517    3.2627    3.2627    3.3255    3.3255
    3.6774    3.6774    3.9245    3.9245    4.2072    4.2072    4.2132    4.2132    4.2459    4.2459
    4.3769    4.3769    4.6837    4.6837    4.6891    4.6891    4.8124    4.8124    5.0699    5.0699
    5.0771    5.0771    5.2167    5.2167    5.5682    5.5682    5.7151    5.7151    5.7484    5.7484
    5.8902    5.8902    6.0702    6.0702    6.1601    6.1601    6.2291    6.2291    6.3219    6.3219
    6.6032    6.6032    6.6149    6.6149    6.8319    6.8319    7.0528    7.0528    7.2167    7.2167
    7.2605    7.2605    7.4799    7.4799    7.6357    7.6357    7.8581    7.8581    7.9819    7.9819
    7.9971    7.9971    8.1722    8.1722    8.3647    8.3647    8.3768    8.3768    8.6977    8.6977
    8.9351    8.9351    8.9874    8.9874    9.0160    9.0161    9.2899    9.2899    9.6204    9.6204
    9.6639    9.6639    9.8069    9.8069    9.8366    9.8366    9.9249    9.9249    9.9484    9.9484
   10.1798   10.1798   10.4625   10.4625   10.6568   10.6568   10.9517   10.9517   10.9815   10.9815
   11.3049   11.3049   11.4255   11.4255   11.6349   11.6349   11.6750   11.6750   11.6954   11.6954
   11.9356   11.9356   12.3077   12.3077   12.3428   12.3428   12.4146   12.4146   12.6365   12.6365
   12.9362   12.9362   12.9550   12.9550   13.0542   13.0542   13.2782   13.2782   13.4043   13.4043
   13.4690   13.4690   13.7381   13.7381   14.5076   14.5076   14.6647   14.6647   14.7430   14.7430
   14.8131   14.8131   14.9445   14.9445   15.1553   15.1553   16.1103   16.1103   16.5635   16.5635
   16.8008   16.8008   16.9182   16.9182   17.0288   17.0288   17.1897   17.1897   17.4463   17.4463
   18.2353   18.2353   18.2597   18.2597   18.5784   18.5784   18.7644   18.7644   18.8438   18.8438
   18.8921   18.8921   19.5495   19.5495   19.8827   19.8827   20.0268   20.0268   20.2574   20.2574
   20.7254   20.7254   21.1158   21.1159   21.1921   21.1921   21.7040   21.7040   22.2862   22.2862
   22.3194   22.3194   22.8953   22.8953   22.9866   22.9866   23.1935   23.1935   23.8444   23.8444
   24.5957   24.5957   24.8328   24.8328   24.8495   24.8495   25.8023   25.8023   25.9443   25.9443
   26.1439   26.1439   26.5616   26.5616   26.6040   26.6040   27.7774   27.7774   28.0544   28.0544
   28.4220   28.4220   28.5081   28.5081   29.2296   29.2296   29.5199   29.5199   30.4777   30.4777
   30.8091   30.8091   30.8529   30.8529   30.9483   30.9483   31.3956   31.3956   31.6420   31.6420
   31.7823   31.7823   32.0344   32.0344   32.1791   32.1791   33.4007   33.4007   33.4943   33.4943
   33.7524   33.7524   34.0743   34.0743   34.5280   34.5280   34.9030   34.9030   34.9321   34.9321
   35.5095   35.5095   36.0233   36.0233   36.1635   36.1635   37.1896   37.1896   37.5722   37.5722
   37.5825   37.5825   37.8215   37.8215   38.1478   38.1478   38.4649   38.4649   38.4971   38.4971
   39.1488   39.1488   40.2625   40.2625   40.2957   40.2957   40.7764   40.7764   41.2109   41.2109
   41.7281   41.7281   41.8957   41.8957   41.9348   41.9348   43.3335   43.3335   43.4894   43.4894
   43.9276   43.9276   44.5908   44.5908   44.8986   44.8986   44.9335   44.9335   45.1905   45.1905
   45.6201   45.6201   45.8044   45.8044   45.9959   45.9959   46.6239   46.6239   47.0418   47.0418
   47.1267   47.1267   47.4536   47.4536   48.6472   48.6472   48.8275   48.8275   49.3880   49.3880
   49.7269   49.7269   50.2422   50.2422   50.3193   50.3193   50.3432   50.3432   50.4688   50.4688
   51.7659   51.7659   52.6756   52.6756   52.7632   52.7632   53.9771   53.9771   54.3886   54.3886
   54.8723   54.8723   54.9059   54.9059   56.0851   56.0851   56.1236   56.1236   56.2423   56.2423
   56.9432   56.9432   57.7746   57.7746   58.0157   58.0157   58.4188   58.4188   59.6925   59.6925
   60.0634   60.0634   61.2414   61.2414   61.7446   61.7446   62.8683   62.8683   63.3673   63.3673
   65.3004   65.3004   65.4799   65.4799   67.0838   67.0838   67.3215   67.3215   68.4588   68.4588
   68.4778   68.4778   70.6148   70.6148   72.0183   72.0183   76.5533   76.5533   88.6874   88.6874
   91.9053   91.9053   93.0857   93.0857   95.1129   95.1129   96.5118   96.5118  100.1978  100.1978
  100.8328  100.8328  102.6009  102.6009  114.3286  114.3286  118.3808  118.3808  123.2964  123.2964
  132.4980  132.4980  138.8125  138.8125
siesta: Fermi energy =      -3.848777 eV

siesta: Program's energy decomposition (eV):
siesta: Ebs     =     -1111.304024
siesta: Eions   =      3553.971015
siesta: Ena     =       374.984508
siesta: Ekin    =      2743.058114
siesta: Enl     =     -2522.713257
siesta: Eso     =        -0.004664
siesta: Edftu   =         0.000000
siesta: DEna    =        36.859047
siesta: DUscf   =        13.900397
siesta: DUext   =         0.000000
siesta: Exc     =     -1090.835524
siesta: eta*DQ  =         0.000000
siesta: Emadel  =         0.000000
siesta: Emeta   =         0.000000
siesta: Emolmec =         0.000000
siesta: Ekinion =         0.000000
siesta: Eharris =     -3998.722395
siesta: Etot    =     -3998.722395
siesta: FreeEng =     -3998.722396

siesta: Final energy (eV):
siesta:  Band Struct. =   -1111.304024
siesta:       Kinetic =    2743.058114
siesta:       Hartree =   11916.133545
siesta:       Edftu   =       0.000000
siesta:       Eso     =      -0.004664
siesta:    Ext. field =       0.000000
siesta:   Exch.-corr. =   -1090.835524
siesta:  Ion-electron =  -26270.926048
siesta:       Ion-ion =    8703.852183
siesta:       Ekinion =       0.000000
siesta:         Total =   -3998.722395
siesta:         Fermi =      -3.848777

siesta: Atomic forces (eV/Ang):
siesta:      1    0.143160   -0.027278    0.000000
siesta:      2   -0.035613    0.043884    0.000000
siesta:      3   -0.031069   -0.017912   -0.000000
siesta:      4    0.068477   -0.134401   -0.000000
siesta:      5    0.054240    0.005180   -0.000000
siesta:      6   -0.194148    0.018771    0.000000
siesta:      7    1.078411   -0.042761   -0.000000
siesta:      8   -0.658801    1.418328    0.000000
siesta:      9    0.171004   -1.015587   -0.000000
siesta:     10   -0.111384    0.134987    0.000000
siesta:     11   -0.194579   -0.377376    0.000000
siesta:     12   -0.281263    0.050010   -0.000000
siesta:     13   -0.123202   -0.052068    0.000000
siesta:     14    0.031498   -0.118852   -0.000000
siesta:     15    0.111794    0.096766   -0.000000
siesta:     16   -0.104655   -0.092904   -0.000949
siesta:     17    0.040340   -0.096279   -0.000795
siesta:     18   -0.153905    0.039023    0.005203
siesta:     19    0.091932   -0.135352   -0.001427
siesta:     20    0.124428    0.080901   -0.001055
siesta:     21    0.054993   -0.028175   -0.006963
siesta:     22    0.084849    0.031645    0.127259
siesta:     23    0.028986   -0.057296    0.001765
siesta:     24    0.082305    0.065607   -0.101132
siesta:     25   -0.659647   -0.411603    0.001041
siesta:     26    1.853591   -3.293520    0.000505
siesta:     27    0.356546   -0.454141   -0.000553
siesta:     28   -0.178751    0.701504   -0.000072
siesta:     29    0.143860    0.176172   -0.000224
siesta:     30   -0.089465   -1.578531    0.000263
siesta: ----------------------------------------
siesta:    Tot    1.703932   -5.071259    0.022866

siesta: Stress tensor (static) (eV/Ang**3):
siesta:     0.000072    0.000077    0.000000
siesta:     0.000077    0.000175   -0.000004
siesta:     0.000000   -0.000004   -0.000006

siesta: Cell volume =      13500.000000 Ang**3

siesta: Pressure (static):
siesta:                Solid            Molecule  Units
siesta:          -0.00000087          0.00000627  Ry/Bohr**3
siesta:          -0.00008022          0.00057554  eV/Ang**3
siesta:          -0.12853053          0.92212180  kBar
(Free)E+ p_basis*V_orbitals  =       -3977.594311
(Free)Eharris+ p_basis*V_orbitals  =       -3977.594311
     spin moment: S , {S} =    0.00000   0.00000   0.00000   0.00000

siesta: Electric dipole (a.u.)  =   -1.164857    1.561839   -0.001854
siesta: Electric dipole (Debye) =   -2.960773    3.969802   -0.004711

cite: Please see "AT.bib" for an exhaustive BiBTeX file.
cite: Please clearly indicate Siesta version in published work: v4.1.5-1-g384057250
cite: This calculation has made use of the following articles
cite: which are encouraged to be cited in a published work.
        Primary SIESTA paper
          DOI: www.doi.org/10.1088/0953-8984/14/11/302
        Spin-orbit coupling (on-site approximation)
          DOI: www.doi.org/10.1088/0953-8984/19/19/489001


WARNING: alloc-realloc-dealloc name mismatch
         Name: atomlist isa
         Size:              -120. Bytes
         Node:     0
         Subsequent mismatches will not be reported
>> End of run:   1-FEB-2024  21:09:02
Job completed
