Siesta Version  : v4.1.5-1-g384057250
Architecture    : gcc
Compiler version: GNU Fortran (Ubuntu 11.3.0-1ubuntu1~22.04) 11.3.0
Compiler flags  : mpifort -O2 -fPIC -ftree-vectorize -fallow-argument-mismatch
PP flags        : -DFC_HAVE_ABORT -DMPI -DSIESTA__FLOOK -DSIESTA__METIS -DSIESTA__MUMPS -DCDF -DNCDF -DNCDF_4 -DNCDF_PARALLEL -DSIESTA__MRRR -DSIESTA__ELPA
Libraries       : libncdf.a libfdict.a  -lflookall -ldl -lnetcdff -lnetcdf -lhdf5_hl -lhdf5 -lhdf5_fortran -lz -lscalapack-openmpi -lopenblas -lmetis -lzmumps -lcmumps -ldmumps -lmumps_common -lpord -lsmumps -lesmumps -lscotch -lscotcherr -fopenmp -lelpa
PARALLEL version
NetCDF support
NetCDF-4 support
NetCDF-4 MPI-IO support
METIS ordering support
Lua support

* Running on 4 nodes in parallel
>> Start of run:  22-MAY-2023  19:01:35

                           ***********************       
                           *  WELCOME TO SIESTA  *       
                           ***********************       

reinit: Reading from standard input
reinit: Dumped input in INPUT_TMP.19998
************************** Dump of input data file ****************************
SystemLabel      GC
NumberOfAtoms    29
NumberOfSpecies  4
%block ChemicalSpeciesLabel
    1    8  O
    2    7  N
    3   14  Si
    4    1  H
%endblock ChemicalSpeciesLabel
# Single point calculation
MD.TypeOfRun                CG
MD.Steps                    0
SCF.MustConverge            F # In case it does not. There can be 2 very close atoms
AtomicCoordinatesFormat NotScaledCartesianAng
%block AtomicCoordinatesAndAtomicSpecies
0.854927710    3.902811360    0.000000000       1
-3.151486600   0.823854130    0.000000000       2
1.928518680    1.174000900    0.000000000       2
0.979899500    -1.830275890   0.000000000       2
-2.159258930   -2.028004800   0.000000000       2
3.785319770    -1.112700660   0.000000000       2
-1.345933810   0.976250250    0.000000000       3
-0.599439880   -1.096077170   0.000000000       3
0.453182890    2.350510230    0.000000000       3
2.133302030    -0.576510800   0.000000000       3
-3.516065660   -0.842056510   0.000000000       3
2.824527830    1.754723110    0.000000000       4
-4.877551690   -1.469214660   0.000000000       4
3.994952020    -2.143204000   0.000000000       4
4.620903610    -0.483666060   0.000000000       4
-2.279085180   -3.081514090   0.000000000       4
6.692082963    6.365560343    -0.000000000      3
8.561042453    7.625203973    -0.000000000      3
8.102110073    3.623822123    -0.000000000      3
10.169702793   6.130413343    -0.000000000      3
6.751612913    4.680607883    -0.000000000      2
5.062083763    6.995620573    -0.000000000      2
9.745998943    4.414912533    -0.000000000      2
8.841406153    9.095426493    -0.000000000      4
11.665114173   6.349265883    -0.000000000      4
4.817624773    8.014086523    -0.000000000      4
4.235342583    6.338772443    -0.000000000      4
8.161385833    2.041380093    -0.000000000      1
10.517654533   3.687945173    -0.000000000      4
%endblock AtomicCoordinatesAndAtomicSpecies
%include ../../../Defaults.fdf
************************** End of input data file *****************************

reinit: -----------------------------------------------------------------------
reinit: System Name: 
reinit: -----------------------------------------------------------------------
reinit: System Label: GC
reinit: -----------------------------------------------------------------------

initatom: Reading input for the pseudopotentials and atomic orbitals ----------
Species number:   1 Atomic number:    8 Label: O
Species number:   2 Atomic number:    7 Label: N
Species number:   3 Atomic number:   14 Label: Si
Species number:   4 Atomic number:    1 Label: H

Ground state valence configuration:   2s02  2p04
Reading pseudopotential information in formatted form from O.psf

Pseudopotential generated from a relativistic atomic calculation

Valence configuration for pseudopotential generation:
2s( 2.00) rc: 0.45
2p( 4.00) rc: 0.92
3d( 0.00) rc: 2.24
4f( 0.00) rc: 0.25
Ground state valence configuration:   2s02  2p03
Reading pseudopotential information in formatted form from N.psf

Pseudopotential generated from a relativistic atomic calculation

Valence configuration for pseudopotential generation:
2s( 2.00) rc: 0.94
2p( 3.00) rc: 0.59
3d( 0.00) rc: 3.46
4f( 0.00) rc: 2.47
Ground state valence configuration:   3s02  3p02
Reading pseudopotential information in formatted form from Si.psf

Pseudopotential generated from a relativistic atomic calculation

Valence configuration for pseudopotential generation:
3s( 2.00) rc: 1.67
3p( 2.00) rc: 2.04
3d( 0.00) rc: 2.89
4f( 0.00) rc: 2.49
Ground state valence configuration:   1s01
Reading pseudopotential information in formatted form from H.psf

Pseudopotential generated from a relativistic atomic calculation

Valence configuration for pseudopotential generation:
1s( 1.00) rc: 0.01
2p( 0.00) rc: 0.60
3d( 0.00) rc: 1.99
4f( 0.00) rc: 2.49
For O, standard SIESTA heuristics set lmxkb to 3
 (one more than the basis l, including polarization orbitals).
Use PS.lmax or PS.KBprojectors blocks to override.
For N, standard SIESTA heuristics set lmxkb to 3
 (one more than the basis l, including polarization orbitals).
Use PS.lmax or PS.KBprojectors blocks to override.
For Si, standard SIESTA heuristics set lmxkb to 3
 (one more than the basis l, including polarization orbitals).
Use PS.lmax or PS.KBprojectors blocks to override.
For H, standard SIESTA heuristics set lmxkb to 2
 (one more than the basis l, including polarization orbitals).
Use PS.lmax or PS.KBprojectors blocks to override.

<basis_specs>
===============================================================================
O                    Z=   8    Mass=  16.000        Charge= 0.17977+309
Lmxo=1 Lmxkb= 3    BasisType=split      Semic=F
L=0  Nsemic=0  Cnfigmx=2
          i=1  nzeta=2  polorb=0  (2s)
            splnorm:   0.28000    
               vcte:    0.0000    
               rinn:    0.0000    
               qcoe:    0.0000    
               qyuk:    0.0000    
               qwid:   0.10000E-01
                rcs:    0.0000      0.0000    
            lambdas:    1.0000      1.0000    
L=1  Nsemic=0  Cnfigmx=2
          i=1  nzeta=2  polorb=1  (2p)
            splnorm:   0.28000    
               vcte:    0.0000    
               rinn:    0.0000    
               qcoe:    0.0000    
               qyuk:    0.0000    
               qwid:   0.10000E-01
                rcs:    0.0000      0.0000    
            lambdas:    1.0000      1.0000    
-------------------------------------------------------------------------------
L=0  Nkbl=1  erefs: 0.17977+309
L=1  Nkbl=1  erefs: 0.17977+309
L=2  Nkbl=1  erefs: 0.17977+309
L=3  Nkbl=1  erefs: 0.17977+309
===============================================================================
</basis_specs>

atom: Called for O                     (Z =   8)

read_vps: Pseudopotential generation method:
read_vps: ATM4.2.7  Troullier-Martins                       
Valence charge for ps generation:    6.00000

xc_check: Exchange-correlation functional:
xc_check: GGA Perdew, Burke & Ernzerhof 1996
V l=0 = -2*Zval/r beyond r=  1.1000
V l=1 = -2*Zval/r beyond r=  1.1000
V l=2 = -2*Zval/r beyond r=  2.2154
V l=3 = -2*Zval/r beyond r=  1.1000
All V_l potentials equal beyond r=  2.2154
This should be close to max(r_c) in ps generation
All pots = -2*Zval/r beyond r=  2.2154

VLOCAL1: 99.0% of the norm of Vloc inside      8.845 Ry
VLOCAL1: 99.9% of the norm of Vloc inside     20.157 Ry
atom: Maximum radius for 4*pi*r*r*local-pseudopot. charge    2.67231
atom: Maximum radius for r*vlocal+2*Zval:    2.32897
GHOST: No ghost state for L =  0
GHOST: No ghost state for L =  1
GHOST: No ghost state for L =  2
GHOST: No ghost state for L =  3

KBgen: Kleinman-Bylander projectors: 
   l= 0   rc=  2.243238   el= -1.759686   Ekb=**********   kbcos= -0.171774
   l= 1   rc=  2.328968   el= -0.663873   Ekb=-14.506792   kbcos= -0.519897
   l= 2   rc=  2.573941   el=  0.002031   Ekb= -1.137373   kbcos= -0.019581
   l= 3   rc=  2.606321   el=  0.003153   Ekb= -1.013546   kbcos= -0.003122

KBgen: Total number of Kleinman-Bylander projectors:   16
atom: -------------------------------------------------------------------------

atom: SANKEY-TYPE ORBITALS:
atom: Selected multiple-zeta basis: split     

SPLIT: Orbitals with angular momentum L= 0

SPLIT: Basis orbitals for state 2s

SPLIT: PAO cut-off radius determined from an
SPLIT: energy shift=  0.002000 Ry

   izeta = 1
                 lambda =    1.000000
                     rc =    4.243912
                 energy =   -1.758270
                kinetic =    3.286084
    potential(screened) =   -5.044353
       potential(ionic) =  -12.921184

   izeta = 2
                 rmatch =    2.187845
              splitnorm =    0.280000
                 energy =   -0.885018
                kinetic =    8.134434
    potential(screened) =   -9.019452
       potential(ionic) =  -17.710645

SPLIT: Orbitals with angular momentum L= 1

SPLIT: Basis orbitals for state 2p

SPLIT: PAO cut-off radius determined from an
SPLIT: energy shift=  0.002000 Ry

   izeta = 1
                 lambda =    1.000000
                     rc =    5.314825
                 energy =   -0.661986
                kinetic =    4.917472
    potential(screened) =   -5.579458
       potential(ionic) =  -13.236259

   izeta = 2
                 rmatch =    2.160663
              splitnorm =    0.280000
                 energy =   -0.068760
                kinetic =    9.183374
    potential(screened) =   -9.252135
       potential(ionic) =  -18.274251

POLgen: Perturbative polarization orbital with L=  2

POLgen: Polarization orbital for state 2p

   izeta = 1
                     rc =    5.314825
                 energy =    1.970580
                kinetic =    3.886128
    potential(screened) =   -1.915547
       potential(ionic) =   -7.749584
atom: Total number of Sankey-type orbitals: 13

atm_pop: Valence configuration (for local Pseudopot. screening):
 2s( 2.00)                                                            
 2p( 4.00)                                                            
Vna: chval, zval:    6.00000   6.00000

Vna:  Cut-off radius for the neutral-atom potential:   5.314825

atom: _________________________________________________________________________

<basis_specs>
===============================================================================
N                    Z=   7    Mass=  14.010        Charge= 0.17977+309
Lmxo=1 Lmxkb= 3    BasisType=split      Semic=F
L=0  Nsemic=0  Cnfigmx=2
          i=1  nzeta=2  polorb=0  (2s)
            splnorm:   0.28000    
               vcte:    0.0000    
               rinn:    0.0000    
               qcoe:    0.0000    
               qyuk:    0.0000    
               qwid:   0.10000E-01
                rcs:    0.0000      0.0000    
            lambdas:    1.0000      1.0000    
L=1  Nsemic=0  Cnfigmx=2
          i=1  nzeta=2  polorb=1  (2p)
            splnorm:   0.28000    
               vcte:    0.0000    
               rinn:    0.0000    
               qcoe:    0.0000    
               qyuk:    0.0000    
               qwid:   0.10000E-01
                rcs:    0.0000      0.0000    
            lambdas:    1.0000      1.0000    
-------------------------------------------------------------------------------
L=0  Nkbl=1  erefs: 0.17977+309
L=1  Nkbl=1  erefs: 0.17977+309
L=2  Nkbl=1  erefs: 0.17977+309
L=3  Nkbl=1  erefs: 0.17977+309
===============================================================================
</basis_specs>

atom: Called for N                     (Z =   7)

read_vps: Pseudopotential generation method:
read_vps: ATM4.2.7  Troullier-Martins                       
Valence charge for ps generation:    5.00000

xc_check: Exchange-correlation functional:
xc_check: GGA Perdew, Burke & Ernzerhof 1996
V l=0 = -2*Zval/r beyond r=  1.2889
V l=1 = -2*Zval/r beyond r=  1.2889
V l=2 = -2*Zval/r beyond r=  3.4178
V l=3 = -2*Zval/r beyond r=  2.4084
All V_l potentials equal beyond r=  3.3753
This should be close to max(r_c) in ps generation
All pots = -2*Zval/r beyond r=  3.4178

VLOCAL1: 99.0% of the norm of Vloc inside      3.810 Ry
VLOCAL1: 99.9% of the norm of Vloc inside      8.683 Ry
atom: Maximum radius for 4*pi*r*r*local-pseudopot. charge    4.02088
atom: Maximum radius for r*vlocal+2*Zval:    3.54838
GHOST: No ghost state for L =  0
GHOST: No ghost state for L =  1
GHOST: No ghost state for L =  2
GHOST: No ghost state for L =  3

KBgen: Kleinman-Bylander projectors: 
   l= 0   rc=  3.417763   el= -1.365098   Ekb= -4.433130   kbcos= -0.707855
   l= 1   rc=  3.375302   el= -0.521201   Ekb=-13.264039   kbcos= -0.535594
   l= 2   rc=  3.872880   el=  0.001991   Ekb= -0.641094   kbcos= -0.062456
   l= 3   rc=  3.970931   el=  0.003093   Ekb= -0.474517   kbcos= -0.018236

KBgen: Total number of Kleinman-Bylander projectors:   16
atom: -------------------------------------------------------------------------

atom: SANKEY-TYPE ORBITALS:
atom: Selected multiple-zeta basis: split     

SPLIT: Orbitals with angular momentum L= 0

SPLIT: Basis orbitals for state 2s

SPLIT: PAO cut-off radius determined from an
SPLIT: energy shift=  0.002000 Ry

   izeta = 1
                 lambda =    1.000000
                     rc =    4.730425
                 energy =   -1.363399
                kinetic =    1.245246
    potential(screened) =   -2.608645
       potential(ionic) =   -8.121105

   izeta = 2
                 rmatch =    2.531849
              splitnorm =    0.280000
                 energy =   -0.959908
                kinetic =    2.409435
    potential(screened) =   -3.369343
       potential(ionic) =   -9.427975

SPLIT: Orbitals with angular momentum L= 1

SPLIT: Basis orbitals for state 2p

SPLIT: PAO cut-off radius determined from an
SPLIT: energy shift=  0.002000 Ry

   izeta = 1
                 lambda =    1.000000
                     rc =    5.924108
                 energy =   -0.519262
                kinetic =    3.672940
    potential(screened) =   -4.192202
       potential(ionic) =   -9.518354

   izeta = 2
                 rmatch =    2.531849
              splitnorm =    0.280000
                 energy =   -0.104258
                kinetic =    6.807538
    potential(screened) =   -6.911796
       potential(ionic) =  -13.149920

POLgen: Perturbative polarization orbital with L=  2

POLgen: Polarization orbital for state 2p

   izeta = 1
                     rc =    5.924108
                 energy =    1.427508
                kinetic =    2.872379
    potential(screened) =   -1.444871
       potential(ionic) =   -5.563644
atom: Total number of Sankey-type orbitals: 13

atm_pop: Valence configuration (for local Pseudopot. screening):
 2s( 2.00)                                                            
 2p( 3.00)                                                            
Vna: chval, zval:    5.00000   5.00000

Vna:  Cut-off radius for the neutral-atom potential:   5.924108

atom: _________________________________________________________________________

<basis_specs>
===============================================================================
Si                   Z=  14    Mass=  28.090        Charge= 0.17977+309
Lmxo=1 Lmxkb= 3    BasisType=split      Semic=F
L=0  Nsemic=0  Cnfigmx=3
          i=1  nzeta=2  polorb=0  (3s)
            splnorm:   0.28000    
               vcte:    0.0000    
               rinn:    0.0000    
               qcoe:    0.0000    
               qyuk:    0.0000    
               qwid:   0.10000E-01
                rcs:    0.0000      0.0000    
            lambdas:    1.0000      1.0000    
L=1  Nsemic=0  Cnfigmx=3
          i=1  nzeta=2  polorb=1  (3p)
            splnorm:   0.28000    
               vcte:    0.0000    
               rinn:    0.0000    
               qcoe:    0.0000    
               qyuk:    0.0000    
               qwid:   0.10000E-01
                rcs:    0.0000      0.0000    
            lambdas:    1.0000      1.0000    
-------------------------------------------------------------------------------
L=0  Nkbl=1  erefs: 0.17977+309
L=1  Nkbl=1  erefs: 0.17977+309
L=2  Nkbl=1  erefs: 0.17977+309
L=3  Nkbl=1  erefs: 0.17977+309
===============================================================================
</basis_specs>

atom: Called for Si                    (Z =  14)

read_vps: Pseudopotential generation method:
read_vps: ATM4.2.7  Troullier-Martins                       
Valence charge for ps generation:    4.00000

xc_check: Exchange-correlation functional:
xc_check: GGA Perdew, Burke & Ernzerhof 1996
V l=0 = -2*Zval/r beyond r=  2.7826
V l=1 = -2*Zval/r beyond r=  2.7826
V l=2 = -2*Zval/r beyond r=  2.9253
V l=3 = -2*Zval/r beyond r=  2.7826
All V_l potentials equal beyond r=  2.8530
This should be close to max(r_c) in ps generation
All pots = -2*Zval/r beyond r=  2.9253

VLOCAL1: 99.0% of the norm of Vloc inside      5.333 Ry
VLOCAL1: 99.9% of the norm of Vloc inside     12.154 Ry
atom: Maximum radius for 4*pi*r*r*local-pseudopot. charge    3.39869
atom: Maximum radius for r*vlocal+2*Zval:    2.96205
GHOST: No ghost state for L =  0
GHOST: No ghost state for L =  1
GHOST: No ghost state for L =  2
GHOST: No ghost state for L =  3

KBgen: Kleinman-Bylander projectors: 
   l= 0   rc=  3.075247   el= -0.794092   Ekb=  5.879390   kbcos=  0.167461
   l= 1   rc=  3.153101   el= -0.300068   Ekb=  2.642817   kbcos=  0.058301
   l= 2   rc=  3.273594   el=  0.001958   Ekb= -1.185135   kbcos= -0.104411
   l= 3   rc=  3.232927   el=  0.003046   Ekb= -0.497174   kbcos= -0.015889

KBgen: Total number of Kleinman-Bylander projectors:   16
atom: -------------------------------------------------------------------------

atom: SANKEY-TYPE ORBITALS:
atom: Selected multiple-zeta basis: split     

SPLIT: Orbitals with angular momentum L= 0

SPLIT: Basis orbitals for state 3s

SPLIT: PAO cut-off radius determined from an
SPLIT: energy shift=  0.002000 Ry

   izeta = 1
                 lambda =    1.000000
                     rc =    6.429618
                 energy =   -0.792283
                kinetic =    0.525293
    potential(screened) =   -1.317576
       potential(ionic) =   -3.744923

   izeta = 2
                 rmatch =    3.998416
              splitnorm =    0.280000
                 energy =   -0.583081
                kinetic =    1.069570
    potential(screened) =   -1.652651
       potential(ionic) =   -4.235185

SPLIT: Orbitals with angular momentum L= 1

SPLIT: Basis orbitals for state 3p

SPLIT: PAO cut-off radius determined from an
SPLIT: energy shift=  0.002000 Ry

   izeta = 1
                 lambda =    1.000000
                     rc =    8.464845
                 energy =   -0.298236
                kinetic =    0.785360
    potential(screened) =   -1.083596
       potential(ionic) =   -3.273779

   izeta = 2
                 rmatch =    4.587816
              splitnorm =    0.280000
                 energy =   -0.131871
                kinetic =    1.403687
    potential(screened) =   -1.535557
       potential(ionic) =   -4.015310

POLgen: Perturbative polarization orbital with L=  2

POLgen: Polarization orbital for state 3p

   izeta = 1
                     rc =    8.464845
                 energy =    0.321949
                kinetic =    1.055677
    potential(screened) =   -0.733728
       potential(ionic) =   -2.672950
atom: Total number of Sankey-type orbitals: 13

atm_pop: Valence configuration (for local Pseudopot. screening):
 3s( 2.00)                                                            
 3p( 2.00)                                                            
Vna: chval, zval:    4.00000   4.00000

Vna:  Cut-off radius for the neutral-atom potential:   8.464845

atom: _________________________________________________________________________

<basis_specs>
===============================================================================
H                    Z=   1    Mass=  1.0100        Charge= 0.17977+309
Lmxo=0 Lmxkb= 2    BasisType=split      Semic=F
L=0  Nsemic=0  Cnfigmx=1
          i=1  nzeta=2  polorb=1  (1s)
            splnorm:   0.62000    
               vcte:    0.0000    
               rinn:    0.0000    
               qcoe:    0.0000    
               qyuk:    0.0000    
               qwid:   0.10000E-01
                rcs:    0.0000      0.0000    
            lambdas:    1.0000      1.0000    
-------------------------------------------------------------------------------
L=0  Nkbl=1  erefs: 0.17977+309
L=1  Nkbl=1  erefs: 0.17977+309
L=2  Nkbl=1  erefs: 0.17977+309
===============================================================================
</basis_specs>

atom: Called for H                     (Z =   1)

read_vps: Pseudopotential generation method:
read_vps: ATM4.2.7  Troullier-Martins                       
Valence charge for ps generation:    1.00000

xc_check: Exchange-correlation functional:
xc_check: GGA Perdew, Burke & Ernzerhof 1996
V l=0 = -2*Zval/r beyond r=  0.0098
V l=1 = -2*Zval/r beyond r=  0.5817
V l=2 = -2*Zval/r beyond r=  1.9372
All V_l potentials equal beyond r=  1.9372
This should be close to max(r_c) in ps generation
All pots = -2*Zval/r beyond r=  1.9372

VLOCAL1: 99.0% of the norm of Vloc inside     11.567 Ry
VLOCAL1: 99.9% of the norm of Vloc inside     26.362 Ry
atom: Maximum radius for 4*pi*r*r*local-pseudopot. charge    2.25106
atom: Maximum radius for r*vlocal+2*Zval:    1.91306
GHOST: No ghost state for L =  0
GHOST: No ghost state for L =  1
GHOST: No ghost state for L =  2

KBgen: Kleinman-Bylander projectors: 
   l= 0   rc=  2.036604   el= -0.477180   Ekb= -6.081590   kbcos= -0.277285
   l= 1   rc=  2.195416   el=  0.001076   Ekb= -0.926943   kbcos= -0.034643
   l= 2   rc=  2.251056   el=  0.002010   Ekb= -0.130941   kbcos= -0.009788

KBgen: Total number of Kleinman-Bylander projectors:    9
atom: -------------------------------------------------------------------------

atom: SANKEY-TYPE ORBITALS:
atom: Selected multiple-zeta basis: split     

SPLIT: Orbitals with angular momentum L= 0

SPLIT: Basis orbitals for state 1s

SPLIT: PAO cut-off radius determined from an
SPLIT: energy shift=  0.002000 Ry

   izeta = 1
                 lambda =    1.000000
                     rc =    6.518340
                 energy =   -0.475305
                kinetic =    0.912139
    potential(screened) =   -1.387444
       potential(ionic) =   -1.907295

   izeta = 2
                 rmatch =    2.141150
              splitnorm =    0.620000
                 energy =    0.566467
                kinetic =    3.772856
    potential(screened) =   -3.206389
       potential(ionic) =   -3.759093

POLgen: Perturbative polarization orbital with L=  1

POLgen: Polarization orbital for state 1s

   izeta = 1
                     rc =    6.518340
                 energy =    0.533861
                kinetic =    1.121086
    potential(screened) =   -0.587225
       potential(ionic) =   -1.053027
atom: Total number of Sankey-type orbitals:  5

atm_pop: Valence configuration (for local Pseudopot. screening):
 1s( 1.00)                                                            
Vna: chval, zval:    1.00000   1.00000

Vna:  Cut-off radius for the neutral-atom potential:   6.518340

atom: _________________________________________________________________________

prinput: Basis input ----------------------------------------------------------

PAO.BasisType split     

%block ChemicalSpeciesLabel
    1    8 O                       # Species index, atomic number, species label
    2    7 N                       # Species index, atomic number, species label
    3   14 Si                      # Species index, atomic number, species label
    4    1 H                       # Species index, atomic number, species label
%endblock ChemicalSpeciesLabel

%block PAO.Basis                 # Define Basis set
O                     2                    # Species label, number of l-shells
 n=2   0   2                         # n, l, Nzeta 
   4.244      2.188   
   1.000      1.000   
 n=2   1   2 P   1                   # n, l, Nzeta, Polarization, NzetaPol
   5.315      2.161   
   1.000      1.000   
N                     2                    # Species label, number of l-shells
 n=2   0   2                         # n, l, Nzeta 
   4.730      2.532   
   1.000      1.000   
 n=2   1   2 P   1                   # n, l, Nzeta, Polarization, NzetaPol
   5.924      2.532   
   1.000      1.000   
Si                    2                    # Species label, number of l-shells
 n=3   0   2                         # n, l, Nzeta 
   6.430      3.998   
   1.000      1.000   
 n=3   1   2 P   1                   # n, l, Nzeta, Polarization, NzetaPol
   8.465      4.588   
   1.000      1.000   
H                     1                    # Species label, number of l-shells
 n=1   0   2 P   1                   # n, l, Nzeta, Polarization, NzetaPol
   6.518      2.141   
   1.000      1.000   
%endblock PAO.Basis

prinput: ----------------------------------------------------------------------

Dumping basis to NetCDF file O.ion.nc
Dumping basis to NetCDF file N.ion.nc
Dumping basis to NetCDF file Si.ion.nc
Dumping basis to NetCDF file H.ion.nc
coor:   Atomic-coordinates input format  =     Cartesian coordinates
coor:                                          (in Angstroms)

siesta: Atomic coordinates (Bohr) and species
siesta:      1.61558   7.37525   0.00000  1        1
siesta:     -5.95545   1.55686   0.00000  2        2
siesta:      3.64437   2.21854   0.00000  2        3
siesta:      1.85174  -3.45872   0.00000  2        4
siesta:     -4.08041  -3.83238   0.00000  2        5
siesta:      7.15322  -2.10270   0.00000  2        6
siesta:     -2.54345   1.84485   0.00000  3        7
siesta:     -1.13278  -2.07129   0.00000  3        8
siesta:      0.85639   4.44182   0.00000  3        9
siesta:      4.03136  -1.08945   0.00000  3       10
siesta:     -6.64440  -1.59126   0.00000  3       11
siesta:      5.33759   3.31595   0.00000  4       12
siesta:     -9.21724  -2.77641   0.00000  4       13
siesta:      7.54937  -4.05007   0.00000  4       14
siesta:      8.73225  -0.91400   0.00000  4       15
siesta:     -4.30685  -5.82322   0.00000  4       16
siesta:     12.64621  12.02917  -0.00000  3       17
siesta:     16.17803  14.40955  -0.00000  3       18
siesta:     15.31078   6.84803  -0.00000  3       19
siesta:     19.21796  11.58481  -0.00000  3       20
siesta:     12.75870   8.84507  -0.00000  2       21
siesta:      9.56596  13.21981  -0.00000  2       22
siesta:     18.41728   8.34298  -0.00000  2       23
siesta:     16.70784  17.18787  -0.00000  4       24
siesta:     22.04388  11.99838  -0.00000  4       25
siesta:      9.10400  15.14443  -0.00000  4       26
siesta:      8.00364  11.97855  -0.00000  4       27
siesta:     15.42279   3.85765  -0.00000  1       28
siesta:     19.87549   6.96921  -0.00000  4       29

siesta: Automatic unit cell vectors (Ang):
siesta:   25.785515    0.000000    0.000000
siesta:    0.000000   20.983217    0.000000
siesta:    0.000000    0.000000    9.854683

siesta: System type = molecule  

initatomlists: Number of atoms, orbitals, and projectors:     29   297   394

siesta: ******************** Simulation parameters ****************************
siesta:
siesta: The following are some of the parameters of the simulation.
siesta: A complete list of the parameters used, including default values,
siesta: can be found in file out.fdf
siesta:
redata: Spin configuration                          = spin-orbit
redata: Number of spin components                   = 8
redata: Time-Reversal Symmetry                      = F
redata: Spin spiral                                 = F
############################################################
This spin-orbit implementation uses a local approximation.
From 4.2 and onwards the full non-local approximation is implemented
You are strongly advised to use >=4.2 versions!
############################################################
redata: Long output                                 =   F
redata: Number of Atomic Species                    =        4
redata: Charge density info will appear in .RHO file
redata: Write Mulliken Pop.                         = Atomic and Orbital charges
redata: Matel table size (NRTAB)                    =     1024
redata: Mesh Cutoff                                 =   340.0000 Ry
redata: Net charge of the system                    =     0.0000 |e|
redata: Min. number of SCF Iter                     =        1
redata: Max. number of SCF Iter                     =      200
redata: SCF mix quantity                            = Hamiltonian
redata: Mix DM or H after convergence               =   F
redata: Recompute H after scf cycle                 =   F
redata: Mix DM in first SCF step                    =   T
redata: Write Pulay info on disk                    =   F
redata: New DM Occupancy tolerance                  = 0.000000000001
redata: No kicks to SCF
redata: DM Mixing Weight for Kicks                  =     0.5000
redata: Require Harris convergence for SCF          =   F
redata: Harris energy tolerance for SCF             =     0.000100 eV
redata: Require DM convergence for SCF              =   T
redata: DM tolerance for SCF                        =     0.000008
redata: Require EDM convergence for SCF             =   F
redata: EDM tolerance for SCF                       =     0.001000 eV
redata: Require H convergence for SCF               =   T
redata: Hamiltonian tolerance for SCF               =     0.000001 eV
redata: Require (free) Energy convergence for SCF   =   F
redata: (free) Energy tolerance for SCF             =     0.000100 eV
redata: Using Saved Data (generic)                  =   F
redata: Use continuation files for DM               =   F
redata: Neglect nonoverlap interactions             =   F
redata: Method of Calculation                       = Diagonalization
redata: Electronic Temperature                      =   299.9978 K
redata: Fix the spin of the system                  =   F
redata: Dynamics option                             = Single-point calculation
mix.SCF: Pulay mixing                            = Pulay
mix.SCF:    Variant                              = stable
mix.SCF:    History steps                        = 6
mix.SCF:    Linear mixing weight                 =     0.250000
mix.SCF:    Mixing weight                        =     0.250000
mix.SCF:    SVD condition                        = 0.1000E-07
mix.SCF:    Restart steps                        = 24
mix.SCF:    Restart save steps                   = 3
mix.SCF: Spin-component mixing                   all
redata: Save all siesta data in one NC              =   F
redata: ***********************************************************************

%block SCF.Mixers
  Pulay
%endblock SCF.Mixers

%block SCF.Mixer.Pulay
  # Mixing method
  method pulay
  variant stable

  # Mixing options
  weight 0.2500
  weight.linear 0.2500
  history 6
  restart 24
  restart.save 3
%endblock SCF.Mixer.Pulay

DM_history_depth set to one: no extrapolation allowed by default for geometry relaxation
Size of DM history Fstack: 1
Total number of electrons:    98.000000
Total ionic charge:    98.000000

* ProcessorY, Blocksize:    2  24


* Orbital distribution balance (max,min):    81    72


Time-reversal symmetry not used.

siesta: k-grid: Number of k-points =     1
siesta: k-grid: Cutoff (effective) =     4.927 Ang
siesta: k-grid: Supercell and displacements
siesta: k-grid:    1   0   0      0.000
siesta: k-grid:    0   1   0      0.000
siesta: k-grid:    0   0   1      0.000

diag: Algorithm                                     = ELPA-1stage
diag: Parallel over k                               =   F
diag: Use parallel 2D distribution                  =   T
diag: Parallel block-size                           = 24
diag: Parallel distribution                         =     2 x     2
diag: Used triangular part                          = Lower
diag: Absolute tolerance                            =  0.100E-15
diag: Orthogonalization factor                      =  0.100E-05
diag: Memory factor                                 =  1.0000


ts: **************************************************************
ts: Save H and S matrices                           =    F
ts: Save DM and EDM matrices                        =    F
ts: Only save the overlap matrix S                  =    F
ts: **************************************************************

************************ Begin: TS CHECKS AND WARNINGS ************************
************************ End: TS CHECKS AND WARNINGS **************************


                     ====================================
                        Single-point calculation
                     ====================================

outcoor: Atomic coordinates (Ang):                          
    0.85492771    3.90281136    0.00000000   1       1  O
   -3.15148660    0.82385413    0.00000000   2       2  N
    1.92851868    1.17400090    0.00000000   2       3  N
    0.97989950   -1.83027589    0.00000000   2       4  N
   -2.15925893   -2.02800480    0.00000000   2       5  N
    3.78531977   -1.11270066    0.00000000   2       6  N
   -1.34593381    0.97625025    0.00000000   3       7  Si
   -0.59943988   -1.09607717    0.00000000   3       8  Si
    0.45318289    2.35051023    0.00000000   3       9  Si
    2.13330203   -0.57651080    0.00000000   3      10  Si
   -3.51606566   -0.84205651    0.00000000   3      11  Si
    2.82452783    1.75472311    0.00000000   4      12  H
   -4.87755169   -1.46921466    0.00000000   4      13  H
    3.99495202   -2.14320400    0.00000000   4      14  H
    4.62090361   -0.48366606    0.00000000   4      15  H
   -2.27908518   -3.08151409    0.00000000   4      16  H
    6.69208296    6.36556034    0.00000000   3      17  Si
    8.56104245    7.62520397    0.00000000   3      18  Si
    8.10211007    3.62382212    0.00000000   3      19  Si
   10.16970279    6.13041334    0.00000000   3      20  Si
    6.75161291    4.68060788    0.00000000   2      21  N
    5.06208376    6.99562057    0.00000000   2      22  N
    9.74599894    4.41491253    0.00000000   2      23  N
    8.84140615    9.09542649    0.00000000   4      24  H
   11.66511417    6.34926588    0.00000000   4      25  H
    4.81762477    8.01408652    0.00000000   4      26  H
    4.23534258    6.33877244    0.00000000   4      27  H
    8.16138583    2.04138009    0.00000000   1      28  O
   10.51765453    3.68794517    0.00000000   4      29  H

outcell: Unit cell vectors (Ang):
       25.785515    0.000000    0.000000
        0.000000   20.983217    0.000000
        0.000000    0.000000    9.854683

outcell: Cell vector modules (Ang)   :   25.785515   20.983217    9.854683
outcell: Cell angles (23,13,12) (deg):     90.0000     90.0000     90.0000
outcell: Cell volume (Ang**3)        :   5332.0052
<dSpData1D:S at geom step 0
  <sparsity:sparsity for geom step 0
    nrows_g=297 nrows=81 sparsity=.1634 nnzs=14411, refcount: 8>
  <dData1D:(new from dSpData1D) n=14411, refcount: 1>
refcount: 1>
new_DM -- step:     1
Initializing Density Matrix...
DM filled with atomic data:
<dSpData2D:DM initialized from atoms
  <sparsity:sparsity for geom step 0
    nrows_g=297 nrows=81 sparsity=.1634 nnzs=14411, refcount: 9>
  <dData2D:DM n=14411 m=8, refcount: 1>
refcount: 1>
     spin moment: S , {S} =   56.00000   0.00000   0.00000  56.00000
No. of atoms with KB's overlaping orbs in proc 0. Max # of overlaps:      29     142

Initializing spin-orbit part of the Hamiltonian
  Adding spin-orbit effects for O 
  Adding spin-orbit effects for N 
  Adding spin-orbit effects for Si
  Adding spin-orbit effects for H 


New grid distribution:   1
           1       1:  144    1:   60    1:   30
           2       1:  144    1:   60   31:   60
           3       1:  144   61:  120    1:   30
           4       1:  144   61:  120   31:   60

InitMesh: MESH =   288 x   240 x   120 =     8294400
InitMesh: (bp) =   144 x   120 x    60 =     1036800
InitMesh: Mesh cutoff (required, used) =   340.000   344.774 Ry
ExtMesh (bp) on 0 =   248 x   164 x   142 =     5775424
New grid distribution:   2
           1      46:  144    1:   34    1:   60
           2       1:   45    1:   33    1:   60
           3      46:  144   35:  120    1:   60
           4       1:   45   34:  120    1:   60
New grid distribution:   3
           1      50:  144    1:   38    1:   60
           2       1:   49    1:   39    1:   60
           3      50:  144   39:  120    1:   60
           4       1:   49   40:  120    1:   60
Setting up quadratic distribution...
ExtMesh (bp) on 0 =   203 x   138 x   172 =     4818408
PhiOnMesh: Number of (b)points on node 0 =               201960
PhiOnMesh: nlist on node 0 =              2499126

stepf: Fermi-Dirac step function

siesta: Program's energy decomposition (eV):
siesta: Ebs     =      -616.786028
siesta: Eions   =      3585.165840
siesta: Ena     =       384.948747
siesta: Ekin    =      3377.046981
siesta: Enl     =     -3308.766372
siesta: Eso     =        -0.003377
siesta: Edftu   =         0.000000
siesta: DEna    =       154.861784
siesta: DUscf   =        82.271550
siesta: DUext   =         0.000000
siesta: Exc     =     -1205.483480
siesta: eta*DQ  =         0.000000
siesta: Emadel  =         0.000000
siesta: Emeta   =         0.000000
siesta: Emolmec =         0.000000
siesta: Ekinion =         0.000000
siesta: Eharris =     -4020.294692
siesta: Etot    =     -4100.290007
siesta: FreeEng =     -4100.291522

        iscf     Eharris(eV)        E_KS(eV)     FreeEng(eV)     dDmax    Ef(eV) dHmax(eV)
   scf:    1    -4020.294692    -4100.290007    -4100.291522  0.965162 -4.889035 21.594663
     spin moment: S , {S} =    2.00785   0.00000   0.00000   2.00785
timer: Routine,Calls,Time,% = IterSCF        1      12.367  17.28
   scf:    2    -4148.452566    -4136.399020    -4136.403620  0.458558 -4.228664 11.624902
     spin moment: S , {S} =    1.96537  -0.00000  -0.00000   1.96537
   scf:    3    -4108.867872    -4133.897504    -4133.921074  0.431075 -4.347681 11.693407
     spin moment: S , {S} =    2.10001   0.00000  -0.00000   2.10001
   scf:    4    -4149.785019    -4145.148127    -4145.148128  0.299651 -3.936647  5.946041
     spin moment: S , {S} =    0.00010   0.00000  -0.00000   0.00010
   scf:    5    -4146.451045    -4145.911298    -4145.911298  0.039037 -3.742836  4.097244
     spin moment: S , {S} =    0.00006  -0.00000   0.00000   0.00006
   scf:    6    -4146.651355    -4146.288879    -4146.288879  0.023562 -3.532484  2.105272
     spin moment: S , {S} =    0.00003   0.00000  -0.00000   0.00003
   scf:    7    -4146.652662    -4146.468461    -4146.468461  0.022464 -3.716443  0.881605
     spin moment: S , {S} =    0.00001  -0.00000   0.00000   0.00001
   scf:    8    -4146.583493    -4146.524270    -4146.524270  0.012125 -3.643698  0.504540
     spin moment: S , {S} =    0.00000  -0.00000  -0.00000   0.00000
   scf:    9    -4146.565395    -4146.544076    -4146.544076  0.007053 -3.778468  0.352661
     spin moment: S , {S} =    0.00000   0.00000   0.00000   0.00000
   scf:   10    -4146.594697    -4146.563741    -4146.563741  0.020448 -3.813450  0.220815
     spin moment: S , {S} =    0.00000  -0.00000  -0.00000  -0.00000
   scf:   11    -4146.567221    -4146.565417    -4146.565417  0.005968 -3.797803  0.057728
     spin moment: S , {S} =    0.00000   0.00000  -0.00000  -0.00000
   scf:   12    -4146.566409    -4146.565927    -4146.565927  0.001124 -3.797895  0.024480
     spin moment: S , {S} =    0.00000   0.00000   0.00000   0.00000
   scf:   13    -4146.566338    -4146.566128    -4146.566128  0.001403 -3.793998  0.015940
     spin moment: S , {S} =    0.00000   0.00000   0.00000   0.00000
   scf:   14    -4146.566373    -4146.566244    -4146.566244  0.001232 -3.791824  0.013066
     spin moment: S , {S} =    0.00000   0.00000  -0.00000   0.00000
   scf:   15    -4146.566363    -4146.566299    -4146.566299  0.001076 -3.791829  0.009825
     spin moment: S , {S} =    0.00000  -0.00000  -0.00000   0.00000
   scf:   16    -4146.566385    -4146.566336    -4146.566336  0.001135 -3.792058  0.006591
     spin moment: S , {S} =    0.00000  -0.00000  -0.00000   0.00000
   scf:   17    -4146.566364    -4146.566348    -4146.566348  0.000631 -3.792050  0.004676
     spin moment: S , {S} =    0.00000  -0.00000  -0.00000   0.00000
   scf:   18    -4146.566361    -4146.566354    -4146.566354  0.000441 -3.792038  0.002714
     spin moment: S , {S} =    0.00000  -0.00000  -0.00000   0.00000
   scf:   19    -4146.566359    -4146.566356    -4146.566356  0.000299 -3.792057  0.001613
     spin moment: S , {S} =    0.00000   0.00000  -0.00000   0.00000
   scf:   20    -4146.566358    -4146.566357    -4146.566357  0.000172 -3.792067  0.000972
     spin moment: S , {S} =    0.00000   0.00000  -0.00000   0.00000
   scf:   21    -4146.566358    -4146.566357    -4146.566357  0.000167 -3.792084  0.000391
     spin moment: S , {S} =    0.00000   0.00000  -0.00000   0.00000
   scf:   22    -4146.566358    -4146.566358    -4146.566358  0.000081 -3.792095  0.000223
     spin moment: S , {S} =    0.00000  -0.00000  -0.00000   0.00000
   scf:   23    -4146.566358    -4146.566358    -4146.566358  0.000019 -3.792101  0.000170
     spin moment: S , {S} =    0.00000   0.00000  -0.00000   0.00000
   scf:   24    -4146.566358    -4146.566358    -4146.566358  0.000007 -3.792103  0.000095
     spin moment: S , {S} =    0.00000   0.00000  -0.00000   0.00000
mix: Pulay -- resetting history
   scf:   25    -4146.566358    -4146.566358    -4146.566358  0.000005 -3.792101  0.000058
     spin moment: S , {S} =    0.00000   0.00000  -0.00000   0.00000
   scf:   26    -4146.566358    -4146.566358    -4146.566358  0.000007 -3.792098  0.000034
     spin moment: S , {S} =    0.00000   0.00000  -0.00000   0.00000
   scf:   27    -4146.566358    -4146.566358    -4146.566358  0.000002 -3.792097  0.000030
     spin moment: S , {S} =    0.00000   0.00000  -0.00000   0.00000
   scf:   28    -4146.566358    -4146.566358    -4146.566358  0.000004 -3.792095  0.000016
     spin moment: S , {S} =    0.00000   0.00000  -0.00000   0.00000
   scf:   29    -4146.566358    -4146.566358    -4146.566358  0.000001 -3.792095  0.000010
     spin moment: S , {S} =    0.00000   0.00000  -0.00000   0.00000
   scf:   30    -4146.566358    -4146.566358    -4146.566358  0.000001 -3.792095  0.000004
     spin moment: S , {S} =    0.00000  -0.00000  -0.00000   0.00000
   scf:   31    -4146.566358    -4146.566358    -4146.566358  0.000001 -3.792095  0.000002
     spin moment: S , {S} =    0.00000  -0.00000  -0.00000   0.00000
   scf:   32    -4146.566358    -4146.566358    -4146.566358  0.000000 -3.792095  0.000001
     spin moment: S , {S} =    0.00000   0.00000  -0.00000   0.00000
   scf:   33    -4146.566358    -4146.566358    -4146.566358  0.000000 -3.792095  0.000001
     spin moment: S , {S} =    0.00000   0.00000  -0.00000   0.00000

SCF Convergence by DM+H criterion
max |DM_out - DM_in|         :     0.0000001043
max |H_out - H_in|      (eV) :     0.0000005094
SCF cycle converged after 33 iterations

Using DM_out to compute the final energy and forces
No. of atoms with KB's overlaping orbs in proc 0. Max # of overlaps:      29     142

siesta: E_KS(eV) =            -4146.5664

siesta: E_KS - E_eggbox =     -4146.5664
     spin moment: S , {S} =    0.00000   0.00000  -0.00000   0.00000

siesta: Atomic forces (eV/Ang):
     1    1.290584    3.345427   -0.000000
     2   -0.017506   -0.012043    0.000000
     3   -0.095285    0.054466    0.000000
     4   -0.126288    0.012174    0.000000
     5   -0.018043   -0.031964   -0.000000
     6   -0.098271    0.002847   -0.000000
     7   -0.007626    0.008770   -0.000000
     8    0.063426    0.016177    0.000000
     9    0.091544   -0.062686    0.000000
    10    0.206564    0.020238   -0.000000
    11   -0.026596    0.029176   -0.000000
    12   -0.082979   -0.064833   -0.000000
    13    0.028536    0.071848   -0.000000
    14    0.027227    0.016277    0.000000
    15    0.238466    0.120502    0.000000
    16    0.048779    0.173610    0.000000
    17   -0.146323    0.058002    0.000000
    18    0.021484   -0.019333   -0.000000
    19    0.001099    0.117040    0.000000
    20   -0.017943    0.028512    0.000000
    21    0.058174   -0.109482   -0.000000
    22    0.118032   -0.012240   -0.000000
    23   -0.014318   -0.041079   -0.000000
    24    0.058967    0.086295    0.000000
    25   -0.129762    0.040190   -0.000000
    26   -0.010404    0.193813    0.000000
    27    0.004616    0.001205    0.000000
    28   -3.254604   -2.754274   -0.000000
    29    0.054416    0.012948    0.000000
----------------------------------------
   Tot   -1.734034    1.301583   -0.000000
----------------------------------------
   Max    3.345427
   Res    0.600774    sqrt( Sum f_i^2 / 3N )
----------------------------------------
   Max    3.345427    constrained

Stress tensor Voigt[x,y,z,yz,xz,xy] (kbar):        0.39        0.22       -0.08       -0.00       -0.00        0.44
(Free)E + p*V (eV/cell)    -4147.1571
Target enthalpy (eV/cell)    -4146.5664

mulliken: Atomic and Orbital Populations:

Species: O                   

Atom      Orb        Charge      Spin       Svec
----------------------------------------------------------------
    1  1 2s         1.74898   0.00000     -0.000   0.000   0.000
    1  2 2s         0.06245   0.00000      0.000  -0.000   0.000
    1  3 2py        1.43304   0.00000      0.000   0.000   0.000
    1  4 2pz        1.54454   0.00000     -0.000   0.000   0.000
    1  5 2px        1.61807   0.00000      0.000  -0.000  -0.000
    1  6 2py        0.03932   0.00000     -0.000   0.000   0.000
    1  7 2pz       -0.00461   0.00000      0.000  -0.000   0.000
    1  8 2px        0.00784   0.00000     -0.000   0.000   0.000
    1  9 3Pdxy      0.00740   0.00000      0.000   0.000   0.000
    1 10 3Pdyz      0.00940   0.00000      0.000   0.000  -0.000
    1 11 3Pdz2      0.00170   0.00000     -0.000  -0.000   0.000
    1 12 3Pdxz      0.00042   0.00000     -0.000   0.000  -0.000
    1 13 3Pdx2-y2   0.00714   0.00000     -0.000   0.000  -0.000
    1     Total     6.47571   0.00000     -0.000   0.000   0.000

   28  1 2s         1.73415   0.00000      0.000   0.000   0.000
   28  2 2s         0.07176   0.00000     -0.000  -0.000   0.000
   28  3 2py        1.42444   0.00000     -0.000   0.000   0.000
   28  4 2pz        1.53982   0.00000     -0.000  -0.000   0.000
   28  5 2px        1.63359   0.00000     -0.000   0.000   0.000
   28  6 2py        0.04363   0.00000     -0.000  -0.000   0.000
   28  7 2pz       -0.00187   0.00000     -0.000  -0.000   0.000
   28  8 2px        0.01374   0.00000      0.000  -0.000   0.000
   28  9 3Pdxy      0.00703   0.00000      0.000  -0.000  -0.000
   28 10 3Pdyz      0.01030   0.00000     -0.000   0.000  -0.000
   28 11 3Pdz2      0.00128   0.00000      0.000  -0.000  -0.000
   28 12 3Pdxz     -0.00017   0.00000     -0.000  -0.000  -0.000
   28 13 3Pdx2-y2   0.00778   0.00000      0.000   0.000   0.000
   28     Total     6.48549   0.00000     -0.000  -0.000   0.000

----------------------------------------------------------------
Total              12.96120   0.00000     -0.000  -0.000   0.000


Species: N                   

Atom      Orb        Charge      Spin       Svec
----------------------------------------------------------------
    2  1 2s         1.54969   0.00000     -0.000  -0.000   0.000
    2  2 2s         0.08436   0.00000      0.000   0.000   0.000
    2  3 2py        1.03188   0.00000      0.000   0.000  -0.000
    2  4 2pz        1.22390   0.00000     -0.000  -0.000   0.000
    2  5 2px        1.00551   0.00000      0.000  -0.000  -0.000
    2  6 2py        0.19274   0.00000      0.000  -0.000   0.000
    2  7 2pz        0.05459   0.00000      0.000   0.000   0.000
    2  8 2px        0.19076   0.00000     -0.000  -0.000   0.000
    2  9 3Pdxy      0.00842   0.00000      0.000   0.000   0.000
    2 10 3Pdyz      0.01082   0.00000      0.000   0.000  -0.000
    2 11 3Pdz2      0.00196   0.00000      0.000  -0.000   0.000
    2 12 3Pdxz      0.00754   0.00000     -0.000  -0.000   0.000
    2 13 3Pdx2-y2   0.00892   0.00000     -0.000   0.000   0.000
    2     Total     5.37108   0.00000     -0.000  -0.000   0.000

    3  1 2s         1.40684   0.00000     -0.000  -0.000  -0.000
    3  2 2s         0.11458   0.00000      0.000   0.000   0.000
    3  3 2py        0.94015   0.00000      0.000  -0.000  -0.000
    3  4 2pz        1.53861   0.00000     -0.000   0.000  -0.000
    3  5 2px        1.09842   0.00000     -0.000   0.000  -0.000
    3  6 2py        0.24806   0.00000     -0.000   0.000   0.000
    3  7 2pz        0.00861   0.00000      0.000  -0.000   0.000
    3  8 2px        0.16879   0.00000      0.000  -0.000   0.000
    3  9 3Pdxy      0.00426   0.00000      0.000  -0.000   0.000
    3 10 3Pdyz      0.00414   0.00000     -0.000   0.000  -0.000
    3 11 3Pdz2      0.00082   0.00000      0.000  -0.000   0.000
    3 12 3Pdxz      0.00265   0.00000     -0.000  -0.000  -0.000
    3 13 3Pdx2-y2   0.00303   0.00000      0.000   0.000  -0.000
    3     Total     5.53895   0.00000     -0.000   0.000  -0.000

    4  1 2s         1.46864   0.00000     -0.000   0.000  -0.000
    4  2 2s         0.11679   0.00000      0.000  -0.000   0.000
    4  3 2py        1.10479   0.00000      0.000   0.000   0.000
    4  4 2pz        1.29271   0.00000      0.000   0.000   0.000
    4  5 2px        0.84186   0.00000     -0.000   0.000   0.000
    4  6 2py        0.15575   0.00000     -0.000   0.000   0.000
    4  7 2pz        0.05363   0.00000     -0.000  -0.000   0.000
    4  8 2px        0.28653   0.00000      0.000  -0.000   0.000
    4  9 3Pdxy      0.00855   0.00000     -0.000  -0.000  -0.000
    4 10 3Pdyz      0.01079   0.00000      0.000  -0.000  -0.000
    4 11 3Pdz2      0.00132   0.00000     -0.000  -0.000  -0.000
    4 12 3Pdxz      0.00493   0.00000     -0.000  -0.000  -0.000
    4 13 3Pdx2-y2   0.00851   0.00000     -0.000  -0.000  -0.000
    4     Total     5.35481   0.00000      0.000   0.000   0.000

    5  1 2s         1.37371   0.00000     -0.000   0.000  -0.000
    5  2 2s         0.12887   0.00000      0.000  -0.000  -0.000
    5  3 2py        1.02744   0.00000      0.000  -0.000  -0.000
    5  4 2pz        1.50097   0.00000      0.000  -0.000  -0.000
    5  5 2px        1.05906   0.00000     -0.000  -0.000  -0.000
    5  6 2py        0.20312   0.00000     -0.000   0.000   0.000
    5  7 2pz        0.01351   0.00000      0.000   0.000  -0.000
    5  8 2px        0.20243   0.00000      0.000   0.000   0.000
    5  9 3Pdxy      0.00369   0.00000      0.000   0.000  -0.000
    5 10 3Pdyz      0.00249   0.00000      0.000   0.000  -0.000
    5 11 3Pdz2      0.00137   0.00000     -0.000   0.000   0.000
    5 12 3Pdxz      0.00685   0.00000      0.000   0.000  -0.000
    5 13 3Pdx2-y2   0.00572   0.00000     -0.000  -0.000   0.000
    5     Total     5.52923   0.00000     -0.000  -0.000  -0.000

    6  1 2s         1.26688   0.00000     -0.000   0.000  -0.000
    6  2 2s         0.17998   0.00000      0.000  -0.000   0.000
    6  3 2py        1.08209   0.00000      0.000  -0.000  -0.000
    6  4 2pz        1.57484   0.00000      0.000  -0.000  -0.000
    6  5 2px        0.97278   0.00000     -0.000  -0.000  -0.000
    6  6 2py        0.18688   0.00000     -0.000   0.000   0.000
    6  7 2pz        0.02933   0.00000      0.000   0.000   0.000
    6  8 2px        0.25243   0.00000      0.000  -0.000   0.000
    6  9 3Pdxy      0.00260   0.00000      0.000   0.000   0.000
    6 10 3Pdyz      0.00012   0.00000     -0.000  -0.000  -0.000
    6 11 3Pdz2      0.00165   0.00000      0.000  -0.000   0.000
    6 12 3Pdxz      0.00290   0.00000     -0.000   0.000  -0.000
    6 13 3Pdx2-y2   0.00304   0.00000     -0.000  -0.000  -0.000
    6     Total     5.55552   0.00000      0.000  -0.000  -0.000

   21  1 2s         1.41058   0.00000      0.000   0.000  -0.000
   21  2 2s         0.13273   0.00000     -0.000  -0.000   0.000
   21  3 2py        0.87190   0.00000     -0.000   0.000  -0.000
   21  4 2pz        1.29451   0.00000     -0.000   0.000   0.000
   21  5 2px        1.15655   0.00000      0.000   0.000  -0.000
   21  6 2py        0.28075   0.00000      0.000  -0.000   0.000
   21  7 2pz        0.04997   0.00000      0.000   0.000   0.000
   21  8 2px        0.16493   0.00000     -0.000  -0.000   0.000
   21  9 3Pdxy      0.00649   0.00000      0.000  -0.000   0.000
   21 10 3Pdyz      0.00518   0.00000     -0.000  -0.000  -0.000
   21 11 3Pdz2     -0.00004   0.00000      0.000  -0.000   0.000
   21 12 3Pdxz      0.00581   0.00000     -0.000  -0.000  -0.000
   21 13 3Pdx2-y2   0.00557   0.00000     -0.000  -0.000  -0.000
   21     Total     5.38493   0.00000      0.000   0.000  -0.000

   22  1 2s         1.28685   0.00000      0.000   0.000   0.000
   22  2 2s         0.17113   0.00000     -0.000  -0.000  -0.000
   22  3 2py        1.07101   0.00000     -0.000  -0.000  -0.000
   22  4 2pz        1.55806   0.00000     -0.000  -0.000  -0.000
   22  5 2px        1.00394   0.00000      0.000   0.000  -0.000
   22  6 2py        0.19292   0.00000      0.000  -0.000   0.000
   22  7 2pz        0.02783   0.00000      0.000   0.000   0.000
   22  8 2px        0.23232   0.00000     -0.000  -0.000   0.000
   22  9 3Pdxy      0.00351   0.00000     -0.000  -0.000   0.000
   22 10 3Pdyz      0.00013   0.00000     -0.000  -0.000   0.000
   22 11 3Pdz2      0.00257   0.00000     -0.000   0.000   0.000
   22 12 3Pdxz      0.00282   0.00000      0.000  -0.000  -0.000
   22 13 3Pdx2-y2   0.00336   0.00000      0.000   0.000  -0.000
   22     Total     5.55644   0.00000      0.000  -0.000  -0.000

   23  1 2s         1.39798   0.00000     -0.000  -0.000   0.000
   23  2 2s         0.11725   0.00000      0.000   0.000  -0.000
   23  3 2py        0.99627   0.00000      0.000   0.000  -0.000
   23  4 2pz        1.51943   0.00000      0.000   0.000  -0.000
   23  5 2px        1.07523   0.00000     -0.000  -0.000  -0.000
   23  6 2py        0.22129   0.00000     -0.000  -0.000  -0.000
   23  7 2pz        0.00545   0.00000     -0.000  -0.000   0.000
   23  8 2px        0.19217   0.00000      0.000   0.000   0.000
   23  9 3Pdxy      0.00525   0.00000      0.000   0.000   0.000
   23 10 3Pdyz      0.00451   0.00000      0.000   0.000  -0.000
   23 11 3Pdz2      0.00053   0.00000     -0.000  -0.000  -0.000
   23 12 3Pdxz      0.00229   0.00000      0.000  -0.000  -0.000
   23 13 3Pdx2-y2   0.00118   0.00000     -0.000  -0.000  -0.000
   23     Total     5.53883   0.00000      0.000  -0.000  -0.000

----------------------------------------------------------------
Total              56.79100   0.00000      0.000   0.000  -0.000


Species: Si                  

Atom      Orb        Charge      Spin       Svec
----------------------------------------------------------------
    7  1 3s         0.68918   0.00000      0.000  -0.000   0.000
    7  2 3s         0.35764   0.00000     -0.000   0.000   0.000
    7  3 3py        0.47636   0.00000      0.000  -0.000   0.000
    7  4 3pz        0.70133   0.00000      0.000  -0.000   0.000
    7  5 3px        0.13704   0.00000     -0.000  -0.000  -0.000
    7  6 3py        0.27052   0.00000     -0.000   0.000   0.000
    7  7 3pz        0.25762   0.00000     -0.000  -0.000   0.000
    7  8 3px        0.42169   0.00000      0.000   0.000   0.000
    7  9 3Pdxy      0.24269   0.00000     -0.000   0.000   0.000
    7 10 3Pdyz      0.03033   0.00000      0.000   0.000  -0.000
    7 11 3Pdz2      0.01206   0.00000     -0.000   0.000   0.000
    7 12 3Pdxz      0.13846   0.00000      0.000  -0.000   0.000
    7 13 3Pdx2-y2   0.11312   0.00000      0.000   0.000  -0.000
    7     Total     3.84805   0.00000      0.000  -0.000   0.000

    8  1 3s         0.64817   0.00000     -0.000  -0.000   0.000
    8  2 3s         0.37130   0.00000      0.000   0.000  -0.000
    8  3 3py        0.38704   0.00000     -0.000   0.000  -0.000
    8  4 3pz        0.52517   0.00000     -0.000   0.000  -0.000
    8  5 3px       -0.03159   0.00000     -0.000   0.000   0.000
    8  6 3py        0.30459   0.00000      0.000   0.000   0.000
    8  7 3pz        0.20246   0.00000      0.000  -0.000   0.000
    8  8 3px        0.52024   0.00000      0.000  -0.000  -0.000
    8  9 3Pdxy      0.25880   0.00000     -0.000   0.000  -0.000
    8 10 3Pdyz      0.11049   0.00000      0.000   0.000  -0.000
    8 11 3Pdz2      0.01328   0.00000      0.000  -0.000   0.000
    8 12 3Pdxz      0.15597   0.00000      0.000   0.000  -0.000
    8 13 3Pdx2-y2   0.18803   0.00000     -0.000  -0.000  -0.000
    8     Total     3.65396   0.00000     -0.000   0.000  -0.000

    9  1 3s         0.62979   0.00000      0.000  -0.000   0.000
    9  2 3s         0.35550   0.00000     -0.000   0.000  -0.000
    9  3 3py        0.08510   0.00000     -0.000  -0.000  -0.000
    9  4 3pz        0.48345   0.00000     -0.000   0.000  -0.000
    9  5 3px        0.37241   0.00000      0.000   0.000  -0.000
    9  6 3py        0.43910   0.00000      0.000  -0.000  -0.000
    9  7 3pz        0.18407   0.00000     -0.000  -0.000  -0.000
    9  8 3px        0.26728   0.00000     -0.000  -0.000   0.000
    9  9 3Pdxy      0.31379   0.00000     -0.000  -0.000   0.000
    9 10 3Pdyz      0.19206   0.00000     -0.000  -0.000  -0.000
    9 11 3Pdz2      0.01618   0.00000      0.000   0.000  -0.000
    9 12 3Pdxz      0.08828   0.00000      0.000   0.000   0.000
    9 13 3Pdx2-y2   0.15512   0.00000     -0.000   0.000  -0.000
    9     Total     3.58211   0.00000     -0.000  -0.000  -0.000

   10  1 3s         0.48307   0.00000     -0.000   0.000   0.000
   10  2 3s         0.37993   0.00000     -0.000   0.000   0.000
   10  3 3py        0.23915   0.00000      0.000  -0.000   0.000
   10  4 3pz        0.40928   0.00000     -0.000  -0.000   0.000
   10  5 3px        0.10253   0.00000     -0.000   0.000   0.000
   10  6 3py        0.33604   0.00000     -0.000  -0.000   0.000
   10  7 3pz        0.22088   0.00000     -0.000   0.000   0.000
   10  8 3px        0.42253   0.00000      0.000  -0.000  -0.000
   10  9 3Pdxy      0.16303   0.00000     -0.000  -0.000   0.000
   10 10 3Pdyz      0.14885   0.00000     -0.000  -0.000   0.000
   10 11 3Pdz2      0.01130   0.00000      0.000  -0.000  -0.000
   10 12 3Pdxz      0.17000   0.00000     -0.000  -0.000   0.000
   10 13 3Pdx2-y2   0.32141   0.00000      0.000   0.000  -0.000
   10     Total     3.40799   0.00000     -0.000  -0.000   0.000

   11  1 3s         0.55852   0.00000      0.000  -0.000   0.000
   11  2 3s         0.38198   0.00000     -0.000   0.000  -0.000
   11  3 3py        0.30424   0.00000      0.000  -0.000  -0.000
   11  4 3pz        0.54379   0.00000     -0.000  -0.000  -0.000
   11  5 3px        0.13855   0.00000      0.000  -0.000   0.000
   11  6 3py        0.30293   0.00000     -0.000   0.000   0.000
   11  7 3pz        0.17679   0.00000      0.000   0.000  -0.000
   11  8 3px        0.43186   0.00000      0.000   0.000   0.000
   11  9 3Pdxy      0.24376   0.00000      0.000   0.000   0.000
   11 10 3Pdyz      0.12479   0.00000      0.000   0.000  -0.000
   11 11 3Pdz2      0.00939   0.00000     -0.000   0.000   0.000
   11 12 3Pdxz      0.05269   0.00000      0.000   0.000  -0.000
   11 13 3Pdx2-y2   0.18381   0.00000     -0.000   0.000  -0.000
   11     Total     3.45308   0.00000      0.000   0.000  -0.000

   17  1 3s         0.64824   0.00000      0.000  -0.000   0.000
   17  2 3s         0.35810   0.00000     -0.000  -0.000  -0.000
   17  3 3py        0.24967   0.00000     -0.000  -0.000   0.000
   17  4 3pz        0.42633   0.00000     -0.000  -0.000   0.000
   17  5 3px        0.22829   0.00000     -0.000  -0.000  -0.000
   17  6 3py        0.37046   0.00000     -0.000   0.000  -0.000
   17  7 3pz        0.21310   0.00000      0.000   0.000   0.000
   17  8 3px        0.37664   0.00000     -0.000   0.000  -0.000
   17  9 3Pdxy      0.29560   0.00000     -0.000   0.000  -0.000
   17 10 3Pdyz      0.13949   0.00000     -0.000  -0.000   0.000
   17 11 3Pdz2      0.00976   0.00000      0.000   0.000   0.000
   17 12 3Pdxz      0.14764   0.00000      0.000   0.000   0.000
   17 13 3Pdx2-y2   0.16971   0.00000     -0.000  -0.000   0.000
   17     Total     3.63303   0.00000     -0.000  -0.000   0.000

   18  1 3s         0.74640   0.00000     -0.000  -0.000   0.000
   18  2 3s         0.33812   0.00000      0.000   0.000   0.000
   18  3 3py        0.08895   0.00000     -0.000   0.000   0.000
   18  4 3pz        0.83076   0.00000      0.000   0.000   0.000
   18  5 3px        0.54555   0.00000     -0.000  -0.000   0.000
   18  6 3py        0.51358   0.00000      0.000   0.000   0.000
   18  7 3pz        0.19725   0.00000     -0.000  -0.000   0.000
   18  8 3px        0.25213   0.00000      0.000   0.000   0.000
   18  9 3Pdxy      0.10889   0.00000      0.000  -0.000  -0.000
   18 10 3Pdyz      0.02770   0.00000      0.000   0.000  -0.000
   18 11 3Pdz2      0.00939   0.00000     -0.000  -0.000  -0.000
   18 12 3Pdxz      0.02919   0.00000      0.000   0.000  -0.000
   18 13 3Pdx2-y2   0.10653   0.00000     -0.000  -0.000   0.000
   18     Total     3.79444   0.00000     -0.000   0.000   0.000

   19  1 3s         0.45465   0.00000     -0.000   0.000   0.000
   19  2 3s         0.36493   0.00000      0.000  -0.000  -0.000
   19  3 3py        0.08020   0.00000     -0.000  -0.000  -0.000
   19  4 3pz        0.41945   0.00000      0.000   0.000  -0.000
   19  5 3px        0.34923   0.00000     -0.000  -0.000  -0.000
   19  6 3py        0.46981   0.00000      0.000  -0.000  -0.000
   19  7 3pz        0.18679   0.00000     -0.000  -0.000  -0.000
   19  8 3px        0.24187   0.00000      0.000   0.000   0.000
   19  9 3Pdxy      0.34914   0.00000      0.000   0.000  -0.000
   19 10 3Pdyz      0.19018   0.00000     -0.000  -0.000  -0.000
   19 11 3Pdz2      0.01583   0.00000      0.000   0.000  -0.000
   19 12 3Pdxz      0.08483   0.00000      0.000   0.000   0.000
   19 13 3Pdx2-y2   0.22898   0.00000     -0.000  -0.000  -0.000
   19     Total     3.43589   0.00000      0.000   0.000  -0.000

   20  1 3s         0.67313   0.00000     -0.000  -0.000  -0.000
   20  2 3s         0.37985   0.00000      0.000   0.000  -0.000
   20  3 3py        0.33795   0.00000     -0.000   0.000  -0.000
   20  4 3pz        0.58018   0.00000     -0.000  -0.000  -0.000
   20  5 3px        0.13819   0.00000      0.000  -0.000  -0.000
   20  6 3py        0.29033   0.00000      0.000  -0.000   0.000
   20  7 3pz        0.16334   0.00000     -0.000  -0.000  -0.000
   20  8 3px        0.49934   0.00000     -0.000   0.000   0.000
   20  9 3Pdxy      0.10276   0.00000     -0.000   0.000  -0.000
   20 10 3Pdyz      0.13499   0.00000     -0.000  -0.000  -0.000
   20 11 3Pdz2      0.00731   0.00000     -0.000   0.000   0.000
   20 12 3Pdxz      0.02689   0.00000     -0.000  -0.000   0.000
   20 13 3Pdx2-y2   0.17077   0.00000      0.000   0.000  -0.000
   20     Total     3.50503   0.00000     -0.000  -0.000  -0.000

----------------------------------------------------------------
Total              89.10459   0.00000     -0.000  -0.000   0.000


Species: H                   

Atom      Orb        Charge      Spin       Svec
----------------------------------------------------------------
   12  1 1s         0.48941   0.00000      0.000   0.000  -0.000
   12  2 1s         0.18600   0.00000     -0.000  -0.000   0.000
   12  3 2Ppy       0.02870   0.00000     -0.000   0.000  -0.000
   12  4 2Ppz       0.03527   0.00000      0.000  -0.000  -0.000
   12  5 2Ppx       0.02319   0.00000     -0.000   0.000  -0.000
   12     Total     0.76257   0.00000      0.000   0.000  -0.000

   13  1 1s         1.02046   0.00000     -0.000   0.000  -0.000
   13  2 1s         0.09458   0.00000      0.000  -0.000   0.000
   13  3 2Ppy       0.01983   0.00000     -0.000  -0.000  -0.000
   13  4 2Ppz       0.02016   0.00000     -0.000   0.000  -0.000
   13  5 2Ppx       0.03321   0.00000     -0.000   0.000   0.000
   13     Total     1.18824   0.00000     -0.000   0.000  -0.000

   14  1 1s         0.46420   0.00000     -0.000   0.000  -0.000
   14  2 1s         0.19973   0.00000     -0.000  -0.000   0.000
   14  3 2Ppy       0.01832   0.00000     -0.000   0.000  -0.000
   14  4 2Ppz       0.04711   0.00000     -0.000   0.000  -0.000
   14  5 2Ppx       0.01735   0.00000      0.000  -0.000  -0.000
   14     Total     0.74671   0.00000     -0.000   0.000  -0.000

   15  1 1s         0.46347   0.00000     -0.000   0.000  -0.000
   15  2 1s         0.19984   0.00000      0.000  -0.000   0.000
   15  3 2Ppy       0.00515   0.00000      0.000   0.000  -0.000
   15  4 2Ppz       0.04746   0.00000      0.000   0.000  -0.000
   15  5 2Ppx       0.02790   0.00000      0.000  -0.000  -0.000
   15     Total     0.74383   0.00000      0.000   0.000  -0.000

   16  1 1s         0.50787   0.00000     -0.000   0.000  -0.000
   16  2 1s         0.18750   0.00000      0.000  -0.000   0.000
   16  3 2Ppy       0.03004   0.00000     -0.000   0.000  -0.000
   16  4 2Ppz       0.03954   0.00000     -0.000   0.000   0.000
   16  5 2Ppx       0.02321   0.00000     -0.000  -0.000   0.000
   16     Total     0.78816   0.00000     -0.000   0.000  -0.000

   24  1 1s         1.05758   0.00000     -0.000  -0.000  -0.000
   24  2 1s         0.07634   0.00000      0.000   0.000   0.000
   24  3 2Ppy       0.03147   0.00000      0.000  -0.000   0.000
   24  4 2Ppz       0.03136   0.00000      0.000   0.000   0.000
   24  5 2Ppx       0.01752   0.00000      0.000   0.000  -0.000
   24     Total     1.21427   0.00000     -0.000  -0.000  -0.000

   25  1 1s         1.04795   0.00000      0.000   0.000  -0.000
   25  2 1s         0.08396   0.00000     -0.000   0.000  -0.000
   25  3 2Ppy       0.01171   0.00000     -0.000  -0.000  -0.000
   25  4 2Ppz       0.01787   0.00000     -0.000  -0.000  -0.000
   25  5 2Ppx       0.03643   0.00000     -0.000   0.000   0.000
   25     Total     1.19792   0.00000      0.000   0.000  -0.000

   26  1 1s         0.47588   0.00000      0.000  -0.000   0.000
   26  2 1s         0.19887   0.00000     -0.000   0.000   0.000
   26  3 2Ppy       0.01873   0.00000      0.000  -0.000   0.000
   26  4 2Ppz       0.05162   0.00000      0.000  -0.000  -0.000
   26  5 2Ppx       0.01611   0.00000     -0.000  -0.000  -0.000
   26     Total     0.76120   0.00000      0.000  -0.000   0.000

   27  1 1s         0.46314   0.00000      0.000   0.000   0.000
   27  2 1s         0.19724   0.00000     -0.000  -0.000   0.000
   27  3 2Ppy       0.00598   0.00000     -0.000  -0.000  -0.000
   27  4 2Ppz       0.04278   0.00000     -0.000   0.000   0.000
   27  5 2Ppx       0.02879   0.00000      0.000   0.000  -0.000
   27     Total     0.73793   0.00000      0.000   0.000   0.000

   29  1 1s         0.48306   0.00000     -0.000   0.000  -0.000
   29  2 1s         0.18835   0.00000      0.000   0.000   0.000
   29  3 2Ppy       0.02519   0.00000      0.000  -0.000  -0.000
   29  4 2Ppz       0.03418   0.00000     -0.000  -0.000  -0.000
   29  5 2Ppx       0.02381   0.00000      0.000  -0.000  -0.000
   29     Total     0.75459   0.00000     -0.000  -0.000  -0.000

----------------------------------------------------------------
Total              98.00000   0.00000      0.000  -0.000   0.000


siesta: Eigenvalues (eV):
ik =     1
  -22.0401  -22.0401  -21.8725  -21.8725  -21.6619  -21.6619  -21.4641  -21.4641  -21.3000  -21.3000
  -21.0815  -21.0815  -20.7740  -20.7740  -19.8315  -19.8315  -19.4915  -19.4915  -19.3689  -19.3689
  -14.7170  -14.7170  -13.8795  -13.8795  -13.2935  -13.2935  -13.1568  -13.1568  -13.0816  -13.0816
  -12.7861  -12.7861  -12.7572  -12.7572  -12.4368  -12.4368  -12.3361  -12.3361  -11.9515  -11.9515
  -11.3906  -11.3906  -10.7732  -10.7732  -10.7247  -10.7247  -10.6450  -10.6450  -10.0798  -10.0798
   -9.5670   -9.5670   -9.1645   -9.1645   -8.9649   -8.9649   -8.7530   -8.7530   -8.6242   -8.6242
   -8.5910   -8.5910   -8.4060   -8.4060   -8.1761   -8.1761   -7.7723   -7.7723   -7.7363   -7.7363
   -7.6846   -7.6846   -7.4281   -7.4281   -7.2427   -7.2427   -6.7930   -6.7930   -6.7870   -6.7870
   -6.5505   -6.5505   -6.5425   -6.5425   -6.2647   -6.2647   -6.1837   -6.1837   -6.1763   -6.1763
   -5.9514   -5.9514   -5.8942   -5.8942   -5.4534   -5.4534   -4.3707   -4.3707   -3.2125   -3.2125
   -2.3925   -2.3925   -2.2924   -2.2924   -2.2475   -2.2475   -1.9668   -1.9668   -1.8670   -1.8670
   -1.8389   -1.8389   -1.7678   -1.7678   -1.5896   -1.5896   -1.4689   -1.4689   -1.2414   -1.2414
   -0.9616   -0.9616   -0.7708   -0.7708   -0.4536   -0.4536   -0.1959   -0.1959    0.2961    0.2961
    0.3337    0.3337    0.3519    0.3519    0.6626    0.6626    0.7530    0.7530    0.8655    0.8655
    1.1888    1.1888    1.3249    1.3249    1.4017    1.4017    1.4541    1.4541    1.5381    1.5381
    1.7335    1.7335    1.9222    1.9222    2.2584    2.2584    2.4590    2.4590    2.6427    2.6427
    2.7040    2.7040    2.9591    2.9591    3.0418    3.0418    3.1643    3.1643    3.3228    3.3228
    3.4022    3.4022    3.7605    3.7605    3.9174    3.9174    4.1380    4.1380    4.3506    4.3506
    4.4691    4.4691    4.5125    4.5125    4.5737    4.5737    4.7425    4.7425    4.7893    4.7893
    4.8435    4.8435    5.1672    5.1672    5.2427    5.2427    5.5580    5.5580    5.6077    5.6077
    5.6153    5.6153    5.7724    5.7724    5.9522    5.9522    6.0097    6.0097    6.1462    6.1462
    6.2317    6.2317    6.3318    6.3318    6.5904    6.5904    6.6218    6.6218    6.8536    6.8536
    7.1369    7.1369    7.1690    7.1690    7.2726    7.2726    7.5266    7.5266    7.7384    7.7384
    7.8320    7.8320    8.0367    8.0367    8.1131    8.1131    8.2078    8.2078    8.2900    8.2900
    8.5887    8.5887    8.6969    8.6969    8.7253    8.7253    8.9434    8.9434    9.1741    9.1741
    9.2055    9.2055    9.2944    9.2944    9.7069    9.7069    9.7536    9.7536    9.7747    9.7747
    9.8224    9.8224   10.1809   10.1809   10.3508   10.3508   10.8175   10.8175   10.8904   10.8904
   10.9661   10.9661   11.0214   11.0214   11.1739   11.1739   11.7732   11.7732   11.9873   11.9873
   12.0276   12.0276   12.0304   12.0304   12.1177   12.1177   12.3488   12.3488   12.4458   12.4458
   12.7747   12.7747   12.8247   12.8247   13.4064   13.4064   13.5893   13.5893   13.7606   13.7606
   13.9171   13.9171   14.0324   14.0324   14.1055   14.1055   14.1810   14.1810   14.6791   14.6791
   15.0192   15.0192   15.5270   15.5270   15.8314   15.8314   16.1864   16.1864   16.7593   16.7593
   16.9306   16.9306   17.3595   17.3595   18.0872   18.0872   18.2525   18.2525   18.3871   18.3871
   18.4885   18.4885   19.2471   19.2471   19.4904   19.4904   20.1287   20.1287   20.2109   20.2109
   20.9937   20.9937   21.1903   21.1903   21.8145   21.8145   22.3439   22.3439   22.5676   22.5676
   23.0111   23.0111   23.1692   23.1692   23.5887   23.5887   23.8066   23.8066   23.9505   23.9505
   24.7604   24.7604   24.8211   24.8211   26.2285   26.2285   26.9187   26.9187   28.7339   28.7339
   28.9020   28.9020   29.0352   29.0352   29.4805   29.4805   29.9325   29.9325   30.0314   30.0314
   30.2995   30.2995   30.4474   30.4474   30.6438   30.6438   30.9020   30.9020   30.9846   30.9846
   31.2010   31.2010   31.3302   31.3302   31.5575   31.5575   31.7861   31.7861   32.3254   32.3254
   32.9514   32.9514   34.1671   34.1671   34.2696   34.2696   34.5357   34.5357   34.7936   34.7936
   35.0618   35.0618   35.1793   35.1793   35.3018   35.3018   35.4609   35.4609   35.9239   35.9239
   36.6111   36.6111   36.9132   36.9132   37.2942   37.2942   37.4097   37.4097   37.7599   37.7599
   38.0327   38.0327   38.3246   38.3246   39.2045   39.2045   39.3895   39.3895   39.9841   39.9841
   40.0993   40.0993   40.7323   40.7323   40.7713   40.7713   40.8602   40.8602   41.2435   41.2435
   41.3903   41.3903   41.5700   41.5700   42.6107   42.6107   42.9281   42.9281   43.2631   43.2631
   43.3177   43.3177   43.7195   43.7195   43.9565   43.9565   44.0264   44.0264   44.1279   44.1279
   44.6965   44.6965   44.7145   44.7145   44.9170   44.9170   45.4064   45.4064   46.2214   46.2214
   46.5894   46.5894   46.8491   46.8491   47.3967   47.3967   49.0331   49.0331   49.2247   49.2247
   49.5179   49.5179   50.4202   50.4202   50.9850   50.9850   51.0256   51.0256   51.1349   51.1349
   51.3292   51.3292   51.7517   51.7517   52.4991   52.4991   53.0368   53.0368   54.5115   54.5115
   54.9061   54.9061   55.1071   55.1071   55.2618   55.2618   55.7489   55.7489   55.9531   55.9531
   55.9622   55.9622   56.6919   56.6919   56.7390   56.7390   58.2186   58.2186   58.7763   58.7763
   59.3734   59.3734   60.2554   60.2554   60.3396   60.3396   61.0971   61.0971   61.4941   61.4941
   61.9770   61.9770   62.2244   62.2244   62.2872   62.2872   64.3361   64.3361   66.3572   66.3572
   67.2202   67.2202   67.3253   67.3253   68.7913   68.7913   68.9476   68.9476   70.6867   70.6867
   73.4985   73.4985   80.9125   80.9125   90.1685   90.1685   91.7049   91.7049   93.4313   93.4313
   98.3262   98.3262   99.4454   99.4454  100.4374  100.4374  103.3519  103.3519  103.5919  103.5919
  110.4932  110.4932  111.4250  111.4250  123.8679  123.8679  126.2164  126.2164  130.9509  130.9509
  139.9075  139.9075  141.2955  141.2955
siesta: Fermi energy =      -3.792095 eV

siesta: Program's energy decomposition (eV):
siesta: Ebs     =     -1135.946783
siesta: Eions   =      3585.165840
siesta: Ena     =       384.948747
siesta: Ekin    =      2907.504529
siesta: Enl     =     -2794.989186
siesta: Eso     =        -0.004255
siesta: Edftu   =         0.000000
siesta: DEna    =        47.488019
siesta: DUscf   =        14.331735
siesta: DUext   =         0.000000
siesta: Exc     =     -1120.680107
siesta: eta*DQ  =         0.000000
siesta: Emadel  =         0.000000
siesta: Emeta   =         0.000000
siesta: Emolmec =         0.000000
siesta: Ekinion =         0.000000
siesta: Eharris =     -4146.566358
siesta: Etot    =     -4146.566358
siesta: FreeEng =     -4146.566358

siesta: Final energy (eV):
siesta:  Band Struct. =   -1135.946783
siesta:       Kinetic =    2907.504529
siesta:       Hartree =    8293.456069
siesta:       Edftu   =       0.000000
siesta:       Eso     =      -0.004255
siesta:    Ext. field =       0.000000
siesta:   Exch.-corr. =   -1120.680107
siesta:  Ion-electron =  -19175.580690
siesta:       Ion-ion =    4948.738096
siesta:       Ekinion =       0.000000
siesta:         Total =   -4146.566358
siesta:         Fermi =      -3.792095

siesta: Atomic forces (eV/Ang):
siesta:      1    1.290584    3.345427   -0.000000
siesta:      2   -0.017506   -0.012043    0.000000
siesta:      3   -0.095285    0.054466    0.000000
siesta:      4   -0.126288    0.012174    0.000000
siesta:      5   -0.018043   -0.031964   -0.000000
siesta:      6   -0.098271    0.002847   -0.000000
siesta:      7   -0.007626    0.008770   -0.000000
siesta:      8    0.063426    0.016177    0.000000
siesta:      9    0.091544   -0.062686    0.000000
siesta:     10    0.206564    0.020238   -0.000000
siesta:     11   -0.026596    0.029176   -0.000000
siesta:     12   -0.082979   -0.064833   -0.000000
siesta:     13    0.028536    0.071848   -0.000000
siesta:     14    0.027227    0.016277    0.000000
siesta:     15    0.238466    0.120502    0.000000
siesta:     16    0.048779    0.173610    0.000000
siesta:     17   -0.146323    0.058002    0.000000
siesta:     18    0.021484   -0.019333   -0.000000
siesta:     19    0.001099    0.117040    0.000000
siesta:     20   -0.017943    0.028512    0.000000
siesta:     21    0.058174   -0.109482   -0.000000
siesta:     22    0.118032   -0.012240   -0.000000
siesta:     23   -0.014318   -0.041079   -0.000000
siesta:     24    0.058967    0.086295    0.000000
siesta:     25   -0.129762    0.040190   -0.000000
siesta:     26   -0.010404    0.193813    0.000000
siesta:     27    0.004616    0.001205    0.000000
siesta:     28   -3.254604   -2.754274   -0.000000
siesta:     29    0.054416    0.012948    0.000000
siesta: ----------------------------------------
siesta:    Tot   -1.734034    1.301583   -0.000000

siesta: Stress tensor (static) (eV/Ang**3):
siesta:     0.000240    0.000272   -0.000000
siesta:     0.000272    0.000140   -0.000000
siesta:    -0.000000   -0.000000   -0.000048

siesta: Cell volume =       5332.005221 Ang**3

siesta: Pressure (static):
siesta:                Solid            Molecule  Units
siesta:          -0.00000121          0.00000763  Ry/Bohr**3
siesta:          -0.00011079          0.00070084  eV/Ang**3
siesta:          -0.17750873          1.12287452  kBar
(Free)E+ p_basis*V_orbitals  =       -4126.715940
(Free)Eharris+ p_basis*V_orbitals  =       -4126.715940
     spin moment: S , {S} =    0.00000   0.00000  -0.00000   0.00000

siesta: Electric dipole (a.u.)  =    1.425475    0.018877    0.000000
siesta: Electric dipole (Debye) =    3.623197    0.047980    0.000000

cite: Please see "GC.bib" for an exhaustive BiBTeX file.
cite: Please clearly indicate Siesta version in published work: v4.1.5-1-g384057250
cite: This calculation has made use of the following articles
cite: which are encouraged to be cited in a published work.
        Primary SIESTA paper
          DOI: www.doi.org/10.1088/0953-8984/14/11/302
        Spin-orbit coupling (on-site approximation)
          DOI: www.doi.org/10.1088/0953-8984/19/19/489001


WARNING: alloc-realloc-dealloc name mismatch
         Name: atomlist isa
         Size:              -116. Bytes
         Node:     0
         Subsequent mismatches will not be reported
>> End of run:  22-MAY-2023  19:06:30
Job completed
