Siesta Version  : v4.1.5-1-g384057250
Architecture    : unknown
Compiler version: GNU Fortran (Debian 6.3.0-18+deb9u1) 6.3.0 20170516
Compiler flags  : mpifort -O2 -fPIC -ftree-vectorize
PP flags        : -DFC_HAVE_ABORT -DMPI -DSIESTA__FLOOK -DSIESTA__METIS -DSIESTA__MUMPS -DCDF -DNCDF -DNCDF_4 -DNCDF_PARALLEL -DSIESTA__TIME -DSIESTA__ELPA -DSIESTA__DIAG_2STAGE
Libraries       : libncdf.a libfdict.a libsiestaLAPACK.a libsiestaBLAS.a -lscalapack-openmpi -lz -lflookall -ldl -lmetis -lzmumps -lcmumps -ldmumps -lmumps_common -lpord -lsmumps -lesmumps -lscotch -lscotcherr -fopenmp -lnetcdff -lnetcdf -lhdf5_hl -lhdf5 -lhdf5_fortran -lelpa -llapack -lblas -lblacs-openmpi
PARALLEL version
NetCDF support
NetCDF-4 support
NetCDF-4 MPI-IO support
METIS ordering support
Lua support

* Running on 32 nodes in parallel
>> Start of run:  19-FEB-2022  20:43:08

                           ***********************       
                           *  WELCOME TO SIESTA  *       
                           ***********************       

reinit: Reading from standard input
reinit: Dumped input in INPUT_TMP.08757
************************** Dump of input data file ****************************
# Created by GDIS version 0.90.0
#
SystemLabel      T
NumberOfAtoms    15
NumberOfSpecies  4
%block ChemicalSpeciesLabel
    1    1  H
    2    7  N
    3   14  Si
    4    8  O
%endblock ChemicalSpeciesLabel
AtomicCoordinatesFormat NotScaledCartesianAng
%block AtomicCoordinatesAndAtomicSpecies
    1.79173585    5.60323035   -0.00000000   1       1  H
    0.97119750    4.93506455   -0.00000000   2       2  N
   -0.67958080    5.62639246    0.00000000   3       3  Si
   -0.51240826    7.11820847   -0.00000000   1       4  H
   -2.50802121    4.53686304    0.00000000   3       5  Si
   -4.32543081    5.42319196   -0.00000000   3       6  Si
   -4.61021074    4.89459658   -1.40102070   1       7  H
   -5.46526313    5.07192868    0.85952966   1       8  H
   -4.18347597    6.93859610   -0.08656521   1       9  H
   -1.83428341    2.41646264    0.00000000   3      10  Si
   -2.81413830    1.15961498    0.00000000   4      11  O
   -0.00350333    2.18358804    0.00000000   2      12  N
    0.25612040    1.15588184    0.00000000   1      13  H
    1.45563846    3.20596350    0.00000000   3      14  Si
    2.98474761    2.75898924   -0.00000000   4      15  O
%endblock AtomicCoordinatesAndAtomicSpecies
%include ../defaults.fdf
************************** End of input data file *****************************

reinit: -----------------------------------------------------------------------
reinit: System Name: 
reinit: -----------------------------------------------------------------------
reinit: System Label: T
reinit: -----------------------------------------------------------------------

initatom: Reading input for the pseudopotentials and atomic orbitals ----------
Species number:   1 Atomic number:    1 Label: H
Species number:   2 Atomic number:    7 Label: N
Species number:   3 Atomic number:   14 Label: Si
Species number:   4 Atomic number:    8 Label: O

Ground state valence configuration:   1s01
Reading pseudopotential information in formatted form from H.psf

Pseudopotential generated from a relativistic atomic calculation

Valence configuration for pseudopotential generation:
1s( 1.00) rc: 0.01
2p( 0.00) rc: 0.60
3d( 0.00) rc: 1.99
4f( 0.00) rc: 2.49
Ground state valence configuration:   2s02  2p03
Reading pseudopotential information in formatted form from N.psf

Pseudopotential generated from a relativistic atomic calculation

Valence configuration for pseudopotential generation:
2s( 2.00) rc: 0.94
2p( 3.00) rc: 0.59
3d( 0.00) rc: 3.46
4f( 0.00) rc: 2.47
Ground state valence configuration:   3s02  3p02
Reading pseudopotential information in formatted form from Si.psf

Pseudopotential generated from a relativistic atomic calculation

Valence configuration for pseudopotential generation:
3s( 2.00) rc: 1.67
3p( 2.00) rc: 2.04
3d( 0.00) rc: 2.89
4f( 0.00) rc: 0.25
Ground state valence configuration:   2s02  2p04
Reading pseudopotential information in formatted form from O.psf

Pseudopotential generated from a relativistic atomic calculation

Valence configuration for pseudopotential generation:
2s( 2.00) rc: 0.45
2p( 4.00) rc: 0.92
3d( 0.00) rc: 2.24
4f( 0.00) rc: 0.25
For H, standard SIESTA heuristics set lmxkb to 2
 (one more than the basis l, including polarization orbitals).
Use PS.lmax or PS.KBprojectors blocks to override.
For N, standard SIESTA heuristics set lmxkb to 3
 (one more than the basis l, including polarization orbitals).
Use PS.lmax or PS.KBprojectors blocks to override.
For Si, standard SIESTA heuristics set lmxkb to 3
 (one more than the basis l, including polarization orbitals).
Use PS.lmax or PS.KBprojectors blocks to override.
For O, standard SIESTA heuristics set lmxkb to 3
 (one more than the basis l, including polarization orbitals).
Use PS.lmax or PS.KBprojectors blocks to override.

<basis_specs>
===============================================================================
H                    Z=   1    Mass=  1.0100        Charge= 0.17977+309
Lmxo=0 Lmxkb= 2    BasisType=split      Semic=F
L=0  Nsemic=0  Cnfigmx=1
          i=1  nzeta=2  polorb=1  (1s)
            splnorm:   0.62000    
               vcte:    0.0000    
               rinn:    0.0000    
               qcoe:    0.0000    
               qyuk:    0.0000    
               qwid:   0.10000E-01
                rcs:    0.0000      0.0000    
            lambdas:    1.0000      1.0000    
-------------------------------------------------------------------------------
L=0  Nkbl=1  erefs: 0.17977+309
L=1  Nkbl=1  erefs: 0.17977+309
L=2  Nkbl=1  erefs: 0.17977+309
===============================================================================
</basis_specs>

atom: Called for H                     (Z =   1)

read_vps: Pseudopotential generation method:
read_vps: ATM4.2.7  Troullier-Martins                       
Valence charge for ps generation:    1.00000

xc_check: Exchange-correlation functional:
xc_check: GGA Perdew, Burke & Ernzerhof 1996
V l=0 = -2*Zval/r beyond r=  0.0098
V l=1 = -2*Zval/r beyond r=  0.5817
V l=2 = -2*Zval/r beyond r=  1.9372
All V_l potentials equal beyond r=  1.9372
This should be close to max(r_c) in ps generation
All pots = -2*Zval/r beyond r=  1.9372

VLOCAL1: 99.0% of the norm of Vloc inside     11.567 Ry
VLOCAL1: 99.9% of the norm of Vloc inside     26.362 Ry
atom: Maximum radius for 4*pi*r*r*local-pseudopot. charge    2.25106
atom: Maximum radius for r*vlocal+2*Zval:    1.91306
GHOST: No ghost state for L =  0
GHOST: No ghost state for L =  1
GHOST: No ghost state for L =  2

KBgen: Kleinman-Bylander projectors: 
   l= 0   rc=  2.036604   el= -0.477180   Ekb= -6.081590   kbcos= -0.277285
   l= 1   rc=  2.195416   el=  0.001076   Ekb= -0.926943   kbcos= -0.034643
   l= 2   rc=  2.251056   el=  0.002010   Ekb= -0.130941   kbcos= -0.009788

KBgen: Total number of Kleinman-Bylander projectors:    9
atom: -------------------------------------------------------------------------

atom: SANKEY-TYPE ORBITALS:
atom: Selected multiple-zeta basis: split     

SPLIT: Orbitals with angular momentum L= 0

SPLIT: Basis orbitals for state 1s

SPLIT: PAO cut-off radius determined from an
SPLIT: energy shift=  0.002000 Ry

   izeta = 1
                 lambda =    1.000000
                     rc =    6.518340
                 energy =   -0.475305
                kinetic =    0.912139
    potential(screened) =   -1.387444
       potential(ionic) =   -1.907295

   izeta = 2
                 rmatch =    2.141150
              splitnorm =    0.620000
                 energy =    0.566467
                kinetic =    3.772856
    potential(screened) =   -3.206389
       potential(ionic) =   -3.759093

POLgen: Perturbative polarization orbital with L=  1

POLgen: Polarization orbital for state 1s

   izeta = 1
                     rc =    6.518340
                 energy =    0.533861
                kinetic =    1.121086
    potential(screened) =   -0.587225
       potential(ionic) =   -1.053027
atom: Total number of Sankey-type orbitals:  5

atm_pop: Valence configuration (for local Pseudopot. screening):
 1s( 1.00)                                                            
Vna: chval, zval:    1.00000   1.00000

Vna:  Cut-off radius for the neutral-atom potential:   6.518340

atom: _________________________________________________________________________

<basis_specs>
===============================================================================
N                    Z=   7    Mass=  14.010        Charge= 0.17977+309
Lmxo=1 Lmxkb= 3    BasisType=split      Semic=F
L=0  Nsemic=0  Cnfigmx=2
          i=1  nzeta=2  polorb=0  (2s)
            splnorm:   0.28000    
               vcte:    0.0000    
               rinn:    0.0000    
               qcoe:    0.0000    
               qyuk:    0.0000    
               qwid:   0.10000E-01
                rcs:    0.0000      0.0000    
            lambdas:    1.0000      1.0000    
L=1  Nsemic=0  Cnfigmx=2
          i=1  nzeta=2  polorb=1  (2p)
            splnorm:   0.28000    
               vcte:    0.0000    
               rinn:    0.0000    
               qcoe:    0.0000    
               qyuk:    0.0000    
               qwid:   0.10000E-01
                rcs:    0.0000      0.0000    
            lambdas:    1.0000      1.0000    
-------------------------------------------------------------------------------
L=0  Nkbl=1  erefs: 0.17977+309
L=1  Nkbl=1  erefs: 0.17977+309
L=2  Nkbl=1  erefs: 0.17977+309
L=3  Nkbl=1  erefs: 0.17977+309
===============================================================================
</basis_specs>

atom: Called for N                     (Z =   7)

read_vps: Pseudopotential generation method:
read_vps: ATM4.2.7  Troullier-Martins                       
Valence charge for ps generation:    5.00000

xc_check: Exchange-correlation functional:
xc_check: GGA Perdew, Burke & Ernzerhof 1996
V l=0 = -2*Zval/r beyond r=  1.2889
V l=1 = -2*Zval/r beyond r=  1.2889
V l=2 = -2*Zval/r beyond r=  3.4178
V l=3 = -2*Zval/r beyond r=  2.4084
All V_l potentials equal beyond r=  3.3753
This should be close to max(r_c) in ps generation
All pots = -2*Zval/r beyond r=  3.4178

VLOCAL1: 99.0% of the norm of Vloc inside      3.810 Ry
VLOCAL1: 99.9% of the norm of Vloc inside      8.683 Ry
atom: Maximum radius for 4*pi*r*r*local-pseudopot. charge    4.02088
atom: Maximum radius for r*vlocal+2*Zval:    3.54838
GHOST: No ghost state for L =  0
GHOST: No ghost state for L =  1
GHOST: No ghost state for L =  2
GHOST: No ghost state for L =  3

KBgen: Kleinman-Bylander projectors: 
   l= 0   rc=  3.417763   el= -1.365098   Ekb= -4.433130   kbcos= -0.707855
   l= 1   rc=  3.375302   el= -0.521201   Ekb=-13.264039   kbcos= -0.535594
   l= 2   rc=  3.872880   el=  0.001991   Ekb= -0.641094   kbcos= -0.062456
   l= 3   rc=  3.970931   el=  0.003093   Ekb= -0.474517   kbcos= -0.018236

KBgen: Total number of Kleinman-Bylander projectors:   16
atom: -------------------------------------------------------------------------

atom: SANKEY-TYPE ORBITALS:
atom: Selected multiple-zeta basis: split     

SPLIT: Orbitals with angular momentum L= 0

SPLIT: Basis orbitals for state 2s

SPLIT: PAO cut-off radius determined from an
SPLIT: energy shift=  0.002000 Ry

   izeta = 1
                 lambda =    1.000000
                     rc =    4.730425
                 energy =   -1.363399
                kinetic =    1.245246
    potential(screened) =   -2.608645
       potential(ionic) =   -8.121105

   izeta = 2
                 rmatch =    2.531849
              splitnorm =    0.280000
                 energy =   -0.959908
                kinetic =    2.409435
    potential(screened) =   -3.369343
       potential(ionic) =   -9.427975

SPLIT: Orbitals with angular momentum L= 1

SPLIT: Basis orbitals for state 2p

SPLIT: PAO cut-off radius determined from an
SPLIT: energy shift=  0.002000 Ry

   izeta = 1
                 lambda =    1.000000
                     rc =    5.924108
                 energy =   -0.519262
                kinetic =    3.672940
    potential(screened) =   -4.192202
       potential(ionic) =   -9.518354

   izeta = 2
                 rmatch =    2.531849
              splitnorm =    0.280000
                 energy =   -0.104258
                kinetic =    6.807538
    potential(screened) =   -6.911796
       potential(ionic) =  -13.149920

POLgen: Perturbative polarization orbital with L=  2

POLgen: Polarization orbital for state 2p

   izeta = 1
                     rc =    5.924108
                 energy =    1.427508
                kinetic =    2.872379
    potential(screened) =   -1.444871
       potential(ionic) =   -5.563644
atom: Total number of Sankey-type orbitals: 13

atm_pop: Valence configuration (for local Pseudopot. screening):
 2s( 2.00)                                                            
 2p( 3.00)                                                            
Vna: chval, zval:    5.00000   5.00000

Vna:  Cut-off radius for the neutral-atom potential:   5.924108

atom: _________________________________________________________________________

<basis_specs>
===============================================================================
Si                   Z=  14    Mass=  28.090        Charge= 0.17977+309
Lmxo=1 Lmxkb= 3    BasisType=split      Semic=F
L=0  Nsemic=0  Cnfigmx=3
          i=1  nzeta=2  polorb=0  (3s)
            splnorm:   0.28000    
               vcte:    0.0000    
               rinn:    0.0000    
               qcoe:    0.0000    
               qyuk:    0.0000    
               qwid:   0.10000E-01
                rcs:    0.0000      0.0000    
            lambdas:    1.0000      1.0000    
L=1  Nsemic=0  Cnfigmx=3
          i=1  nzeta=2  polorb=1  (3p)
            splnorm:   0.28000    
               vcte:    0.0000    
               rinn:    0.0000    
               qcoe:    0.0000    
               qyuk:    0.0000    
               qwid:   0.10000E-01
                rcs:    0.0000      0.0000    
            lambdas:    1.0000      1.0000    
-------------------------------------------------------------------------------
L=0  Nkbl=1  erefs: 0.17977+309
L=1  Nkbl=1  erefs: 0.17977+309
L=2  Nkbl=1  erefs: 0.17977+309
L=3  Nkbl=1  erefs: 0.17977+309
===============================================================================
</basis_specs>

atom: Called for Si                    (Z =  14)

read_vps: Pseudopotential generation method:
read_vps: ATM4.2.7  Troullier-Martins                       
Valence charge for ps generation:    4.00000

xc_check: Exchange-correlation functional:
xc_check: GGA Perdew, Burke & Ernzerhof 1996
V l=0 = -2*Zval/r beyond r=  2.7826
V l=1 = -2*Zval/r beyond r=  2.7826
V l=2 = -2*Zval/r beyond r=  2.9253
V l=3 = -2*Zval/r beyond r=  2.7826
All V_l potentials equal beyond r=  2.8530
This should be close to max(r_c) in ps generation
All pots = -2*Zval/r beyond r=  2.9253

VLOCAL1: 99.0% of the norm of Vloc inside      5.333 Ry
VLOCAL1: 99.9% of the norm of Vloc inside     12.154 Ry
atom: Maximum radius for 4*pi*r*r*local-pseudopot. charge    3.39869
atom: Maximum radius for r*vlocal+2*Zval:    2.96205
GHOST: No ghost state for L =  0
GHOST: No ghost state for L =  1
GHOST: No ghost state for L =  2
GHOST: No ghost state for L =  3

KBgen: Kleinman-Bylander projectors: 
   l= 0   rc=  3.075247   el= -0.794092   Ekb=  5.879390   kbcos=  0.167461
   l= 1   rc=  3.153101   el= -0.300068   Ekb=  2.642817   kbcos=  0.058301
   l= 2   rc=  3.273594   el=  0.001958   Ekb= -1.185135   kbcos= -0.104411
   l= 3   rc=  3.232927   el=  0.003046   Ekb= -1.061051   kbcos= -0.011037

KBgen: Total number of Kleinman-Bylander projectors:   16
atom: -------------------------------------------------------------------------

atom: SANKEY-TYPE ORBITALS:
atom: Selected multiple-zeta basis: split     

SPLIT: Orbitals with angular momentum L= 0

SPLIT: Basis orbitals for state 3s

SPLIT: PAO cut-off radius determined from an
SPLIT: energy shift=  0.002000 Ry

   izeta = 1
                 lambda =    1.000000
                     rc =    6.429618
                 energy =   -0.792283
                kinetic =    0.525293
    potential(screened) =   -1.317576
       potential(ionic) =   -3.744923

   izeta = 2
                 rmatch =    3.998416
              splitnorm =    0.280000
                 energy =   -0.583081
                kinetic =    1.069570
    potential(screened) =   -1.652651
       potential(ionic) =   -4.235185

SPLIT: Orbitals with angular momentum L= 1

SPLIT: Basis orbitals for state 3p

SPLIT: PAO cut-off radius determined from an
SPLIT: energy shift=  0.002000 Ry

   izeta = 1
                 lambda =    1.000000
                     rc =    8.464845
                 energy =   -0.298236
                kinetic =    0.785360
    potential(screened) =   -1.083596
       potential(ionic) =   -3.273779

   izeta = 2
                 rmatch =    4.587816
              splitnorm =    0.280000
                 energy =   -0.131871
                kinetic =    1.403687
    potential(screened) =   -1.535557
       potential(ionic) =   -4.015310

POLgen: Perturbative polarization orbital with L=  2

POLgen: Polarization orbital for state 3p

   izeta = 1
                     rc =    8.464845
                 energy =    0.321949
                kinetic =    1.055677
    potential(screened) =   -0.733728
       potential(ionic) =   -2.672950
atom: Total number of Sankey-type orbitals: 13

atm_pop: Valence configuration (for local Pseudopot. screening):
 3s( 2.00)                                                            
 3p( 2.00)                                                            
Vna: chval, zval:    4.00000   4.00000

Vna:  Cut-off radius for the neutral-atom potential:   8.464845

atom: _________________________________________________________________________

<basis_specs>
===============================================================================
O                    Z=   8    Mass=  16.000        Charge= 0.17977+309
Lmxo=1 Lmxkb= 3    BasisType=split      Semic=F
L=0  Nsemic=0  Cnfigmx=2
          i=1  nzeta=2  polorb=0  (2s)
            splnorm:   0.28000    
               vcte:    0.0000    
               rinn:    0.0000    
               qcoe:    0.0000    
               qyuk:    0.0000    
               qwid:   0.10000E-01
                rcs:    0.0000      0.0000    
            lambdas:    1.0000      1.0000    
L=1  Nsemic=0  Cnfigmx=2
          i=1  nzeta=2  polorb=1  (2p)
            splnorm:   0.28000    
               vcte:    0.0000    
               rinn:    0.0000    
               qcoe:    0.0000    
               qyuk:    0.0000    
               qwid:   0.10000E-01
                rcs:    0.0000      0.0000    
            lambdas:    1.0000      1.0000    
-------------------------------------------------------------------------------
L=0  Nkbl=1  erefs: 0.17977+309
L=1  Nkbl=1  erefs: 0.17977+309
L=2  Nkbl=1  erefs: 0.17977+309
L=3  Nkbl=1  erefs: 0.17977+309
===============================================================================
</basis_specs>

atom: Called for O                     (Z =   8)

read_vps: Pseudopotential generation method:
read_vps: ATM4.2.7  Troullier-Martins                       
Valence charge for ps generation:    6.00000

xc_check: Exchange-correlation functional:
xc_check: GGA Perdew, Burke & Ernzerhof 1996
V l=0 = -2*Zval/r beyond r=  1.1000
V l=1 = -2*Zval/r beyond r=  1.1000
V l=2 = -2*Zval/r beyond r=  2.2154
V l=3 = -2*Zval/r beyond r=  1.1000
All V_l potentials equal beyond r=  2.2154
This should be close to max(r_c) in ps generation
All pots = -2*Zval/r beyond r=  2.2154

VLOCAL1: 99.0% of the norm of Vloc inside      8.845 Ry
VLOCAL1: 99.9% of the norm of Vloc inside     20.157 Ry
atom: Maximum radius for 4*pi*r*r*local-pseudopot. charge    2.67231
atom: Maximum radius for r*vlocal+2*Zval:    2.32897
GHOST: No ghost state for L =  0
GHOST: No ghost state for L =  1
GHOST: No ghost state for L =  2
GHOST: No ghost state for L =  3

KBgen: Kleinman-Bylander projectors: 
   l= 0   rc=  2.243238   el= -1.759686   Ekb=**********   kbcos= -0.171774
   l= 1   rc=  2.328968   el= -0.663873   Ekb=-14.506792   kbcos= -0.519897
   l= 2   rc=  2.573941   el=  0.002031   Ekb= -1.137373   kbcos= -0.019581
   l= 3   rc=  2.606321   el=  0.003153   Ekb= -1.013546   kbcos= -0.003122

KBgen: Total number of Kleinman-Bylander projectors:   16
atom: -------------------------------------------------------------------------

atom: SANKEY-TYPE ORBITALS:
atom: Selected multiple-zeta basis: split     

SPLIT: Orbitals with angular momentum L= 0

SPLIT: Basis orbitals for state 2s

SPLIT: PAO cut-off radius determined from an
SPLIT: energy shift=  0.002000 Ry

   izeta = 1
                 lambda =    1.000000
                     rc =    4.243912
                 energy =   -1.758270
                kinetic =    3.286084
    potential(screened) =   -5.044353
       potential(ionic) =  -12.921184

   izeta = 2
                 rmatch =    2.187845
              splitnorm =    0.280000
                 energy =   -0.885018
                kinetic =    8.134434
    potential(screened) =   -9.019452
       potential(ionic) =  -17.710645

SPLIT: Orbitals with angular momentum L= 1

SPLIT: Basis orbitals for state 2p

SPLIT: PAO cut-off radius determined from an
SPLIT: energy shift=  0.002000 Ry

   izeta = 1
                 lambda =    1.000000
                     rc =    5.314825
                 energy =   -0.661986
                kinetic =    4.917472
    potential(screened) =   -5.579458
       potential(ionic) =  -13.236259

   izeta = 2
                 rmatch =    2.160663
              splitnorm =    0.280000
                 energy =   -0.068760
                kinetic =    9.183374
    potential(screened) =   -9.252135
       potential(ionic) =  -18.274251

POLgen: Perturbative polarization orbital with L=  2

POLgen: Polarization orbital for state 2p

   izeta = 1
                     rc =    5.314825
                 energy =    1.970580
                kinetic =    3.886128
    potential(screened) =   -1.915547
       potential(ionic) =   -7.749584
atom: Total number of Sankey-type orbitals: 13

atm_pop: Valence configuration (for local Pseudopot. screening):
 2s( 2.00)                                                            
 2p( 4.00)                                                            
Vna: chval, zval:    6.00000   6.00000

Vna:  Cut-off radius for the neutral-atom potential:   5.314825

atom: _________________________________________________________________________

prinput: Basis input ----------------------------------------------------------

PAO.BasisType split     

%block ChemicalSpeciesLabel
    1    1 H                       # Species index, atomic number, species label
    2    7 N                       # Species index, atomic number, species label
    3   14 Si                      # Species index, atomic number, species label
    4    8 O                       # Species index, atomic number, species label
%endblock ChemicalSpeciesLabel

%block PAO.Basis                 # Define Basis set
H                     1                    # Species label, number of l-shells
 n=1   0   2 P   1                   # n, l, Nzeta, Polarization, NzetaPol
   6.518      2.141   
   1.000      1.000   
N                     2                    # Species label, number of l-shells
 n=2   0   2                         # n, l, Nzeta 
   4.730      2.532   
   1.000      1.000   
 n=2   1   2 P   1                   # n, l, Nzeta, Polarization, NzetaPol
   5.924      2.532   
   1.000      1.000   
Si                    2                    # Species label, number of l-shells
 n=3   0   2                         # n, l, Nzeta 
   6.430      3.998   
   1.000      1.000   
 n=3   1   2 P   1                   # n, l, Nzeta, Polarization, NzetaPol
   8.465      4.588   
   1.000      1.000   
O                     2                    # Species label, number of l-shells
 n=2   0   2                         # n, l, Nzeta 
   4.244      2.188   
   1.000      1.000   
 n=2   1   2 P   1                   # n, l, Nzeta, Polarization, NzetaPol
   5.315      2.161   
   1.000      1.000   
%endblock PAO.Basis

prinput: ----------------------------------------------------------------------

Dumping basis to NetCDF file H.ion.nc
Dumping basis to NetCDF file N.ion.nc
Dumping basis to NetCDF file Si.ion.nc
Dumping basis to NetCDF file O.ion.nc
coor:   Atomic-coordinates input format  =     Cartesian coordinates
coor:                                          (in Angstroms)

siesta: Atomic coordinates (Bohr) and species
siesta:      3.38589  10.58857  -0.00000  1        1
siesta:      1.83530   9.32592  -0.00000  2        2
siesta:     -1.28422  10.63235   0.00000  3        3
siesta:     -0.96831  13.45147  -0.00000  1        4
siesta:     -4.73948   8.57343   0.00000  3        5
siesta:     -8.17388  10.24835  -0.00000  3        6
siesta:     -8.71204   9.24945  -2.64755  1        7
siesta:    -10.32785   9.58456   1.62428  1        8
siesta:     -7.90563  13.11205  -0.16358  1        9
siesta:     -3.46629   4.56645   0.00000  3       10
siesta:     -5.31795   2.19136   0.00000  4       11
siesta:     -0.00662   4.12639   0.00000  2       12
siesta:      0.48400   2.18430   0.00000  1       13
siesta:      2.75076   6.05840   0.00000  3       14
siesta:      5.64036   5.21374  -0.00000  4       15

siesta: Automatic unit cell vectors (Ang):
siesta:   16.334625    0.000000    0.000000
siesta:    0.000000   14.147142    0.000000
siesta:    0.000000    0.000000   10.262756

siesta: System type = molecule  

initatomlists: Number of atoms, orbitals, and projectors:     15   147   198

coxmol: Writing XMOL coordinates into file T.xyz                                                               

siesta: ******************** Simulation parameters ****************************
siesta:
siesta: The following are some of the parameters of the simulation.
siesta: A complete list of the parameters used, including default values,
siesta: can be found in file out.fdf
siesta:
redata: Spin configuration                          = collinear
redata: Number of spin components                   = 2
redata: Time-Reversal Symmetry                      = T
redata: Spin spiral                                 = F
redata: Long output                                 =   F
redata: Number of Atomic Species                    =        4
redata: Charge density info will appear in .RHO file
redata: Write Mulliken Pop.                         = Atomic and Orbital charges
redata: Matel table size (NRTAB)                    =     1024
redata: Mesh Cutoff                                 =   340.0000 Ry
redata: Net charge of the system                    =     0.0000 |e|
redata: Min. number of SCF Iter                     =        0
redata: Max. number of SCF Iter                     =      400
redata: SCF convergence failure will abort job
redata: SCF mix quantity                            = Hamiltonian
redata: Mix DM or H after convergence               =   F
redata: Recompute H after scf cycle                 =   F
redata: Mix DM in first SCF step                    =   T
redata: Write Pulay info on disk                    =   F
redata: New DM Occupancy tolerance                  = 0.000000000001
redata: No kicks to SCF
redata: DM Mixing Weight for Kicks                  =     0.5000
redata: Require Harris convergence for SCF          =   F
redata: Harris energy tolerance for SCF             =     0.000100 eV
redata: Require DM convergence for SCF              =   T
redata: DM tolerance for SCF                        =     0.000100
redata: Require EDM convergence for SCF             =   F
redata: EDM tolerance for SCF                       =     0.001000 eV
redata: Require H convergence for SCF               =   T
redata: Hamiltonian tolerance for SCF               =     0.001000 eV
redata: Require (free) Energy convergence for SCF   =   F
redata: (free) Energy tolerance for SCF             =     0.000100 eV
redata: Antiferro initial spin density              =   F
redata: Using Saved Data (generic)                  =   F
redata: Use continuation files for DM               =   F
redata: Neglect nonoverlap interactions             =   F
redata: Method of Calculation                       = Diagonalization
redata: Electronic Temperature                      =   299.9978 K
redata: Fix the spin of the system                  =   F
redata: Dynamics option                             = CG coord. optimization
redata: Variable cell                               =   F
redata: Use continuation files for CG               =   F
redata: Max atomic displ per move                   =     0.3000 Ang
redata: Maximum number of optimization moves        =      500
redata: Force tolerance                             =     0.0050 eV/Ang
mix.SCF: Pulay mixing                            = Pulay
mix.SCF:    Variant                              = stable
mix.SCF:    History steps                        = 18
mix.SCF:    Linear mixing weight                 =     0.250000
mix.SCF:    Mixing weight                        =     0.250000
mix.SCF:    SVD condition                        = 0.1000E-07
mix.SCF:    Restart steps                        = 36
mix.SCF:    Restart save steps                   = 6
mix.SCF: Spin-component mixing                   all
redata: Save all siesta data in one NC              =   F
redata: ***********************************************************************

%block SCF.Mixers
  Pulay
%endblock SCF.Mixers

%block SCF.Mixer.Pulay
  # Mixing method
  method pulay
  variant stable

  # Mixing options
  weight 0.2500
  weight.linear 0.2500
  history 18
  restart 36
  restart.save 6
%endblock SCF.Mixer.Pulay

DM_history_depth set to one: no extrapolation allowed by default for geometry relaxation
Size of DM history Fstack: 1
Total number of electrons:    48.000000
Total ionic charge:    48.000000

* ProcessorY, Blocksize:    4   4


* Orbital distribution balance (max,min):     8     4

 Kpoints in:            1 . Kpoints trimmed:            1

siesta: k-grid: Number of k-points =     1
siesta: k-grid: Cutoff (effective) =     5.131 Ang
siesta: k-grid: Supercell and displacements
siesta: k-grid:    1   0   0      0.000
siesta: k-grid:    0   1   0      0.000
siesta: k-grid:    0   0   1      0.000

diag: Algorithm                                     = ELPA-1stage
diag: Parallel over k                               =   F
diag: Use parallel 2D distribution                  =   T
diag: Parallel block-size                           = 4
diag: Parallel distribution                         =     4 x     8
diag: Used triangular part                          = Lower
diag: Absolute tolerance                            =  0.100E-15
diag: Orthogonalization factor                      =  0.100E-05
diag: Memory factor                                 =  1.5000


ts: **************************************************************
ts: Save H and S matrices                           =    F
ts: Save DM and EDM matrices                        =    F
ts: Only save the overlap matrix S                  =    F
ts: **************************************************************

************************ Begin: TS CHECKS AND WARNINGS ************************
************************ End: TS CHECKS AND WARNINGS **************************


                     ====================================
                        Begin CG opt. move =      0
                     ====================================

outcoor: Atomic coordinates (Ang):                          
    1.79173585    5.60323035    0.00000000   1       1  H
    0.97119750    4.93506455    0.00000000   2       2  N
   -0.67958080    5.62639246    0.00000000   3       3  Si
   -0.51240826    7.11820847    0.00000000   1       4  H
   -2.50802121    4.53686304    0.00000000   3       5  Si
   -4.32543081    5.42319196    0.00000000   3       6  Si
   -4.61021074    4.89459658   -1.40102070   1       7  H
   -5.46526313    5.07192868    0.85952966   1       8  H
   -4.18347597    6.93859610   -0.08656521   1       9  H
   -1.83428341    2.41646264    0.00000000   3      10  Si
   -2.81413830    1.15961498    0.00000000   4      11  O
   -0.00350333    2.18358804    0.00000000   2      12  N
    0.25612040    1.15588184    0.00000000   1      13  H
    1.45563846    3.20596350    0.00000000   3      14  Si
    2.98474761    2.75898924    0.00000000   4      15  O

outcell: Unit cell vectors (Ang):
       16.334625    0.000000    0.000000
        0.000000   14.147142    0.000000
        0.000000    0.000000   10.262756

outcell: Cell vector modules (Ang)   :   16.334625   14.147142   10.262756
outcell: Cell angles (23,13,12) (deg):     90.0000     90.0000     90.0000
outcell: Cell volume (Ang**3)        :   2371.6024
<dSpData1D:S at geom step 0
  <sparsity:sparsity for geom step 0
    nrows_g=147 nrows=8 sparsity=.0533 nnzs=1151, refcount: 7>
  <dData1D:(new from dSpData1D) n=1151, refcount: 1>
refcount: 1>
new_DM -- step:     1
Initializing Density Matrix...
DM filled with atomic data:
<dSpData2D:DM initialized from atoms
  <sparsity:sparsity for geom step 0
    nrows_g=147 nrows=8 sparsity=.0533 nnzs=1151, refcount: 8>
  <dData2D:DM n=1151 m=2, refcount: 1>
refcount: 1>
     spin moment: S , {S} =   26.00000       0.0       0.0  26.00000
No. of atoms with KB's overlaping orbs in proc 0. Max # of overlaps:      12     130
New grid distribution:   1
           1       1:   96    1:   20    1:    8
           2       1:   96    1:   20    9:   16
           3       1:   96    1:   20   17:   24
           4       1:   96    1:   20   25:   32
           5       1:   96    1:   20   33:   39
           6       1:   96    1:   20   40:   46
           7       1:   96    1:   20   47:   53
           8       1:   96    1:   20   54:   60
           9       1:   96   21:   40    1:    8
          10       1:   96   21:   40    9:   16
          11       1:   96   21:   40   17:   24
          12       1:   96   21:   40   25:   32
          13       1:   96   21:   40   33:   39
          14       1:   96   21:   40   40:   46
          15       1:   96   21:   40   47:   53
          16       1:   96   21:   40   54:   60
          17       1:   96   41:   60    1:    8
          18       1:   96   41:   60    9:   16
          19       1:   96   41:   60   17:   24
          20       1:   96   41:   60   25:   32
          21       1:   96   41:   60   33:   39
          22       1:   96   41:   60   40:   46
          23       1:   96   41:   60   47:   53
          24       1:   96   41:   60   54:   60
          25       1:   96   61:   80    1:    8
          26       1:   96   61:   80    9:   16
          27       1:   96   61:   80   17:   24
          28       1:   96   61:   80   25:   32
          29       1:   96   61:   80   33:   39
          30       1:   96   61:   80   40:   46
          31       1:   96   61:   80   47:   53
          32       1:   96   61:   80   54:   60

InitMesh: MESH =   192 x   160 x   120 =     3686400
InitMesh: (bp) =    96 x    80 x    60 =      460800
InitMesh: Mesh cutoff (required, used) =   340.000   353.512 Ry
ExtMesh (bp) on 0 =   204 x   124 x   116 =     2934336
New grid distribution:   2
           1      17:   75   25:   33    1:   22
           2      76:   87    1:   15    1:   22
           3      76:   86   25:   33    1:   24
           4      12:   75    1:   17   21:   60
           5      12:   75    1:   17    1:   20
           6      87:   96   33:   80    1:   24
           7      88:   96    1:   16   23:   60
           8      88:   96   17:   24   23:   60
           9      76:   86   34:   80    1:   24
          10       1:   16   25:   31    1:   22
          11      76:   87   17:   24   23:   60
          12      18:   75   25:   33   23:   60
          13      12:   75   18:   24   21:   60
          14      12:   75   18:   24    1:   20
          15       1:   17   25:   31   23:   60
          16      87:   96   25:   32   25:   60
          17       1:   16   32:   80    1:   22
          18      76:   86   25:   33   25:   60
          19      76:   87   16:   24    1:   22
          20      18:   75   34:   80   23:   60
          21       1:   17   32:   80   23:   60
          22      76:   87    1:   16   23:   60
          23       1:   11   17:   24   21:   60
          24      87:   96   25:   32    1:   24
          25      17:   75   34:   80    1:   22
          26       1:   11    1:   16    1:   20
          27       1:   11   17:   24    1:   20
          28      87:   96   33:   80   25:   60
          29      76:   86   34:   80   25:   60
          30       1:   11    1:   16   21:   60
          31      88:   96    1:   16    1:   22
          32      88:   96   17:   24    1:   22
New grid distribution:   3
           1      18:   63   28:   36    1:   23
           2      64:   80    1:   16    1:   32
           3       1:   19    1:   14    1:   24
           4      19:   63    1:   18   25:   60
           5      20:   63    1:   18    1:   24
           6       1:   18    1:   15   25:   60
           7      64:   80    1:   17   33:   60
           8      81:   96    1:   15   33:   60
           9      82:   96   46:   80   27:   60
          10       1:   18   16:   27   25:   60
          11       1:   17   28:   43    1:   23
          12      17:   63   28:   36   24:   60
          13      64:   81   44:   80    1:   26
          14      19:   63   19:   27   25:   60
          15      64:   81   31:   43   27:   60
          16      81:   96   16:   30   33:   60
          17      82:   96   47:   80    1:   26
          18      81:   96    1:   15    1:   32
          19      82:   96   31:   46    1:   26
          20      17:   63   37:   80   24:   60
          21       1:   16   43:   80   24:   60
          22      20:   63   19:   27    1:   24
          23      81:   96   16:   30    1:   32
          24      64:   80   18:   30   33:   60
          25      18:   63   37:   80    1:   23
          26       1:   17   44:   80    1:   23
          27      82:   96   31:   45   27:   60
          28      64:   81   31:   43    1:   26
          29      64:   81   44:   80   27:   60
          30       1:   16   28:   42   24:   60
          31      64:   80   17:   30    1:   32
          32       1:   19   15:   27    1:   24
Setting up quadratic distribution...
ExtMesh (bp) on 0 =   167 x   113 x   130 =     2453230
PhiOnMesh: Number of (b)points on node 0 =                11682
PhiOnMesh: nlist on node 0 =               199228

stepf: Fermi-Dirac step function

siesta: Program's energy decomposition (eV):
siesta: Ebs     =      -374.236431
siesta: Eions   =      1908.291957
siesta: Ena     =       160.276499
siesta: Ekin    =      1646.687676
siesta: Enl     =     -1400.636993
siesta: Eso     =         0.000000
siesta: Edftu   =         0.000000
siesta: DEna    =        29.013255
siesta: DUscf   =        33.146831
siesta: DUext   =         0.000000
siesta: Exc     =      -580.768704
siesta: eta*DQ  =         0.000000
siesta: Emadel  =         0.000000
siesta: Emeta   =         0.000000
siesta: Emolmec =         0.000000
siesta: Ekinion =         0.000000
siesta: Eharris =     -1993.755907
siesta: Etot    =     -2020.573393
siesta: FreeEng =     -2020.574914

        iscf     Eharris(eV)        E_KS(eV)     FreeEng(eV)     dDmax    Ef(eV) dHmax(eV)
   scf:    1    -1993.755907    -2020.573393    -2020.574914  0.971282 -4.993264 20.486663
     spin moment: S , {S} =    0.00922       0.0       0.0   0.00922
timer: Routine,Calls,Time,% = IterSCF        1       0.768   2.79
   scf:    2    -2044.566075    -2036.171854    -2036.171857  0.139724 -4.859627  6.407733
     spin moment: S , {S} =    0.00001       0.0       0.0   0.00001
   scf:    3    -2038.464808    -2037.617600    -2037.617600  0.046385 -4.574866  4.899508
     spin moment: S , {S} =    0.00000       0.0       0.0   0.00000
   scf:    4    -2038.336651    -2038.000660    -2038.000660  0.030633 -4.302800  2.869898
     spin moment: S , {S} =   -0.00000       0.0       0.0  -0.00000
   scf:    5    -2038.231724    -2038.156848    -2038.156848  0.035635 -4.560425  1.699290
     spin moment: S , {S} =   -0.00000       0.0       0.0  -0.00000
   scf:    6    -2038.109826    -2038.216140    -2038.216140  0.031232 -4.667759  1.275435
     spin moment: S , {S} =   -0.00000       0.0       0.0  -0.00000
   scf:    7    -2038.247967    -2038.271458    -2038.271458  0.021030 -4.549649  0.622699
     spin moment: S , {S} =   -0.00000       0.0       0.0  -0.00000
   scf:    8    -2038.275209    -2038.283987    -2038.283987  0.014389 -4.620482  0.441732
     spin moment: S , {S} =   -0.00000       0.0       0.0  -0.00000
   scf:    9    -2038.290888    -2038.291300    -2038.291300  0.008200 -4.585964  0.204981
     spin moment: S , {S} =    0.00000       0.0       0.0   0.00000
   scf:   10    -2038.296135    -2038.293701    -2038.293701  0.004761 -4.588091  0.054537
     spin moment: S , {S} =    0.00000       0.0       0.0   0.00000
   scf:   11    -2038.294029    -2038.293870    -2038.293870  0.000969 -4.588242  0.020043
     spin moment: S , {S} =    0.00000       0.0       0.0   0.00000
   scf:   12    -2038.293812    -2038.293870    -2038.293870  0.001132 -4.588042  0.047145
     spin moment: S , {S} =    0.00000       0.0       0.0   0.00000
   scf:   13    -2038.293910    -2038.293933    -2038.293933  0.001125 -4.582896  0.020788
     spin moment: S , {S} =    0.00000       0.0       0.0   0.00000
   scf:   14    -2038.293962    -2038.293949    -2038.293949  0.000408 -4.583143  0.006805
     spin moment: S , {S} =    0.00000       0.0       0.0   0.00000
   scf:   15    -2038.293955    -2038.293952    -2038.293952  0.000290 -4.583177  0.001007
     spin moment: S , {S} =    0.00000       0.0       0.0   0.00000
   scf:   16    -2038.293952    -2038.293952    -2038.293952  0.000090 -4.583449  0.000713
     spin moment: S , {S} =    0.00000       0.0       0.0   0.00000

SCF Convergence by DM+H criterion
max |DM_out - DM_in|         :     0.0000895770
max |H_out - H_in|      (eV) :     0.0007126878
SCF cycle converged after 16 iterations

Using DM_out to compute the final energy and forces
No. of atoms with KB's overlaping orbs in proc 0. Max # of overlaps:      12     130

siesta: E_KS(eV) =            -2038.2940

siesta: E_KS - E_eggbox =     -2038.2940
     spin moment: S , {S} =    0.00000       0.0       0.0   0.00000

siesta: Atomic forces (eV/Ang):
     1    0.001534   -0.042461   -0.049775
     2   -0.113306   -0.504597   -0.080776
     3    0.838804    0.902316    0.329401
     4   -0.006992    0.124439   -0.034315
     5    4.606013   -2.386275    0.465740
     6   -4.504283    2.583655   -1.237801
     7   -0.589718    0.245770   -0.009051
     8   -0.290631   -0.303867    0.574513
     9    0.069393   -0.216961    0.028706
    10    0.321384   -0.618820    0.037737
    11    1.424224   -1.934014    0.007047
    12   -0.175585    0.285046   -0.017235
    13   -0.047239   -0.352751   -0.010323
    14    0.080684    0.192005    0.003384
    15   -1.911839   -2.632743    0.005680
----------------------------------------
   Tot   -0.297558   -4.659258    0.012931
----------------------------------------
   Max    4.606013
   Res    1.296467    sqrt( Sum f_i^2 / 3N )
----------------------------------------
   Max    4.606013    constrained

Stress tensor Voigt[x,y,z,yz,xz,xy] (kbar):       -7.01       -3.17       -0.69        0.40       -0.39        2.43
(Free)E + p*V (eV/cell)    -2032.9335
Target enthalpy (eV/cell)    -2038.2940

mulliken: Atomic and Orbital Populations:

mulliken: Spin UP 

Species: H                   
Atom  Qatom  Qorb
               1s      1s      2Ppy    2Ppz    2Ppx    
   1  0.379   0.241   0.095   0.012   0.017   0.013
   4  0.598   0.525   0.042   0.016   0.009   0.005
   7  0.584   0.514   0.043   0.007   0.010   0.009
   8  0.599   0.526   0.044   0.010   0.009   0.011
   9  0.599   0.531   0.040   0.014   0.008   0.007
  13  0.377   0.241   0.095   0.011   0.016   0.014

Species: N                   
Atom  Qatom  Qorb
               2s      2s      2py     2pz     2px     2py     2pz     2px     
               3Pdxy   3Pdyz   3Pdz2   3Pdxz   3Pdx2-y2
   2  2.776   0.686   0.065   0.515   0.770   0.523   0.107   0.002   0.099
              0.002   0.002   0.000   0.002   0.001
  12  2.784   0.704   0.057   0.545   0.771   0.493   0.089   0.003   0.114
              0.001   0.000   0.000   0.002   0.002

Species: Si                  
Atom  Qatom  Qorb
               3s      3s      3py     3pz     3px     3py     3pz     3px     
               3Pdxy   3Pdyz   3Pdz2   3Pdxz   3Pdx2-y2
   3  1.781   0.368   0.178   0.047   0.300   0.164   0.252   0.079   0.158
              0.048   0.010   0.005   0.073   0.098
   5  1.884   0.369   0.181   0.169   0.242   0.095   0.202   0.178   0.239
              0.065   0.019   0.005   0.048   0.072
   6  1.752   0.284   0.211   0.124   0.158   0.161   0.214   0.198   0.201
              0.026   0.017   0.032   0.070   0.055
  10  1.791   0.307   0.185   0.134   0.218   0.088   0.195   0.092   0.183
              0.079   0.075   0.008   0.055   0.171
  14  1.644   0.234   0.185   0.128   0.206   0.044   0.142   0.096   0.225
              0.135   0.046   0.007   0.091   0.105

Species: O                   
Atom  Qatom  Qorb
               2s      2s      2py     2pz     2px     2py     2pz     2px     
               3Pdxy   3Pdyz   3Pdz2   3Pdxz   3Pdx2-y2
  11  3.225   0.871   0.035   0.759   0.753   0.760   0.015   0.000   0.017
              0.004   0.003   0.001   0.002   0.004
  15  3.227   0.875   0.034   0.802   0.769   0.694   0.011   0.002   0.027
              0.004   0.000   0.001   0.005   0.004

mulliken: Qtot =       24.000

mulliken: Spin DOWN 

Species: H                   
Atom  Qatom  Qorb
               1s      1s      2Ppy    2Ppz    2Ppx    
   1  0.379   0.241   0.095   0.012   0.017   0.013
   4  0.598   0.525   0.042   0.016   0.009   0.005
   7  0.584   0.514   0.043   0.007   0.010   0.009
   8  0.599   0.526   0.044   0.010   0.009   0.011
   9  0.599   0.531   0.040   0.014   0.008   0.007
  13  0.377   0.241   0.095   0.011   0.016   0.014

Species: N                   
Atom  Qatom  Qorb
               2s      2s      2py     2pz     2px     2py     2pz     2px     
               3Pdxy   3Pdyz   3Pdz2   3Pdxz   3Pdx2-y2
   2  2.776   0.686   0.065   0.515   0.770   0.523   0.107   0.002   0.099
              0.002   0.002   0.000   0.002   0.001
  12  2.784   0.704   0.057   0.545   0.771   0.493   0.089   0.003   0.114
              0.001   0.000   0.000   0.002   0.002

Species: Si                  
Atom  Qatom  Qorb
               3s      3s      3py     3pz     3px     3py     3pz     3px     
               3Pdxy   3Pdyz   3Pdz2   3Pdxz   3Pdx2-y2
   3  1.782   0.368   0.178   0.048   0.301   0.164   0.252   0.079   0.158
              0.048   0.010   0.005   0.073   0.098
   5  1.884   0.369   0.181   0.169   0.242   0.095   0.202   0.178   0.239
              0.065   0.019   0.005   0.048   0.072
   6  1.752   0.284   0.211   0.124   0.158   0.161   0.214   0.198   0.201
              0.026   0.017   0.032   0.070   0.055
  10  1.791   0.307   0.185   0.134   0.218   0.088   0.195   0.092   0.183
              0.079   0.075   0.008   0.055   0.171
  14  1.644   0.234   0.185   0.128   0.206   0.044   0.142   0.096   0.225
              0.135   0.046   0.007   0.091   0.105

Species: O                   
Atom  Qatom  Qorb
               2s      2s      2py     2pz     2px     2py     2pz     2px     
               3Pdxy   3Pdyz   3Pdz2   3Pdxz   3Pdx2-y2
  11  3.225   0.871   0.035   0.759   0.753   0.760   0.015   0.000   0.017
              0.004   0.003   0.001   0.002   0.004
  15  3.227   0.875   0.034   0.802   0.769   0.694   0.011   0.002   0.027
              0.004   0.000   0.001   0.005   0.004

mulliken: Qtot =       24.000

                     ====================================
                        Begin CG opt. move =      1
                     ====================================

outcoor: Atomic coordinates (Ang):                          
    1.79178876    5.60176568   -0.00171699   1       1  H
    0.96728902    4.91765858   -0.00278636   2       2  N
   -0.65064642    5.65751766    0.01136263   3       3  Si
   -0.51264945    7.12250097   -0.00118368   1       4  H
   -2.34913774    4.45454898    0.01606562   3       5  Si
   -4.48080511    5.51231459   -0.04269770   3       6  Si
   -4.63055295    4.90307438   -1.40133290   1       7  H
   -5.47528840    5.06144685    0.87934736   1       8  H
   -4.18108228    6.93111207   -0.08557501   1       9  H
   -1.82319735    2.39511658    0.00130173   3      10  Si
   -2.76501000    1.09290156    0.00024308   4      11  O
   -0.00956009    2.19342066   -0.00059453   2      12  N
    0.25449090    1.14371375   -0.00035610   1      13  H
    1.45842163    3.21258668    0.00011674   3      14  Si
    2.91879913    2.66817333    0.00019592   4      15  O

outcell: Unit cell vectors (Ang):
       16.334625    0.000000    0.000000
        0.000000   14.147142    0.000000
        0.000000    0.000000   10.262756

outcell: Cell vector modules (Ang)   :   16.334625   14.147142   10.262756
outcell: Cell angles (23,13,12) (deg):     90.0000     90.0000     90.0000
outcell: Cell volume (Ang**3)        :   2371.6024
<dSpData1D:S at geom step 1
  <sparsity:sparsity for geom step 1
    nrows_g=147 nrows=8 sparsity=.0530 nnzs=1146, refcount: 7>
  <dData1D:(new from dSpData1D) n=1146, refcount: 1>
refcount: 1>
new_DM -- step:     2
Re-using DM from previous geometries...
Number of DMs in history: 1
 DM extrapolation coefficients: 
1   1.00000
New DM after history re-use:
<dSpData2D:SpM extrapolated using coords
  <sparsity:sparsity for geom step 1
    nrows_g=147 nrows=8 sparsity=.0530 nnzs=1146, refcount: 9>
  <dData2D:(temp array for extrapolation) n=1146 m=2, refcount: 1>
refcount: 1>
     spin moment: S , {S} =   -0.00001       0.0       0.0  -0.00001
No. of atoms with KB's overlaping orbs in proc 0. Max # of overlaps:      11     129
New grid distribution:   1
           1       1:   96    1:   20    1:    8
           2       1:   96    1:   20    9:   16
           3       1:   96    1:   20   17:   24
           4       1:   96    1:   20   25:   32
           5       1:   96    1:   20   33:   39
           6       1:   96    1:   20   40:   46
           7       1:   96    1:   20   47:   53
           8       1:   96    1:   20   54:   60
           9       1:   96   21:   40    1:    8
          10       1:   96   21:   40    9:   16
          11       1:   96   21:   40   17:   24
          12       1:   96   21:   40   25:   32
          13       1:   96   21:   40   33:   39
          14       1:   96   21:   40   40:   46
          15       1:   96   21:   40   47:   53
          16       1:   96   21:   40   54:   60
          17       1:   96   41:   60    1:    8
          18       1:   96   41:   60    9:   16
          19       1:   96   41:   60   17:   24
          20       1:   96   41:   60   25:   32
          21       1:   96   41:   60   33:   39
          22       1:   96   41:   60   40:   46
          23       1:   96   41:   60   47:   53
          24       1:   96   41:   60   54:   60
          25       1:   96   61:   80    1:    8
          26       1:   96   61:   80    9:   16
          27       1:   96   61:   80   17:   24
          28       1:   96   61:   80   25:   32
          29       1:   96   61:   80   33:   39
          30       1:   96   61:   80   40:   46
          31       1:   96   61:   80   47:   53
          32       1:   96   61:   80   54:   60

InitMesh: MESH =   192 x   160 x   120 =     3686400
InitMesh: (bp) =    96 x    80 x    60 =      460800
InitMesh: Mesh cutoff (required, used) =   340.000   353.512 Ry
ExtMesh (bp) on 0 =   204 x   124 x   116 =     2934336
New grid distribution:   2
           1      16:   75   25:   33    1:   22
           2      76:   87    1:   15    1:   23
           3      76:   87   16:   24    1:   23
           4      12:   75    1:   17   21:   60
           5      12:   75    1:   17    1:   20
           6      12:   75   18:   24    1:   20
           7      88:   96    1:   16   24:   60
           8      88:   96   17:   24   24:   60
           9      87:   96   33:   80    1:   25
          10      76:   86   25:   33    1:   25
          11      76:   87   17:   24   24:   60
          12      17:   75   25:   33   23:   60
          13      12:   75   18:   24   21:   60
          14      76:   87    1:   16   24:   60
          15       1:   16   25:   31   23:   60
          16      87:   96   25:   32   26:   60
          17       1:   15   32:   80    1:   22
          18       1:   11   17:   24   21:   60
          19       1:   15   25:   31    1:   22
          20      17:   75   34:   80   23:   60
          21       1:   16   32:   80   23:   60
          22      87:   96   33:   80   26:   60
          23       1:   11    1:   16    1:   20
          24      87:   96   25:   32    1:   25
          25      16:   75   34:   80    1:   22
          26      76:   86   34:   80    1:   25
          27      76:   86   25:   33   26:   60
          28       1:   11   17:   24    1:   20
          29      76:   86   34:   80   26:   60
          30       1:   11    1:   16   21:   60
          31      88:   96    1:   16    1:   23
          32      88:   96   17:   24    1:   23
New grid distribution:   3
           1      18:   63   28:   37    1:   24
           2      64:   80    1:   16    1:   32
           3       1:   19    1:   14    1:   25
           4      19:   63    1:   18   26:   60
           5      20:   63    1:   18    1:   25
           6      20:   63   19:   27    1:   25
           7      64:   80    1:   17   33:   60
           8      81:   96    1:   15   33:   60
           9      81:   96   46:   80   27:   60
          10      81:   96    1:   15    1:   32
          11       1:   17   28:   43    1:   24
          12      18:   63   28:   37   25:   60
          13      64:   81   44:   80    1:   26
          14      19:   63   19:   27   26:   60
          15       1:   18   15:   27   26:   60
          16      81:   96   16:   30   33:   60
          17      82:   96   47:   80    1:   26
          18      81:   96   16:   30    1:   32
          19      82:   96   31:   46    1:   26
          20      18:   63   38:   80   25:   60
          21      64:   80   44:   80   27:   60
          22       1:   17   28:   42   25:   60
          23      81:   96   31:   45   27:   60
          24      64:   80   18:   30   33:   60
          25      18:   63   38:   80    1:   24
          26       1:   17   44:   80    1:   24
          27      64:   80   17:   30    1:   32
          28       1:   19   15:   27    1:   25
          29       1:   17   43:   80   25:   60
          30       1:   18    1:   14   26:   60
          31      64:   80   31:   43   27:   60
          32      64:   81   31:   43    1:   26
Setting up quadratic distribution...
ExtMesh (bp) on 0 =   168 x   113 x   130 =     2467920
PhiOnMesh: Number of (b)points on node 0 =                11880
PhiOnMesh: nlist on node 0 =               203341

        iscf     Eharris(eV)        E_KS(eV)     FreeEng(eV)     dDmax    Ef(eV) dHmax(eV)
   scf:    1    -2037.365207    -2038.262770    -2038.262770  0.052856 -4.698075  1.609185
     spin moment: S , {S} =    0.00000       0.0       0.0   0.00000
   scf:    2    -2033.046361    -2036.829376    -2036.829376  0.140019 -4.063898  4.393935
     spin moment: S , {S} =    0.00000       0.0       0.0   0.00000
   scf:    3    -2038.932788    -2038.536975    -2038.536975  0.111334 -4.892561  0.165312
     spin moment: S , {S} =    0.00000       0.0       0.0   0.00000
   scf:    4    -2038.540339    -2038.539184    -2038.539184  0.002158 -4.900888  0.069337
     spin moment: S , {S} =    0.00000       0.0       0.0   0.00000
   scf:    5    -2038.539712    -2038.539494    -2038.539494  0.000817 -4.902609  0.030753
     spin moment: S , {S} =    0.00000       0.0       0.0   0.00000
   scf:    6    -2038.539606    -2038.539555    -2038.539555  0.000323 -4.904244  0.012075
     spin moment: S , {S} =   -0.00000       0.0       0.0  -0.00000
   scf:    7    -2038.539584    -2038.539572    -2038.539572  0.000226 -4.905548  0.002436
     spin moment: S , {S} =    0.00000       0.0       0.0   0.00000
   scf:    8    -2038.539574    -2038.539573    -2038.539573  0.000060 -4.905655  0.001140
     spin moment: S , {S} =    0.00000       0.0       0.0   0.00000
   scf:    9    -2038.539573    -2038.539573    -2038.539573  0.000046 -4.905777  0.000250
     spin moment: S , {S} =   -0.00000       0.0       0.0  -0.00000

SCF Convergence by DM+H criterion
max |DM_out - DM_in|         :     0.0000459346
max |H_out - H_in|      (eV) :     0.0002502400
SCF cycle converged after 9 iterations

Using DM_out to compute the final energy and forces
No. of atoms with KB's overlaping orbs in proc 0. Max # of overlaps:      11     129

siesta: E_KS(eV) =            -2038.5396
     spin moment: S , {S} =   -0.00000       0.0       0.0  -0.00000

siesta: Atomic forces (eV/Ang):
     1   -0.231901   -0.404134   -0.027042
     2    0.817268    0.462798   -0.047593
     3    1.206833    0.476410    0.145067
     4    0.066380    0.613753   -0.000454
     5   -2.632885    1.522518    0.458594
     6    1.684970   -1.143058   -1.199205
     7   -0.715624    0.248451   -0.335791
     8   -0.910131   -0.396710    0.994411
     9    0.039788    0.990644   -0.002636
    10    0.568279   -2.496635    0.033659
    11    0.044881   -3.568561   -0.065618
    12    0.280420   -0.602995   -0.016305
    13   -0.082644    0.756743    0.001884
    14   -1.555237   -0.012387   -0.004109
    15   -0.573352   -3.605853   -0.041400
----------------------------------------
   Tot   -1.992955   -7.159017   -0.106537
----------------------------------------
   Max    3.605853
   Res    1.134782    sqrt( Sum f_i^2 / 3N )
----------------------------------------
   Max    3.605853    constrained

Stress tensor Voigt[x,y,z,yz,xz,xy] (kbar):       -3.82       -4.66       -1.23        0.47       -0.06        0.03
(Free)E + p*V (eV/cell)    -2033.7529
Target enthalpy (eV/cell)    -2038.5396

mulliken: Atomic and Orbital Populations:

mulliken: Spin UP 

Species: H                   
Atom  Qatom  Qorb
               1s      1s      2Ppy    2Ppz    2Ppx    
   1  0.383   0.249   0.091   0.013   0.017   0.013
   4  0.598   0.520   0.045   0.016   0.010   0.006
   7  0.589   0.515   0.045   0.009   0.011   0.009
   8  0.599   0.521   0.048   0.011   0.009   0.010
   9  0.598   0.522   0.047   0.012   0.009   0.008
  13  0.381   0.251   0.090   0.011   0.016   0.014

Species: N                   
Atom  Qatom  Qorb
               2s      2s      2py     2pz     2px     2py     2pz     2px     
               3Pdxy   3Pdyz   3Pdz2   3Pdxz   3Pdx2-y2
   2  2.775   0.686   0.065   0.507   0.772   0.525   0.112   0.002   0.099
              0.002   0.002   0.000   0.002   0.001
  12  2.776   0.707   0.056   0.541   0.767   0.490   0.087   0.003   0.118
              0.001   0.000   0.000   0.002   0.002

Species: Si                  
Atom  Qatom  Qorb
               3s      3s      3py     3pz     3px     3py     3pz     3px     
               3Pdxy   3Pdyz   3Pdz2   3Pdxz   3Pdx2-y2
   3  1.772   0.347   0.186   0.036   0.304   0.164   0.267   0.083   0.153
              0.047   0.011   0.005   0.070   0.100
   5  1.930   0.414   0.163   0.200   0.281   0.158   0.187   0.152   0.201
              0.059   0.021   0.005   0.031   0.059
   6  1.717   0.254   0.230   0.147   0.167   0.218   0.199   0.191   0.152
              0.026   0.019   0.031   0.043   0.041
  10  1.786   0.276   0.195   0.118   0.217   0.096   0.210   0.097   0.178
              0.085   0.082   0.008   0.056   0.168
  14  1.639   0.219   0.188   0.117   0.203   0.052   0.151   0.100   0.219
              0.131   0.049   0.007   0.090   0.114

Species: O                   
Atom  Qatom  Qorb
               2s      2s      2py     2pz     2px     2py     2pz     2px     
               3Pdxy   3Pdyz   3Pdz2   3Pdxz   3Pdx2-y2
  11  3.226   0.875   0.032   0.744   0.758   0.774   0.017  -0.001   0.013
              0.004   0.003   0.001   0.002   0.004
  15  3.232   0.866   0.037   0.787   0.767   0.717   0.015   0.003   0.026
              0.004   0.001   0.001   0.005   0.004

mulliken: Qtot =       24.000

mulliken: Spin DOWN 

Species: H                   
Atom  Qatom  Qorb
               1s      1s      2Ppy    2Ppz    2Ppx    
   1  0.383   0.249   0.091   0.013   0.017   0.013
   4  0.598   0.520   0.045   0.016   0.010   0.006
   7  0.589   0.515   0.045   0.009   0.011   0.009
   8  0.599   0.521   0.048   0.011   0.009   0.010
   9  0.598   0.522   0.047   0.012   0.009   0.008
  13  0.381   0.251   0.090   0.011   0.016   0.014

Species: N                   
Atom  Qatom  Qorb
               2s      2s      2py     2pz     2px     2py     2pz     2px     
               3Pdxy   3Pdyz   3Pdz2   3Pdxz   3Pdx2-y2
   2  2.775   0.686   0.065   0.507   0.772   0.525   0.112   0.002   0.099
              0.002   0.002   0.000   0.002   0.001
  12  2.776   0.707   0.056   0.541   0.767   0.490   0.087   0.003   0.118
              0.001   0.000   0.000   0.002   0.002

Species: Si                  
Atom  Qatom  Qorb
               3s      3s      3py     3pz     3px     3py     3pz     3px     
               3Pdxy   3Pdyz   3Pdz2   3Pdxz   3Pdx2-y2
   3  1.772   0.347   0.186   0.036   0.304   0.164   0.267   0.083   0.153
              0.047   0.011   0.005   0.070   0.100
   5  1.930   0.414   0.163   0.200   0.281   0.158   0.187   0.152   0.201
              0.059   0.021   0.005   0.031   0.059
   6  1.717   0.254   0.230   0.147   0.167   0.218   0.199   0.191   0.152
              0.026   0.019   0.031   0.043   0.041
  10  1.786   0.276   0.195   0.118   0.217   0.096   0.210   0.097   0.178
              0.085   0.082   0.008   0.056   0.168
  14  1.639   0.219   0.188   0.117   0.203   0.052   0.151   0.100   0.219
              0.131   0.049   0.007   0.090   0.114

Species: O                   
Atom  Qatom  Qorb
               2s      2s      2py     2pz     2px     2py     2pz     2px     
               3Pdxy   3Pdyz   3Pdz2   3Pdxz   3Pdx2-y2
  11  3.226   0.875   0.032   0.744   0.758   0.774   0.017  -0.001   0.013
              0.004   0.003   0.001   0.002   0.004
  15  3.232   0.866   0.037   0.787   0.767   0.717   0.015   0.003   0.026
              0.004   0.001   0.001   0.005   0.004

mulliken: Qtot =       24.000

                     ====================================
                        Begin CG opt. move =      2
                     ====================================

outcoor: Atomic coordinates (Ang):                          
    1.79178646    5.60182942   -0.00164226   1       1  H
    0.96745913    4.91841614   -0.00266509   2       2  N
   -0.65190573    5.65616300    0.01086810   3       3  Si
   -0.51263895    7.12231415   -0.00113217   1       4  H
   -2.35605281    4.45813152    0.01536639   3       5  Si
   -4.47404278    5.50843572   -0.04083937   3       6  Si
   -4.62966760    4.90270540   -1.40131931   1       7  H
   -5.47485207    5.06190304    0.87848484   1       8  H
   -4.18118646    6.93143779   -0.08561811   1       9  H
   -1.82367984    2.39604562    0.00124508   3      10  Si
   -2.76714821    1.09580512    0.00023250   4      11  O
   -0.00929649    2.19299272   -0.00056865   2      12  N
    0.25456182    1.14424334   -0.00034061   1      13  H
    1.45830050    3.21229842    0.00011166   3      14  Si
    2.92166940    2.67212589    0.00018739   4      15  O

outcell: Unit cell vectors (Ang):
       16.334625    0.000000    0.000000
        0.000000   14.147142    0.000000
        0.000000    0.000000   10.262756

outcell: Cell vector modules (Ang)   :   16.334625   14.147142   10.262756
outcell: Cell angles (23,13,12) (deg):     90.0000     90.0000     90.0000
outcell: Cell volume (Ang**3)        :   2371.6024
<dSpData1D:S at geom step 2
  <sparsity:sparsity for geom step 2
    nrows_g=147 nrows=8 sparsity=.0530 nnzs=1146, refcount: 7>
  <dData1D:(new from dSpData1D) n=1146, refcount: 1>
refcount: 1>
new_DM -- step:     3
Re-using DM from previous geometries...
Number of DMs in history: 1
 DM extrapolation coefficients: 
1   1.00000
New DM after history re-use:
<dSpData2D:SpM extrapolated using coords
  <sparsity:sparsity for geom step 2
    nrows_g=147 nrows=8 sparsity=.0530 nnzs=1146, refcount: 9>
  <dData2D:(temp array for extrapolation) n=1146 m=2, refcount: 1>
refcount: 1>
     spin moment: S , {S} =   -0.00000       0.0       0.0  -0.00000
No. of atoms with KB's overlaping orbs in proc 0. Max # of overlaps:      11     129
New grid distribution:   1
           1       1:   96    1:   20    1:    8
           2       1:   96    1:   20    9:   16
           3       1:   96    1:   20   17:   24
           4       1:   96    1:   20   25:   32
           5       1:   96    1:   20   33:   39
           6       1:   96    1:   20   40:   46
           7       1:   96    1:   20   47:   53
           8       1:   96    1:   20   54:   60
           9       1:   96   21:   40    1:    8
          10       1:   96   21:   40    9:   16
          11       1:   96   21:   40   17:   24
          12       1:   96   21:   40   25:   32
          13       1:   96   21:   40   33:   39
          14       1:   96   21:   40   40:   46
          15       1:   96   21:   40   47:   53
          16       1:   96   21:   40   54:   60
          17       1:   96   41:   60    1:    8
          18       1:   96   41:   60    9:   16
          19       1:   96   41:   60   17:   24
          20       1:   96   41:   60   25:   32
          21       1:   96   41:   60   33:   39
          22       1:   96   41:   60   40:   46
          23       1:   96   41:   60   47:   53
          24       1:   96   41:   60   54:   60
          25       1:   96   61:   80    1:    8
          26       1:   96   61:   80    9:   16
          27       1:   96   61:   80   17:   24
          28       1:   96   61:   80   25:   32
          29       1:   96   61:   80   33:   39
          30       1:   96   61:   80   40:   46
          31       1:   96   61:   80   47:   53
          32       1:   96   61:   80   54:   60

InitMesh: MESH =   192 x   160 x   120 =     3686400
InitMesh: (bp) =    96 x    80 x    60 =      460800
InitMesh: Mesh cutoff (required, used) =   340.000   353.512 Ry
ExtMesh (bp) on 0 =   204 x   124 x   116 =     2934336
New grid distribution:   2
           1      16:   75   25:   33    1:   22
           2      76:   87    1:   15    1:   23
           3      76:   87   16:   24    1:   23
           4      12:   75    1:   17   21:   60
           5      12:   75    1:   17    1:   20
           6      12:   75   18:   24    1:   20
           7      88:   96    1:   16   24:   60
           8      88:   96   17:   24   24:   60
           9      87:   96   33:   80    1:   25
          10      76:   86   25:   33    1:   25
          11      76:   87   17:   24   24:   60
          12      17:   75   25:   33   23:   60
          13      12:   75   18:   24   21:   60
          14      76:   87    1:   16   24:   60
          15       1:   16   25:   31   23:   60
          16      87:   96   25:   32   26:   60
          17       1:   15   32:   80    1:   22
          18       1:   11   17:   24   21:   60
          19       1:   15   25:   31    1:   22
          20      17:   75   34:   80   23:   60
          21       1:   16   32:   80   23:   60
          22      87:   96   33:   80   26:   60
          23       1:   11    1:   16    1:   20
          24      87:   96   25:   32    1:   25
          25      16:   75   34:   80    1:   22
          26      76:   86   34:   80    1:   25
          27      76:   86   25:   33   26:   60
          28       1:   11   17:   24    1:   20
          29      76:   86   34:   80   26:   60
          30       1:   11    1:   16   21:   60
          31      88:   96    1:   16    1:   23
          32      88:   96   17:   24    1:   23
New grid distribution:   3
           1      18:   63   28:   37    1:   24
           2      64:   80    1:   16    1:   32
           3       1:   19    1:   14    1:   25
           4      19:   63    1:   18   26:   60
           5      20:   63    1:   18    1:   25
           6      20:   63   19:   27    1:   25
           7      64:   80    1:   17   33:   60
           8      81:   96    1:   15   33:   60
           9      81:   96   46:   80   27:   60
          10      81:   96    1:   15    1:   32
          11       1:   17   28:   43    1:   24
          12      18:   63   28:   37   25:   60
          13      64:   81   44:   80    1:   26
          14      19:   63   19:   27   26:   60
          15       1:   18   15:   27   26:   60
          16      81:   96   16:   30   33:   60
          17      82:   96   47:   80    1:   26
          18      81:   96   16:   30    1:   32
          19      82:   96   31:   46    1:   26
          20      18:   63   38:   80   25:   60
          21      64:   80   44:   80   27:   60
          22       1:   17   28:   42   25:   60
          23      81:   96   31:   45   27:   60
          24      64:   80   18:   30   33:   60
          25      18:   63   38:   80    1:   24
          26       1:   17   44:   80    1:   24
          27      64:   80   17:   30    1:   32
          28       1:   19   15:   27    1:   25
          29       1:   17   43:   80   25:   60
          30       1:   18    1:   14   26:   60
          31      64:   80   31:   43   27:   60
          32      64:   81   31:   43    1:   26
Setting up quadratic distribution...
ExtMesh (bp) on 0 =   168 x   113 x   130 =     2467920
PhiOnMesh: Number of (b)points on node 0 =                11880
PhiOnMesh: nlist on node 0 =               203433

        iscf     Eharris(eV)        E_KS(eV)     FreeEng(eV)     dDmax    Ef(eV) dHmax(eV)
   scf:    1    -2038.563106    -2038.542944    -2038.542944  0.002418 -4.899881  0.079238
     spin moment: S , {S} =   -0.00000       0.0       0.0  -0.00000
   scf:    2    -2038.531299    -2038.539753    -2038.539753  0.006038 -4.874248  0.211715
     spin moment: S , {S} =    0.00000       0.0       0.0   0.00000
   scf:    3    -2038.544500    -2038.543558    -2038.543558  0.004447 -4.890595  0.004437
     spin moment: S , {S} =    0.00000       0.0       0.0   0.00000
   scf:    4    -2038.543564    -2038.543562    -2038.543562  0.000068 -4.889977  0.002736
     spin moment: S , {S} =    0.00000       0.0       0.0   0.00000
   scf:    5    -2038.543562    -2038.543562    -2038.543562  0.000024 -4.889760  0.001423
     spin moment: S , {S} =    0.00000       0.0       0.0   0.00000
   scf:    6    -2038.543562    -2038.543562    -2038.543562  0.000021 -4.889565  0.000359
     spin moment: S , {S} =   -0.00000       0.0       0.0  -0.00000

SCF Convergence by DM+H criterion
max |DM_out - DM_in|         :     0.0000213245
max |H_out - H_in|      (eV) :     0.0003594353
SCF cycle converged after 6 iterations

Using DM_out to compute the final energy and forces
No. of atoms with KB's overlaping orbs in proc 0. Max # of overlaps:      11     129

siesta: E_KS(eV) =            -2038.5436
     spin moment: S , {S} =   -0.00000       0.0       0.0  -0.00000

siesta: Atomic forces (eV/Ang):
     1   -0.223195   -0.388998   -0.027770
     2    0.777060    0.420893   -0.048616
     3    1.195043    0.494784    0.151257
     4    0.063498    0.591192   -0.001378
     5   -2.440863    1.397627    0.463159
     6    1.552059   -1.039330   -1.202039
     7   -0.712622    0.249035   -0.325447
     8   -0.889526   -0.393026    0.977083
     9    0.034688    0.938034   -0.002633
    10    0.559555   -2.405801    0.034784
    11   -0.546693   -2.982934   -0.062130
    12    0.260669   -0.566299   -0.016375
    13   -0.079543    0.729618    0.002642
    14   -1.489722   -0.005686   -0.003837
    15   -0.510950   -4.151253   -0.040527
----------------------------------------
   Tot   -2.450543   -7.112145   -0.101827
----------------------------------------
   Max    4.151253
   Res    1.110525    sqrt( Sum f_i^2 / 3N )
----------------------------------------
   Max    4.151253    constrained

Stress tensor Voigt[x,y,z,yz,xz,xy] (kbar):       -3.79       -4.43       -1.20        0.47       -0.08        0.08
(Free)E + p*V (eV/cell)    -2033.8987
Target enthalpy (eV/cell)    -2038.5436

mulliken: Atomic and Orbital Populations:

mulliken: Spin UP 

Species: H                   
Atom  Qatom  Qorb
               1s      1s      2Ppy    2Ppz    2Ppx    
   1  0.383   0.249   0.091   0.013   0.017   0.013
   4  0.598   0.520   0.045   0.016   0.010   0.006
   7  0.589   0.515   0.045   0.009   0.011   0.009
   8  0.599   0.521   0.048   0.011   0.009   0.010
   9  0.598   0.522   0.047   0.012   0.009   0.008
  13  0.381   0.250   0.090   0.011   0.016   0.014

Species: N                   
Atom  Qatom  Qorb
               2s      2s      2py     2pz     2px     2py     2pz     2px     
               3Pdxy   3Pdyz   3Pdz2   3Pdxz   3Pdx2-y2
   2  2.775   0.686   0.065   0.507   0.772   0.525   0.112   0.002   0.099
              0.002   0.002   0.000   0.002   0.001
  12  2.776   0.707   0.056   0.541   0.767   0.490   0.087   0.003   0.118
              0.001   0.000   0.000   0.002   0.002

Species: Si                  
Atom  Qatom  Qorb
               3s      3s      3py     3pz     3px     3py     3pz     3px     
               3Pdxy   3Pdyz   3Pdz2   3Pdxz   3Pdx2-y2
   3  1.772   0.347   0.185   0.037   0.304   0.164   0.266   0.083   0.153
              0.047   0.010   0.005   0.070   0.100
   5  1.928   0.412   0.164   0.199   0.280   0.155   0.188   0.152   0.202
              0.059   0.021   0.005   0.032   0.059
   6  1.718   0.255   0.229   0.146   0.167   0.216   0.200   0.191   0.154
              0.026   0.019   0.031   0.043   0.042
  10  1.786   0.278   0.195   0.118   0.217   0.096   0.209   0.097   0.179
              0.085   0.082   0.008   0.056   0.168
  14  1.639   0.220   0.188   0.118   0.203   0.051   0.150   0.100   0.219
              0.131   0.049   0.007   0.090   0.113

Species: O                   
Atom  Qatom  Qorb
               2s      2s      2py     2pz     2px     2py     2pz     2px     
               3Pdxy   3Pdyz   3Pdz2   3Pdxz   3Pdx2-y2
  11  3.226   0.876   0.032   0.745   0.758   0.774   0.017  -0.002   0.014
              0.004   0.003   0.001   0.002   0.004
  15  3.232   0.867   0.037   0.787   0.767   0.716   0.014   0.003   0.026
              0.004   0.001   0.001   0.005   0.004

mulliken: Qtot =       24.000

mulliken: Spin DOWN 

Species: H                   
Atom  Qatom  Qorb
               1s      1s      2Ppy    2Ppz    2Ppx    
   1  0.383   0.249   0.091   0.013   0.017   0.013
   4  0.598   0.520   0.045   0.016   0.010   0.006
   7  0.589   0.515   0.045   0.009   0.011   0.009
   8  0.599   0.521   0.048   0.011   0.009   0.010
   9  0.598   0.522   0.047   0.012   0.009   0.008
  13  0.381   0.250   0.090   0.011   0.016   0.014

Species: N                   
Atom  Qatom  Qorb
               2s      2s      2py     2pz     2px     2py     2pz     2px     
               3Pdxy   3Pdyz   3Pdz2   3Pdxz   3Pdx2-y2
   2  2.775   0.686   0.065   0.507   0.772   0.525   0.112   0.002   0.099
              0.002   0.002   0.000   0.002   0.001
  12  2.776   0.707   0.056   0.541   0.767   0.490   0.087   0.003   0.118
              0.001   0.000   0.000   0.002   0.002

Species: Si                  
Atom  Qatom  Qorb
               3s      3s      3py     3pz     3px     3py     3pz     3px     
               3Pdxy   3Pdyz   3Pdz2   3Pdxz   3Pdx2-y2
   3  1.772   0.347   0.185   0.037   0.304   0.164   0.266   0.083   0.153
              0.047   0.010   0.005   0.070   0.100
   5  1.928   0.412   0.164   0.199   0.280   0.155   0.188   0.152   0.202
              0.059   0.021   0.005   0.032   0.059
   6  1.718   0.255   0.229   0.146   0.167   0.216   0.200   0.191   0.154
              0.026   0.019   0.031   0.043   0.042
  10  1.786   0.278   0.195   0.118   0.217   0.096   0.209   0.097   0.179
              0.085   0.082   0.008   0.056   0.168
  14  1.639   0.220   0.188   0.118   0.203   0.051   0.150   0.100   0.219
              0.131   0.049   0.007   0.090   0.113

Species: O                   
Atom  Qatom  Qorb
               2s      2s      2py     2pz     2px     2py     2pz     2px     
               3Pdxy   3Pdyz   3Pdz2   3Pdxz   3Pdx2-y2
  11  3.226   0.876   0.032   0.745   0.758   0.774   0.017  -0.002   0.014
              0.004   0.003   0.001   0.002   0.004
  15  3.232   0.867   0.037   0.787   0.767   0.716   0.014   0.003   0.026
              0.004   0.001   0.001   0.005   0.004

mulliken: Qtot =       24.000

cgvc: Finished line minimization    1.  Mean atomic displacement =    0.1400

                     ====================================
                        Begin CG opt. move =      3
                     ====================================

outcoor: Atomic coordinates (Ang):                          
    1.78528957    5.58950142   -0.00356302   1       1  H
    0.98767450    4.91949806   -0.00588604   2       2  N
   -0.59826232    5.69072976    0.02262770   3       3  Si
   -0.51093656    7.14238376   -0.00193645   1       4  H
   -2.32493058    4.44590158    0.03928808   3       5  Si
   -4.52890789    5.53554432   -0.10357052   3       6  Si
   -4.66364914    4.91546424   -1.41104387   1       7  H
   -5.50735140    5.04363738    0.91986639   1       8  H
   -4.17862652    6.95405580   -0.08505607   1       9  H
   -1.80015133    2.31187120    0.00310307   3      10  Si
   -2.75143718    0.96546219   -0.00142863   4      11  O
   -0.00557804    2.18276805   -0.00143154   2      12  N
    0.25118258    1.15773961   -0.00049313   1      13  H
    1.41650527    3.21640674    0.00007474   3      14  Si
    2.86415416    2.49204009   -0.00087202   4      15  O

outcell: Unit cell vectors (Ang):
       16.334625    0.000000    0.000000
        0.000000   14.147142    0.000000
        0.000000    0.000000   10.262756

outcell: Cell vector modules (Ang)   :   16.334625   14.147142   10.262756
outcell: Cell angles (23,13,12) (deg):     90.0000     90.0000     90.0000
outcell: Cell volume (Ang**3)        :   2371.6024
<dSpData1D:S at geom step 3
  <sparsity:sparsity for geom step 3
    nrows_g=147 nrows=8 sparsity=.0530 nnzs=1145, refcount: 7>
  <dData1D:(new from dSpData1D) n=1145, refcount: 1>
refcount: 1>
new_DM -- step:     4
Re-using DM from previous geometries...
Number of DMs in history: 1
 DM extrapolation coefficients: 
1   1.00000
New DM after history re-use:
<dSpData2D:SpM extrapolated using coords
  <sparsity:sparsity for geom step 3
    nrows_g=147 nrows=8 sparsity=.0530 nnzs=1145, refcount: 9>
  <dData2D:(temp array for extrapolation) n=1145 m=2, refcount: 1>
refcount: 1>
     spin moment: S , {S} =   -0.00000       0.0       0.0  -0.00000
[...]
   -4.16869061    6.89646479   -0.00036493   1       9  H
   -1.86812411    2.30990070    0.19266042   3      10  Si
   -2.72232598    0.97506889    0.00025590   4      11  O
   -0.07580925    2.01505055    0.11172625   2      12  N
    0.08679744    0.97136245    0.00015952   1      13  H
    1.40951887    2.95344600    0.03725350   3      14  Si
    2.89088089    2.38845159   -0.00007160   4      15  O

outcell: Unit cell vectors (Ang):
       16.334625    0.000000    0.000000
        0.000000   14.147142    0.000000
        0.000000    0.000000   10.262756

outcell: Cell vector modules (Ang)   :   16.334625   14.147142   10.262756
outcell: Cell angles (23,13,12) (deg):     90.0000     90.0000     90.0000
outcell: Cell volume (Ang**3)        :   2371.6024
<dSpData1D:S at geom step 244
  <sparsity:sparsity for geom step 244
    nrows_g=147 nrows=8 sparsity=.0527 nnzs=1139, refcount: 7>
  <dData1D:(new from dSpData1D) n=1139, refcount: 1>
refcount: 1>
new_DM -- step:   245
Re-using DM from previous geometries...
Number of DMs in history: 1
 DM extrapolation coefficients: 
1   1.00000
New DM after history re-use:
<dSpData2D:SpM extrapolated using coords
  <sparsity:sparsity for geom step 244
    nrows_g=147 nrows=8 sparsity=.0527 nnzs=1139, refcount: 9>
  <dData2D:(temp array for extrapolation) n=1139 m=2, refcount: 1>
refcount: 1>
     spin moment: S , {S} =   -0.00000       0.0       0.0  -0.00000
No. of atoms with KB's overlaping orbs in proc 0. Max # of overlaps:      11     126
New grid distribution:   1
           1       1:   96    1:   20    1:    8
           2       1:   96    1:   20    9:   16
           3       1:   96    1:   20   17:   24
           4       1:   96    1:   20   25:   32
           5       1:   96    1:   20   33:   39
           6       1:   96    1:   20   40:   46
           7       1:   96    1:   20   47:   53
           8       1:   96    1:   20   54:   60
           9       1:   96   21:   40    1:    8
          10       1:   96   21:   40    9:   16
          11       1:   96   21:   40   17:   24
          12       1:   96   21:   40   25:   32
          13       1:   96   21:   40   33:   39
          14       1:   96   21:   40   40:   46
          15       1:   96   21:   40   47:   53
          16       1:   96   21:   40   54:   60
          17       1:   96   41:   60    1:    8
          18       1:   96   41:   60    9:   16
          19       1:   96   41:   60   17:   24
          20       1:   96   41:   60   25:   32
          21       1:   96   41:   60   33:   39
          22       1:   96   41:   60   40:   46
          23       1:   96   41:   60   47:   53
          24       1:   96   41:   60   54:   60
          25       1:   96   61:   80    1:    8
          26       1:   96   61:   80    9:   16
          27       1:   96   61:   80   17:   24
          28       1:   96   61:   80   25:   32
          29       1:   96   61:   80   33:   39
          30       1:   96   61:   80   40:   46
          31       1:   96   61:   80   47:   53
          32       1:   96   61:   80   54:   60

InitMesh: MESH =   192 x   160 x   120 =     3686400
InitMesh: (bp) =    96 x    80 x    60 =      460800
InitMesh: Mesh cutoff (required, used) =   340.000   353.512 Ry
ExtMesh (bp) on 0 =   204 x   124 x   116 =     2934336
New grid distribution:   2
           1      12:   75    1:   16    1:   16
           2       1:   11    1:   15    1:   16
           3      12:   75    1:   16   17:   60
           4      88:   96    1:   15   18:   60
           5      12:   75   17:   23   17:   60
           6      87:   96   32:   80    1:   19
           7      76:   87   16:   23   18:   60
           8      88:   96    1:   15    1:   17
           9      16:   75   24:   32    1:   18
          10       1:   15   24:   31    1:   18
          11      76:   86   24:   32   20:   60
          12      18:   75   24:   32   19:   60
          13      87:   96   32:   80   20:   60
          14      76:   87    1:   15   18:   60
          15       1:   17   24:   30   19:   60
          16      76:   86   24:   33    1:   19
          17       1:   15   32:   80    1:   18
          18       1:   11   16:   23   17:   60
          19      76:   87   15:   23    1:   17
          20      18:   75   33:   80   19:   60
          21       1:   17   31:   80   19:   60
          22       1:   11    1:   15   17:   60
          23      87:   96   24:   31   20:   60
          24      87:   96   24:   31    1:   19
          25      16:   75   33:   80    1:   18
          26      76:   86   34:   80    1:   19
          27      88:   96   16:   23   18:   60
          28       1:   11   16:   23    1:   16
          29      76:   86   33:   80   20:   60
          30      12:   75   17:   23    1:   16
          31      76:   87    1:   14    1:   17
          32      88:   96   16:   23    1:   17
New grid distribution:   3
           1      82:   96   47:   80    1:   26
           2      81:   96    1:   16   28:   60
           3       1:   19    1:   14    1:   24
           4      19:   64    1:   17   25:   60
           5      20:   64    1:   18    1:   24
           6      18:   64   28:   36    1:   24
           7       1:   18    1:   14   25:   60
           8      65:   81   31:   44    1:   26
           9      82:   96   46:   80   27:   60
          10      65:   81   31:   43   27:   60
          11      65:   81   17:   30    1:   27
          12      19:   64   18:   27   25:   60
          13      18:   64   28:   37   25:   60
          14      20:   64   19:   27    1:   24
          15       1:   18   15:   27   25:   60
          16      65:   80   19:   30   28:   60
          17       1:   17   44:   80    1:   24
          18      81:   96   17:   30   28:   60
          19      82:   96   31:   46    1:   26
          20      18:   64   38:   80   25:   60
          21      65:   81   44:   80   27:   60
          22      65:   80    1:   18   28:   60
          23      82:   96   31:   45   27:   60
          24      82:   96    1:   15    1:   27
          25      18:   64   37:   80    1:   24
          26      65:   81   45:   80    1:   26
          27      65:   81    1:   16    1:   27
          28      82:   96   16:   30    1:   27
          29       1:   17   43:   80   25:   60
          30       1:   17   28:   42   25:   60
          31       1:   17   28:   43    1:   24
          32       1:   19   15:   27    1:   24
Setting up quadratic distribution...
ExtMesh (bp) on 0 =   172 x   120 x   124 =     2559360
PhiOnMesh: Number of (b)points on node 0 =                16384
PhiOnMesh: nlist on node 0 =               219309

        iscf     Eharris(eV)        E_KS(eV)     FreeEng(eV)     dDmax    Ef(eV) dHmax(eV)
   scf:    1    -2039.597625    -2039.597555    -2039.597555  0.000018 -4.666310  0.001118
     spin moment: S , {S} =    0.00000       0.0       0.0   0.00000
   scf:    2    -2039.597554    -2039.597555    -2039.597555  0.000049 -4.666741  0.004259
     spin moment: S , {S} =   -0.00000       0.0       0.0  -0.00000
   scf:    3    -2039.597555    -2039.597555    -2039.597555  0.000041 -4.666435  0.000166
     spin moment: S , {S} =   -0.00000       0.0       0.0  -0.00000

SCF Convergence by DM+H criterion
max |DM_out - DM_in|         :     0.0000405024
max |H_out - H_in|      (eV) :     0.0001657391
SCF cycle converged after 3 iterations

Using DM_out to compute the final energy and forces
No. of atoms with KB's overlaping orbs in proc 0. Max # of overlaps:      11     126

siesta: E_KS(eV) =            -2039.5976
     spin moment: S , {S} =   -0.00000       0.0       0.0  -0.00000

siesta: Atomic forces (eV/Ang):
     1    0.001068    0.000454   -0.000036
     2   -0.002365   -0.000966    0.000298
     3   -0.000433    0.001727   -0.000317
     4    0.000478    0.000427   -0.001830
     5    0.000707    0.000307   -0.000117
     6   -0.000038   -0.000749    0.003258
     7    0.000271   -0.000850    0.000671
     8    0.000407    0.002183    0.001612
     9   -0.003209    0.001970    0.001505
    10    0.000848    0.000301   -0.002019
    11   -0.001535   -0.000366    0.002307
    12    0.000845    0.000791    0.003152
    13    0.000739   -0.003577    0.000118
    14    0.000158    0.000684   -0.000973
    15   -0.002928   -0.000533   -0.001027
----------------------------------------
   Tot   -0.004987    0.001802    0.006603
----------------------------------------
   Max    0.003577
   Res    0.001496    sqrt( Sum f_i^2 / 3N )
----------------------------------------
   Max    0.003577    constrained

Stress tensor Voigt[x,y,z,yz,xz,xy] (kbar):       -0.28        0.21       -0.35       -0.02       -0.01        0.01
(Free)E + p*V (eV/cell)    -2039.3909
Target enthalpy (eV/cell)    -2039.5976

mulliken: Atomic and Orbital Populations:

mulliken: Spin UP 

Species: H                   
Atom  Qatom  Qorb
               1s      1s      2Ppy    2Ppz    2Ppx    
   1  0.377   0.241   0.095   0.012   0.016   0.012
   4  0.597   0.527   0.040   0.017   0.007   0.005
   7  0.603   0.534   0.041   0.008   0.013   0.007
   8  0.601   0.534   0.041   0.007   0.009   0.010
   9  0.602   0.535   0.041   0.013   0.008   0.006
  13  0.372   0.238   0.095   0.011   0.015   0.014

Species: N                   
Atom  Qatom  Qorb
               2s      2s      2py     2pz     2px     2py     2pz     2px     
               3Pdxy   3Pdyz   3Pdz2   3Pdxz   3Pdx2-y2
   2  2.779   0.697   0.060   0.516   0.762   0.531   0.107   0.003   0.095
              0.002   0.002   0.000   0.001   0.002
  12  2.777   0.701   0.057   0.548   0.764   0.491   0.087   0.004   0.118
              0.001   0.001  -0.000   0.002   0.002

Species: Si                  
Atom  Qatom  Qorb
               3s      3s      3py     3pz     3px     3py     3pz     3px     
               3Pdxy   3Pdyz   3Pdz2   3Pdxz   3Pdx2-y2
   3  1.723   0.369   0.190   0.061   0.239   0.174   0.240   0.079   0.154
              0.047   0.013   0.016   0.059   0.081
   5  2.067   0.480   0.157   0.308   0.389   0.280   0.100   0.076   0.118
              0.040   0.025   0.019   0.032   0.041
   6  1.668   0.249   0.234   0.161   0.134   0.200   0.184   0.200   0.158
              0.016   0.012   0.038   0.046   0.035
  10  1.738   0.306   0.190   0.108   0.193   0.110   0.211   0.095   0.159
              0.074   0.070   0.016   0.053   0.152
  14  1.639   0.229   0.186   0.122   0.202   0.050   0.146   0.098   0.221
              0.123   0.047   0.007   0.091   0.118

Species: O                   
Atom  Qatom  Qorb
               2s      2s      2py     2pz     2px     2py     2pz     2px     
               3Pdxy   3Pdyz   3Pdz2   3Pdxz   3Pdx2-y2
  11  3.229   0.874   0.034   0.729   0.753   0.797   0.017   0.001   0.010
              0.003   0.004   0.001   0.002   0.004
  15  3.228   0.872   0.035   0.791   0.765   0.709   0.013   0.003   0.025
              0.004   0.001   0.001   0.005   0.004

mulliken: Qtot =       24.000

mulliken: Spin DOWN 

Species: H                   
Atom  Qatom  Qorb
               1s      1s      2Ppy    2Ppz    2Ppx    
   1  0.377   0.241   0.095   0.012   0.016   0.012
   4  0.597   0.527   0.040   0.017   0.007   0.005
   7  0.603   0.534   0.041   0.008   0.013   0.007
   8  0.601   0.534   0.041   0.007   0.009   0.010
   9  0.602   0.535   0.041   0.013   0.008   0.006
  13  0.372   0.238   0.095   0.011   0.015   0.014

Species: N                   
Atom  Qatom  Qorb
               2s      2s      2py     2pz     2px     2py     2pz     2px     
               3Pdxy   3Pdyz   3Pdz2   3Pdxz   3Pdx2-y2
   2  2.779   0.697   0.060   0.516   0.762   0.531   0.107   0.003   0.095
              0.002   0.002   0.000   0.001   0.002
  12  2.777   0.701   0.057   0.548   0.764   0.491   0.087   0.004   0.118
              0.001   0.001  -0.000   0.002   0.002

Species: Si                  
Atom  Qatom  Qorb
               3s      3s      3py     3pz     3px     3py     3pz     3px     
               3Pdxy   3Pdyz   3Pdz2   3Pdxz   3Pdx2-y2
   3  1.723   0.369   0.190   0.061   0.239   0.174   0.240   0.079   0.154
              0.047   0.013   0.016   0.059   0.081
   5  2.067   0.480   0.157   0.308   0.389   0.280   0.100   0.076   0.118
              0.040   0.025   0.019   0.032   0.041
   6  1.668   0.249   0.234   0.161   0.134   0.200   0.184   0.200   0.158
              0.016   0.012   0.038   0.046   0.035
  10  1.738   0.306   0.190   0.108   0.193   0.110   0.211   0.095   0.159
              0.074   0.070   0.016   0.053   0.152
  14  1.639   0.229   0.186   0.122   0.202   0.050   0.146   0.098   0.221
              0.123   0.047   0.007   0.091   0.118

Species: O                   
Atom  Qatom  Qorb
               2s      2s      2py     2pz     2px     2py     2pz     2px     
               3Pdxy   3Pdyz   3Pdz2   3Pdxz   3Pdx2-y2
  11  3.229   0.874   0.034   0.729   0.753   0.797   0.017   0.001   0.010
              0.003   0.004   0.001   0.002   0.004
  15  3.228   0.872   0.035   0.791   0.765   0.709   0.013   0.003   0.025
              0.004   0.001   0.001   0.005   0.004

mulliken: Qtot =       24.000

outcoor: Relaxed atomic coordinates (Ang):                  
    1.87089408    5.30564777   -0.08576103   1       1  H
    1.00211320    4.70046092   -0.01181765   2       2  N
   -0.60885961    5.49493210    0.01913833   3       3  Si
   -0.34128350    6.98259093   -0.17014740   1       4  H
   -2.39535987    4.46421740    0.91495489   3       5  Si
   -4.36206650    5.39375948   -0.04363205   3       6  Si
   -4.67863281    4.95146439   -1.45380470   1       7  H
   -5.52898321    5.03976478    0.85500083   1       8  H
   -4.16869061    6.89646479   -0.00036493   1       9  H
   -1.86812411    2.30990070    0.19266042   3      10  Si
   -2.72232598    0.97506889    0.00025590   4      11  O
   -0.07580925    2.01505055    0.11172625   2      12  N
    0.08679744    0.97136245    0.00015952   1      13  H
    1.40951887    2.95344600    0.03725350   3      14  Si
    2.89088089    2.38845159   -0.00007160   4      15  O

coxmol: Writing XMOL coordinates into file T.xyz                                                               

siesta: Eigenvalues (eV):
  ik is       eps
   1  1  -22.9899  -22.5180  -21.9112  -21.2785  -15.1015  -13.9669  -13.6738  -13.1408  -11.9266  -11.4427
         -10.6084   -9.5595   -9.1764   -9.1285   -9.0390   -8.6365   -8.2262   -8.0688   -7.7443   -7.4132
   -6.9799   -6.7956   -6.4705   -6.1923   -3.9439   -2.6474   -2.4500   -2.2734   -1.9227   -1.4253
   -1.2971   -0.5558   -0.0903    0.1836    0.3414    0.6145    0.8873    1.2713    1.4558    1.5727
    2.2240    2.3359    2.4736    2.9523    3.1416    3.5861    4.0333    4.1618    4.2525    4.7457
    5.1901    5.2765    5.3122    5.9441    6.0418    6.2119    6.7863    7.0924    7.4693    7.6935
    7.8931    8.1634    8.4199    9.0820    9.5587   10.0321   10.0929   10.4552   11.0245   11.3903
   11.4494   11.5261   12.0891   12.2389   12.7103   13.0403   13.6840   13.8478   14.1073   14.6068
   15.7374   15.9610   16.5079   16.6890   17.2983   17.6486   18.3104   19.4091   20.1931   20.6632
   20.9421   21.7518   21.8256   22.4045   23.2880   23.7007   24.3485   25.7513   26.1270   26.7399
   27.8932   28.5753   28.6449   30.0603   30.7703   33.1802   33.4449   33.9419   34.3774   34.5668
   35.4136   36.2865   36.8389   38.3004   38.8478   39.6885   40.7858   41.5706   42.4218   44.4778
   45.4099   46.8011   47.6159   48.2129   50.0872   50.2340   50.3407   51.5738   52.1087   52.8655
   53.7739   55.2944   55.8783   56.4643   57.2628   58.3276   62.3828   65.3705   66.3252   67.3117
   70.1824   88.5541   91.1313   96.6377   99.4438  118.6610  134.2584
   1  2  -22.9899  -22.5180  -21.9112  -21.2785  -15.1015  -13.9669  -13.6738  -13.1408  -11.9266  -11.4427
         -10.6084   -9.5595   -9.1764   -9.1285   -9.0390   -8.6365   -8.2262   -8.0688   -7.7443   -7.4132
   -6.9799   -6.7956   -6.4705   -6.1923   -3.9439   -2.6474   -2.4500   -2.2734   -1.9227   -1.4253
   -1.2971   -0.5558   -0.0903    0.1836    0.3414    0.6145    0.8873    1.2713    1.4558    1.5727
    2.2240    2.3359    2.4736    2.9523    3.1416    3.5861    4.0333    4.1618    4.2525    4.7457
    5.1901    5.2765    5.3122    5.9441    6.0418    6.2119    6.7863    7.0924    7.4693    7.6935
    7.8931    8.1634    8.4199    9.0820    9.5587   10.0321   10.0929   10.4552   11.0245   11.3903
   11.4494   11.5261   12.0891   12.2389   12.7103   13.0403   13.6840   13.8478   14.1073   14.6068
   15.7374   15.9610   16.5079   16.6890   17.2983   17.6486   18.3104   19.4091   20.1931   20.6632
   20.9421   21.7518   21.8256   22.4045   23.2880   23.7007   24.3485   25.7513   26.1270   26.7399
   27.8932   28.5753   28.6449   30.0603   30.7703   33.1802   33.4449   33.9419   34.3774   34.5668
   35.4136   36.2865   36.8389   38.3004   38.8478   39.6885   40.7858   41.5706   42.4218   44.4778
   45.4099   46.8011   47.6159   48.2129   50.0872   50.2340   50.3407   51.5738   52.1087   52.8655
   53.7739   55.2944   55.8783   56.4643   57.2628   58.3276   62.3828   65.3705   66.3252   67.3117
   70.1824   88.5541   91.1313   96.6377   99.4438  118.6610  134.2584
siesta: Fermi energy =      -4.666435 eV

siesta: Program's energy decomposition (eV):
siesta: Ebs     =      -563.979075
siesta: Eions   =      1908.291957
siesta: Ena     =       161.356948
siesta: Ekin    =      1436.794608
siesta: Enl     =     -1202.018895
siesta: Eso     =         0.000000
siesta: Edftu   =         0.000000
siesta: DEna    =         8.224494
siesta: DUscf   =         6.762495
siesta: DUext   =         0.000000
siesta: Exc     =      -542.425248
siesta: eta*DQ  =         0.000000
siesta: Emadel  =         0.000000
siesta: Emeta   =         0.000000
siesta: Emolmec =         0.000000
siesta: Ekinion =         0.000000
siesta: Eharris =     -2039.597555
siesta: Etot    =     -2039.597555
siesta: FreeEng =     -2039.597555

siesta: Final energy (eV):
siesta:  Band Struct. =    -563.979075
siesta:       Kinetic =    1436.794608
siesta:       Hartree =    3044.427605
siesta:       Edftu   =       0.000000
siesta:       Eso     =       0.000000
siesta:    Ext. field =       0.000000
siesta:   Exch.-corr. =    -542.425248
siesta:  Ion-electron =   -7385.918793
siesta:       Ion-ion =    1407.524273
siesta:       Ekinion =       0.000000
siesta:         Total =   -2039.597555
siesta:         Fermi =      -4.666435

siesta: Stress tensor (static) (eV/Ang**3):
siesta:    -0.000175    0.000005   -0.000007
siesta:     0.000005    0.000132   -0.000010
siesta:    -0.000007   -0.000010   -0.000218

siesta: Cell volume =       2371.602354 Ang**3

siesta: Pressure (static):
siesta:                Solid            Molecule  Units
siesta:           0.00000095          0.00000092  Ry/Bohr**3
siesta:           0.00008712          0.00008486  eV/Ang**3
siesta:           0.13958786          0.13596156  kBar
(Free)E+ p_basis*V_orbitals  =       -2029.151340
(Free)Eharris+ p_basis*V_orbitals  =       -2029.151340
     spin moment: S , {S} =   -0.00000       0.0       0.0  -0.00000

siesta: Electric dipole (a.u.)  =   -0.298842    2.580525    0.013616
siesta: Electric dipole (Debye) =   -0.759582    6.559044    0.034610

cite: Please see "T.bib" for an exhaustive BiBTeX file.
cite: Please clearly indicate Siesta version in published work: v4.1.5-1-g384057250
cite: This calculation has made use of the following articles
cite: which are encouraged to be cited in a published work.
        Primary SIESTA paper
          DOI: www.doi.org/10.1088/0953-8984/14/11/302


WARNING: alloc-realloc-dealloc name mismatch
         Name: atomlist isa
         Size:               -60. Bytes
         Node:     0
         Subsequent mismatches will not be reported
>> End of run:  19-FEB-2022  21:06:49
Job completed
