Siesta Version  : v4.1.5-1-g384057250
Architecture    : gcc
Compiler version: GNU Fortran (Debian 12.2.0-14) 12.2.0
Compiler flags  : mpifort -O2 -fPIC -ftree-vectorize -fallow-argument-mismatch
PP flags        : -DFC_HAVE_ABORT -DMPI -DSIESTA__FLOOK -DSIESTA__METIS -DSIESTA__MUMPS -DCDF -DNCDF -DNCDF_4 -DNCDF_PARALLEL -DSIESTA__MRRR -DSIESTA__ELPA
Libraries       : libncdf.a libfdict.a  -lflookall -ldl -lnetcdff -lnetcdf -lz -lscalapack-openmpi -lopenblas -lmetis -lzmumps -lcmumps -ldmumps -lmumps_common -lpord -lsmumps -lesmumps -lscotch -lscotcherr -fopenmp -lelpa
PARALLEL version
NetCDF support
NetCDF-4 support
NetCDF-4 MPI-IO support
METIS ordering support
Lua support

* Running on 32 nodes in parallel
>> Start of run:  16-OCT-2023  20:07:27

                           ***********************       
                           *  WELCOME TO SIESTA  *       
                           ***********************       

reinit: Reading from standard input
reinit: Dumped input in INPUT_TMP.61358
************************** Dump of input data file ****************************
# mpirun -np 4 siesta-4.1.5 < AT.fdf > AT.out &
SystemLabel      AT
NumberOfAtoms    30
NumberOfSpecies  4
%block ChemicalSpeciesLabel
    1    1  H
    2    7  N
    3   14  Si
    4    8  O
%endblock ChemicalSpeciesLabel
############################################
# This overrides Defaults.fdf configuration
############################################
MD.TypeOfRun                Verlet # CG, Verlet
MD.Steps                    0
MaxSCFIterations            300
AtomicCoordinatesFormat NotScaledCartesianAng
%block AtomicCoordinatesAndAtomicSpecies
    2.28494382 -5.19529124 0.0  1  1  H
    1.37433094 -4.6647107 0.0  2  2  N
    -0.21830245 -5.49458215 0.0  3  3  Si
    -0.17484108 -6.98516892 0.0  1  4  H
    -1.66171682 -4.58600741 0.0  2  5  N
    -1.09026419 -2.87456374 0.0  3  6  Si
    -1.53038332 -0.70765692 0.0  3  7  Si
    -3.14415959 -0.09186471 0.0  2  8  N
    -3.40268075 0.95848335 0.0  1  9  H
    -3.95073599 -0.76720972 0.0  1  10  H
    -0.17836637 0.41349951 0.0  2  11  N
    1.49520211 -0.0473996 0.0  3  12  Si
    2.45603905 1.10727302 0.0  1  13  H
    2.30451743 -1.58574382 0.0  2  14  N
    1.10725559 -2.84610319 0.0  3  15  Si
    0.6974995171508905 6.63404798489368 0.0  1  16  H
    -0.11121116284910951 5.94184210489368 0.0  2  17  N
    -1.7678010028491096 6.65496220489368 0.0  3  18  Si
    -1.6709358328491095 8.16568741489368 0.0  1  19  H
    -3.4939573528491095 5.3119140748936795 0.0  3  20  Si
    -5.84841160284911 5.30392714489368 0.0  3  21  Si
    -6.41082972284911 6.0384167948936796 -1.20183078  1  22  H
    -6.14822535284911 3.8248360148936795 -0.08618332  1  23  H
    -6.4109421828491095 5.86875960489368 1.28814761  1  24  H
    -2.5645667128491096 3.24134284489368 0.0  3  25  Si
    -3.5140350728491097 1.9528067148936799 0.0  4  26  O
    -0.7736218428491095 3.0676073748936803 0.0  2  27  N
    -0.44263048284910944 2.03525039489368 0.0  1  28  H
    0.5348363771508905 4.262153794893679 0.0  3  29  Si
    2.1007733071508903 3.99490694489368 0.0  4  30  O
%endblock AtomicCoordinatesAndAtomicSpecies
%include ../../../../Defaults.fdf
************************** End of input data file *****************************

reinit: -----------------------------------------------------------------------
reinit: System Name: 
reinit: -----------------------------------------------------------------------
reinit: System Label: AT
reinit: -----------------------------------------------------------------------

initatom: Reading input for the pseudopotentials and atomic orbitals ----------
Species number:   1 Atomic number:    1 Label: H
Species number:   2 Atomic number:    7 Label: N
Species number:   3 Atomic number:   14 Label: Si
Species number:   4 Atomic number:    8 Label: O

Ground state valence configuration:   1s01
Reading pseudopotential information in formatted form from H.psf

Pseudopotential generated from a relativistic atomic calculation

Valence configuration for pseudopotential generation:
1s( 1.00) rc: 0.01
2p( 0.00) rc: 0.60
3d( 0.00) rc: 1.99
4f( 0.00) rc: 2.49
Ground state valence configuration:   2s02  2p03
Reading pseudopotential information in formatted form from N.psf

Pseudopotential generated from a relativistic atomic calculation

Valence configuration for pseudopotential generation:
2s( 2.00) rc: 0.94
2p( 3.00) rc: 0.59
3d( 0.00) rc: 3.46
4f( 0.00) rc: 2.47
Ground state valence configuration:   3s02  3p02
Reading pseudopotential information in formatted form from Si.psf

Pseudopotential generated from a relativistic atomic calculation

Valence configuration for pseudopotential generation:
3s( 2.00) rc: 1.67
3p( 2.00) rc: 2.04
3d( 0.00) rc: 2.89
4f( 0.00) rc: 2.49
Ground state valence configuration:   2s02  2p04
Reading pseudopotential information in formatted form from O.psf

Pseudopotential generated from a relativistic atomic calculation

Valence configuration for pseudopotential generation:
2s( 2.00) rc: 0.45
2p( 4.00) rc: 0.92
3d( 0.00) rc: 2.24
4f( 0.00) rc: 0.25
For H, standard SIESTA heuristics set lmxkb to 2
 (one more than the basis l, including polarization orbitals).
Use PS.lmax or PS.KBprojectors blocks to override.
For N, standard SIESTA heuristics set lmxkb to 3
 (one more than the basis l, including polarization orbitals).
Use PS.lmax or PS.KBprojectors blocks to override.
For Si, standard SIESTA heuristics set lmxkb to 3
 (one more than the basis l, including polarization orbitals).
Use PS.lmax or PS.KBprojectors blocks to override.
For O, standard SIESTA heuristics set lmxkb to 3
 (one more than the basis l, including polarization orbitals).
Use PS.lmax or PS.KBprojectors blocks to override.

<basis_specs>
===============================================================================
H                    Z=   1    Mass=  1.0100        Charge= 0.17977+309
Lmxo=0 Lmxkb= 2    BasisType=split      Semic=F
L=0  Nsemic=0  Cnfigmx=1
          i=1  nzeta=2  polorb=1  (1s)
            splnorm:   0.62000    
               vcte:    0.0000    
               rinn:    0.0000    
               qcoe:    0.0000    
               qyuk:    0.0000    
               qwid:   0.10000E-01
                rcs:    0.0000      0.0000    
            lambdas:    1.0000      1.0000    
-------------------------------------------------------------------------------
L=0  Nkbl=1  erefs: 0.17977+309
L=1  Nkbl=1  erefs: 0.17977+309
L=2  Nkbl=1  erefs: 0.17977+309
===============================================================================
</basis_specs>

atom: Called for H                     (Z =   1)

read_vps: Pseudopotential generation method:
read_vps: ATM4.2.7  Troullier-Martins                       
Valence charge for ps generation:    1.00000

xc_check: Exchange-correlation functional:
xc_check: GGA Perdew, Burke & Ernzerhof 1996
V l=0 = -2*Zval/r beyond r=  0.0098
V l=1 = -2*Zval/r beyond r=  0.5817
V l=2 = -2*Zval/r beyond r=  1.9372
All V_l potentials equal beyond r=  1.9372
This should be close to max(r_c) in ps generation
All pots = -2*Zval/r beyond r=  1.9372

VLOCAL1: 99.0% of the norm of Vloc inside     11.567 Ry
VLOCAL1: 99.9% of the norm of Vloc inside     26.362 Ry
atom: Maximum radius for 4*pi*r*r*local-pseudopot. charge    2.25106
atom: Maximum radius for r*vlocal+2*Zval:    1.91306
GHOST: No ghost state for L =  0
GHOST: No ghost state for L =  1
GHOST: No ghost state for L =  2

KBgen: Kleinman-Bylander projectors: 
   l= 0   rc=  2.036604   el= -0.477180   Ekb= -6.081590   kbcos= -0.277285
   l= 1   rc=  2.195416   el=  0.001076   Ekb= -0.926943   kbcos= -0.034643
   l= 2   rc=  2.251056   el=  0.002010   Ekb= -0.130941   kbcos= -0.009788

KBgen: Total number of Kleinman-Bylander projectors:    9
atom: -------------------------------------------------------------------------

atom: SANKEY-TYPE ORBITALS:
atom: Selected multiple-zeta basis: split     

SPLIT: Orbitals with angular momentum L= 0

SPLIT: Basis orbitals for state 1s

SPLIT: PAO cut-off radius determined from an
SPLIT: energy shift=  0.002000 Ry

   izeta = 1
                 lambda =    1.000000
                     rc =    6.518340
                 energy =   -0.475305
                kinetic =    0.912139
    potential(screened) =   -1.387444
       potential(ionic) =   -1.907295

   izeta = 2
                 rmatch =    2.141150
              splitnorm =    0.620000
                 energy =    0.566467
                kinetic =    3.772856
    potential(screened) =   -3.206389
       potential(ionic) =   -3.759093

POLgen: Perturbative polarization orbital with L=  1

POLgen: Polarization orbital for state 1s

   izeta = 1
                     rc =    6.518340
                 energy =    0.533861
                kinetic =    1.121086
    potential(screened) =   -0.587225
       potential(ionic) =   -1.053027
atom: Total number of Sankey-type orbitals:  5

atm_pop: Valence configuration (for local Pseudopot. screening):
 1s( 1.00)                                                            
Vna: chval, zval:    1.00000   1.00000

Vna:  Cut-off radius for the neutral-atom potential:   6.518340

atom: _________________________________________________________________________

<basis_specs>
===============================================================================
N                    Z=   7    Mass=  14.010        Charge= 0.17977+309
Lmxo=1 Lmxkb= 3    BasisType=split      Semic=F
L=0  Nsemic=0  Cnfigmx=2
          i=1  nzeta=2  polorb=0  (2s)
            splnorm:   0.28000    
               vcte:    0.0000    
               rinn:    0.0000    
               qcoe:    0.0000    
               qyuk:    0.0000    
               qwid:   0.10000E-01
                rcs:    0.0000      0.0000    
            lambdas:    1.0000      1.0000    
L=1  Nsemic=0  Cnfigmx=2
          i=1  nzeta=2  polorb=1  (2p)
            splnorm:   0.28000    
               vcte:    0.0000    
               rinn:    0.0000    
               qcoe:    0.0000    
               qyuk:    0.0000    
               qwid:   0.10000E-01
                rcs:    0.0000      0.0000    
            lambdas:    1.0000      1.0000    
-------------------------------------------------------------------------------
L=0  Nkbl=1  erefs: 0.17977+309
L=1  Nkbl=1  erefs: 0.17977+309
L=2  Nkbl=1  erefs: 0.17977+309
L=3  Nkbl=1  erefs: 0.17977+309
===============================================================================
</basis_specs>

atom: Called for N                     (Z =   7)

read_vps: Pseudopotential generation method:
read_vps: ATM4.2.7  Troullier-Martins                       
Valence charge for ps generation:    5.00000

xc_check: Exchange-correlation functional:
xc_check: GGA Perdew, Burke & Ernzerhof 1996
V l=0 = -2*Zval/r beyond r=  1.2889
V l=1 = -2*Zval/r beyond r=  1.2889
V l=2 = -2*Zval/r beyond r=  3.4178
V l=3 = -2*Zval/r beyond r=  2.4084
All V_l potentials equal beyond r=  3.3753
This should be close to max(r_c) in ps generation
All pots = -2*Zval/r beyond r=  3.4178

VLOCAL1: 99.0% of the norm of Vloc inside      3.810 Ry
VLOCAL1: 99.9% of the norm of Vloc inside      8.683 Ry
atom: Maximum radius for 4*pi*r*r*local-pseudopot. charge    4.02088
atom: Maximum radius for r*vlocal+2*Zval:    3.54838
GHOST: No ghost state for L =  0
GHOST: No ghost state for L =  1
GHOST: No ghost state for L =  2
GHOST: No ghost state for L =  3

KBgen: Kleinman-Bylander projectors: 
   l= 0   rc=  3.417763   el= -1.365098   Ekb= -4.433130   kbcos= -0.707855
   l= 1   rc=  3.375302   el= -0.521201   Ekb=-13.264039   kbcos= -0.535594
   l= 2   rc=  3.872880   el=  0.001991   Ekb= -0.641094   kbcos= -0.062456
   l= 3   rc=  3.970931   el=  0.003093   Ekb= -0.474517   kbcos= -0.018236

KBgen: Total number of Kleinman-Bylander projectors:   16
atom: -------------------------------------------------------------------------

atom: SANKEY-TYPE ORBITALS:
atom: Selected multiple-zeta basis: split     

SPLIT: Orbitals with angular momentum L= 0

SPLIT: Basis orbitals for state 2s

SPLIT: PAO cut-off radius determined from an
SPLIT: energy shift=  0.002000 Ry

   izeta = 1
                 lambda =    1.000000
                     rc =    4.730425
                 energy =   -1.363399
                kinetic =    1.245246
    potential(screened) =   -2.608645
       potential(ionic) =   -8.121105

   izeta = 2
                 rmatch =    2.531849
              splitnorm =    0.280000
                 energy =   -0.959908
                kinetic =    2.409435
    potential(screened) =   -3.369343
       potential(ionic) =   -9.427975

SPLIT: Orbitals with angular momentum L= 1

SPLIT: Basis orbitals for state 2p

SPLIT: PAO cut-off radius determined from an
SPLIT: energy shift=  0.002000 Ry

   izeta = 1
                 lambda =    1.000000
                     rc =    5.924108
                 energy =   -0.519262
                kinetic =    3.672940
    potential(screened) =   -4.192202
       potential(ionic) =   -9.518354

   izeta = 2
                 rmatch =    2.531849
              splitnorm =    0.280000
                 energy =   -0.104258
                kinetic =    6.807538
    potential(screened) =   -6.911796
       potential(ionic) =  -13.149920

POLgen: Perturbative polarization orbital with L=  2

POLgen: Polarization orbital for state 2p

   izeta = 1
                     rc =    5.924108
                 energy =    1.427508
                kinetic =    2.872379
    potential(screened) =   -1.444871
       potential(ionic) =   -5.563644
atom: Total number of Sankey-type orbitals: 13

atm_pop: Valence configuration (for local Pseudopot. screening):
 2s( 2.00)                                                            
 2p( 3.00)                                                            
Vna: chval, zval:    5.00000   5.00000

Vna:  Cut-off radius for the neutral-atom potential:   5.924108

atom: _________________________________________________________________________

<basis_specs>
===============================================================================
Si                   Z=  14    Mass=  28.090        Charge= 0.17977+309
Lmxo=1 Lmxkb= 3    BasisType=split      Semic=F
L=0  Nsemic=0  Cnfigmx=3
          i=1  nzeta=2  polorb=0  (3s)
            splnorm:   0.28000    
               vcte:    0.0000    
               rinn:    0.0000    
               qcoe:    0.0000    
               qyuk:    0.0000    
               qwid:   0.10000E-01
                rcs:    0.0000      0.0000    
            lambdas:    1.0000      1.0000    
L=1  Nsemic=0  Cnfigmx=3
          i=1  nzeta=2  polorb=1  (3p)
            splnorm:   0.28000    
               vcte:    0.0000    
               rinn:    0.0000    
               qcoe:    0.0000    
               qyuk:    0.0000    
               qwid:   0.10000E-01
                rcs:    0.0000      0.0000    
            lambdas:    1.0000      1.0000    
-------------------------------------------------------------------------------
L=0  Nkbl=1  erefs: 0.17977+309
L=1  Nkbl=1  erefs: 0.17977+309
L=2  Nkbl=1  erefs: 0.17977+309
L=3  Nkbl=1  erefs: 0.17977+309
===============================================================================
</basis_specs>

atom: Called for Si                    (Z =  14)

read_vps: Pseudopotential generation method:
read_vps: ATM4.2.7  Troullier-Martins                       
Valence charge for ps generation:    4.00000

xc_check: Exchange-correlation functional:
xc_check: GGA Perdew, Burke & Ernzerhof 1996
V l=0 = -2*Zval/r beyond r=  2.7826
V l=1 = -2*Zval/r beyond r=  2.7826
V l=2 = -2*Zval/r beyond r=  2.9253
V l=3 = -2*Zval/r beyond r=  2.7826
All V_l potentials equal beyond r=  2.8530
This should be close to max(r_c) in ps generation
All pots = -2*Zval/r beyond r=  2.9253

VLOCAL1: 99.0% of the norm of Vloc inside      5.333 Ry
VLOCAL1: 99.9% of the norm of Vloc inside     12.154 Ry
atom: Maximum radius for 4*pi*r*r*local-pseudopot. charge    3.39869
atom: Maximum radius for r*vlocal+2*Zval:    2.96205
GHOST: No ghost state for L =  0
GHOST: No ghost state for L =  1
GHOST: No ghost state for L =  2
GHOST: No ghost state for L =  3

KBgen: Kleinman-Bylander projectors: 
   l= 0   rc=  3.075247   el= -0.794092   Ekb=  5.879390   kbcos=  0.167461
   l= 1   rc=  3.153101   el= -0.300068   Ekb=  2.642817   kbcos=  0.058301
   l= 2   rc=  3.273594   el=  0.001958   Ekb= -1.185135   kbcos= -0.104411
   l= 3   rc=  3.232927   el=  0.003046   Ekb= -0.497174   kbcos= -0.015889

KBgen: Total number of Kleinman-Bylander projectors:   16
atom: -------------------------------------------------------------------------

atom: SANKEY-TYPE ORBITALS:
atom: Selected multiple-zeta basis: split     

SPLIT: Orbitals with angular momentum L= 0

SPLIT: Basis orbitals for state 3s

SPLIT: PAO cut-off radius determined from an
SPLIT: energy shift=  0.002000 Ry

   izeta = 1
                 lambda =    1.000000
                     rc =    6.429618
                 energy =   -0.792283
                kinetic =    0.525293
    potential(screened) =   -1.317576
       potential(ionic) =   -3.744923

   izeta = 2
                 rmatch =    3.998416
              splitnorm =    0.280000
                 energy =   -0.583081
                kinetic =    1.069570
    potential(screened) =   -1.652651
       potential(ionic) =   -4.235185

SPLIT: Orbitals with angular momentum L= 1

SPLIT: Basis orbitals for state 3p

SPLIT: PAO cut-off radius determined from an
SPLIT: energy shift=  0.002000 Ry

   izeta = 1
                 lambda =    1.000000
                     rc =    8.464845
                 energy =   -0.298236
                kinetic =    0.785360
    potential(screened) =   -1.083596
       potential(ionic) =   -3.273779

   izeta = 2
                 rmatch =    4.587816
              splitnorm =    0.280000
                 energy =   -0.131871
                kinetic =    1.403687
    potential(screened) =   -1.535557
       potential(ionic) =   -4.015310

POLgen: Perturbative polarization orbital with L=  2

POLgen: Polarization orbital for state 3p

   izeta = 1
                     rc =    8.464845
                 energy =    0.321949
                kinetic =    1.055677
    potential(screened) =   -0.733728
       potential(ionic) =   -2.672950
atom: Total number of Sankey-type orbitals: 13

atm_pop: Valence configuration (for local Pseudopot. screening):
 3s( 2.00)                                                            
 3p( 2.00)                                                            
Vna: chval, zval:    4.00000   4.00000

Vna:  Cut-off radius for the neutral-atom potential:   8.464845

atom: _________________________________________________________________________

<basis_specs>
===============================================================================
O                    Z=   8    Mass=  16.000        Charge= 0.17977+309
Lmxo=1 Lmxkb= 3    BasisType=split      Semic=F
L=0  Nsemic=0  Cnfigmx=2
          i=1  nzeta=2  polorb=0  (2s)
            splnorm:   0.28000    
               vcte:    0.0000    
               rinn:    0.0000    
               qcoe:    0.0000    
               qyuk:    0.0000    
               qwid:   0.10000E-01
                rcs:    0.0000      0.0000    
            lambdas:    1.0000      1.0000    
L=1  Nsemic=0  Cnfigmx=2
          i=1  nzeta=2  polorb=1  (2p)
            splnorm:   0.28000    
               vcte:    0.0000    
               rinn:    0.0000    
               qcoe:    0.0000    
               qyuk:    0.0000    
               qwid:   0.10000E-01
                rcs:    0.0000      0.0000    
            lambdas:    1.0000      1.0000    
-------------------------------------------------------------------------------
L=0  Nkbl=1  erefs: 0.17977+309
L=1  Nkbl=1  erefs: 0.17977+309
L=2  Nkbl=1  erefs: 0.17977+309
L=3  Nkbl=1  erefs: 0.17977+309
===============================================================================
</basis_specs>

atom: Called for O                     (Z =   8)

read_vps: Pseudopotential generation method:
read_vps: ATM4.2.7  Troullier-Martins                       
Valence charge for ps generation:    6.00000

xc_check: Exchange-correlation functional:
xc_check: GGA Perdew, Burke & Ernzerhof 1996
V l=0 = -2*Zval/r beyond r=  1.1000
V l=1 = -2*Zval/r beyond r=  1.1000
V l=2 = -2*Zval/r beyond r=  2.2154
V l=3 = -2*Zval/r beyond r=  1.1000
All V_l potentials equal beyond r=  2.2154
This should be close to max(r_c) in ps generation
All pots = -2*Zval/r beyond r=  2.2154

VLOCAL1: 99.0% of the norm of Vloc inside      8.845 Ry
VLOCAL1: 99.9% of the norm of Vloc inside     20.157 Ry
atom: Maximum radius for 4*pi*r*r*local-pseudopot. charge    2.67231
atom: Maximum radius for r*vlocal+2*Zval:    2.32897
GHOST: No ghost state for L =  0
GHOST: No ghost state for L =  1
GHOST: No ghost state for L =  2
GHOST: No ghost state for L =  3

KBgen: Kleinman-Bylander projectors: 
   l= 0   rc=  2.243238   el= -1.759686   Ekb=**********   kbcos= -0.171774
   l= 1   rc=  2.328968   el= -0.663873   Ekb=-14.506792   kbcos= -0.519897
   l= 2   rc=  2.573941   el=  0.002031   Ekb= -1.137373   kbcos= -0.019581
   l= 3   rc=  2.606321   el=  0.003153   Ekb= -1.013546   kbcos= -0.003122

KBgen: Total number of Kleinman-Bylander projectors:   16
atom: -------------------------------------------------------------------------

atom: SANKEY-TYPE ORBITALS:
atom: Selected multiple-zeta basis: split     

SPLIT: Orbitals with angular momentum L= 0

SPLIT: Basis orbitals for state 2s

SPLIT: PAO cut-off radius determined from an
SPLIT: energy shift=  0.002000 Ry

   izeta = 1
                 lambda =    1.000000
                     rc =    4.243912
                 energy =   -1.758270
                kinetic =    3.286084
    potential(screened) =   -5.044353
       potential(ionic) =  -12.921184

   izeta = 2
                 rmatch =    2.187845
              splitnorm =    0.280000
                 energy =   -0.885018
                kinetic =    8.134434
    potential(screened) =   -9.019452
       potential(ionic) =  -17.710645

SPLIT: Orbitals with angular momentum L= 1

SPLIT: Basis orbitals for state 2p

SPLIT: PAO cut-off radius determined from an
SPLIT: energy shift=  0.002000 Ry

   izeta = 1
                 lambda =    1.000000
                     rc =    5.314825
                 energy =   -0.661986
                kinetic =    4.917472
    potential(screened) =   -5.579458
       potential(ionic) =  -13.236259

   izeta = 2
                 rmatch =    2.160663
              splitnorm =    0.280000
                 energy =   -0.068760
                kinetic =    9.183374
    potential(screened) =   -9.252135
       potential(ionic) =  -18.274251

POLgen: Perturbative polarization orbital with L=  2

POLgen: Polarization orbital for state 2p

   izeta = 1
                     rc =    5.314825
                 energy =    1.970580
                kinetic =    3.886128
    potential(screened) =   -1.915547
       potential(ionic) =   -7.749584
atom: Total number of Sankey-type orbitals: 13

atm_pop: Valence configuration (for local Pseudopot. screening):
 2s( 2.00)                                                            
 2p( 4.00)                                                            
Vna: chval, zval:    6.00000   6.00000

Vna:  Cut-off radius for the neutral-atom potential:   5.314825

atom: _________________________________________________________________________

prinput: Basis input ----------------------------------------------------------

PAO.BasisType split     

%block ChemicalSpeciesLabel
    1    1 H                       # Species index, atomic number, species label
    2    7 N                       # Species index, atomic number, species label
    3   14 Si                      # Species index, atomic number, species label
    4    8 O                       # Species index, atomic number, species label
%endblock ChemicalSpeciesLabel

%block PAO.Basis                 # Define Basis set
H                     1                    # Species label, number of l-shells
 n=1   0   2 P   1                   # n, l, Nzeta, Polarization, NzetaPol
   6.518      2.141   
   1.000      1.000   
N                     2                    # Species label, number of l-shells
 n=2   0   2                         # n, l, Nzeta 
   4.730      2.532   
   1.000      1.000   
 n=2   1   2 P   1                   # n, l, Nzeta, Polarization, NzetaPol
   5.924      2.532   
   1.000      1.000   
Si                    2                    # Species label, number of l-shells
 n=3   0   2                         # n, l, Nzeta 
   6.430      3.998   
   1.000      1.000   
 n=3   1   2 P   1                   # n, l, Nzeta, Polarization, NzetaPol
   8.465      4.588   
   1.000      1.000   
O                     2                    # Species label, number of l-shells
 n=2   0   2                         # n, l, Nzeta 
   4.244      2.188   
   1.000      1.000   
 n=2   1   2 P   1                   # n, l, Nzeta, Polarization, NzetaPol
   5.315      2.161   
   1.000      1.000   
%endblock PAO.Basis

prinput: ----------------------------------------------------------------------

Dumping basis to NetCDF file H.ion.nc
Dumping basis to NetCDF file N.ion.nc
Dumping basis to NetCDF file Si.ion.nc
Dumping basis to NetCDF file O.ion.nc
coor:   Atomic-coordinates input format  =     Cartesian coordinates
coor:                                          (in Angstroms)

siesta: Atomic coordinates (Bohr) and species
siesta:      4.31792  -9.81768   0.00000  1        1
siesta:      2.59711  -8.81503   0.00000  2        2
siesta:     -0.41253 -10.38326   0.00000  3        3
siesta:     -0.33040 -13.20006   0.00000  1        4
siesta:     -3.14019  -8.66630   0.00000  2        5
siesta:     -2.06030  -5.43214   0.00000  3        6
siesta:     -2.89201  -1.33728   0.00000  3        7
siesta:     -5.94160  -0.17360   0.00000  2        8
siesta:     -6.43014   1.81127   0.00000  1        9
siesta:     -7.46581  -1.44982   0.00000  1       10
siesta:     -0.33706   0.78140   0.00000  2       11
siesta:      2.82552  -0.08957   0.00000  3       12
siesta:      4.64124   2.09244   0.00000  1       13
siesta:      4.35491  -2.99662   0.00000  2       14
siesta:      2.09241  -5.37836   0.00000  3       15
siesta:      1.31808  12.53654   0.00000  1       16
siesta:     -0.21016  11.22846   0.00000  2       17
siesta:     -3.34066  12.57606   0.00000  3       18
siesta:     -3.15761  15.43092   0.00000  1       19
siesta:     -6.60263  10.03807   0.00000  3       20
siesta:    -11.05190  10.02297   0.00000  3       21
siesta:    -12.11472  11.41096  -2.27113  1       22
siesta:    -11.61847   7.22790  -0.16286  1       23
siesta:    -12.11493  11.09035   2.43425  1       24
siesta:     -4.84633   6.12525   0.00000  3       25
siesta:     -6.64057   3.69027   0.00000  4       26
siesta:     -1.46193   5.79694   0.00000  2       27
siesta:     -0.83645   3.84607   0.00000  1       28
siesta:      1.01069   8.05431   0.00000  3       29
siesta:      3.96989   7.54928   0.00000  4       30

siesta: Automatic unit cell vectors (Ang):
siesta:   17.932658    0.000000    0.000000
siesta:    0.000000   24.254525    0.000000
siesta:    0.000000    0.000000   10.327559

siesta: System type = molecule  

initatomlists: Number of atoms, orbitals, and projectors:     30   302   403

siesta: ******************** Simulation parameters ****************************
siesta:
siesta: The following are some of the parameters of the simulation.
siesta: A complete list of the parameters used, including default values,
siesta: can be found in file out.fdf
siesta:
redata: Spin configuration                          = spin-orbit
redata: Number of spin components                   = 8
redata: Time-Reversal Symmetry                      = F
redata: Spin spiral                                 = F
############################################################
This spin-orbit implementation uses a local approximation.
From 4.2 and onwards the full non-local approximation is implemented
You are strongly advised to use >=4.2 versions!
############################################################
redata: Long output                                 =   F
redata: Number of Atomic Species                    =        4
redata: Charge density info will appear in .RHO file
redata: Write Mulliken Pop.                         = NO
redata: Matel table size (NRTAB)                    =     1024
redata: Mesh Cutoff                                 =   340.0000 Ry
redata: Net charge of the system                    =     0.0000 |e|
redata: Min. number of SCF Iter                     =        1
redata: Max. number of SCF Iter                     =      300
redata: SCF convergence failure will abort job
redata: SCF mix quantity                            = Hamiltonian
redata: Mix DM or H after convergence               =   F
redata: Recompute H after scf cycle                 =   F
redata: Mix DM in first SCF step                    =   T
redata: Write Pulay info on disk                    =   F
redata: New DM Occupancy tolerance                  = 0.000000000001
redata: No kicks to SCF
redata: DM Mixing Weight for Kicks                  =     0.5000
redata: Require Harris convergence for SCF          =   F
redata: Harris energy tolerance for SCF             =     0.000100 eV
redata: Require DM convergence for SCF              =   T
redata: DM tolerance for SCF                        =     0.000008
redata: Require EDM convergence for SCF             =   F
redata: EDM tolerance for SCF                       =     0.001000 eV
redata: Require H convergence for SCF               =   T
redata: Hamiltonian tolerance for SCF               =     0.000001 eV
redata: Require (free) Energy convergence for SCF   =   F
redata: (free) Energy tolerance for SCF             =     0.000100 eV
redata: Using Saved Data (generic)                  =   F
redata: Use continuation files for DM               =   T
redata: Neglect nonoverlap interactions             =   F
redata: Method of Calculation                       = Diagonalization
redata: Electronic Temperature                      =   299.9978 K
redata: Fix the spin of the system                  =   F
redata: Dynamics option                             = Verlet MD run
redata: Initial MD time step                        =        1
redata:   Final MD time step                        =        1
redata: Length of MD time step                      =     0.5000 fs
redata: Initial Temperature of MD run               =     0.0000 K
redata: Perform a MD quench                         =   F
mix.SCF: Pulay mixing                            = Pulay
mix.SCF:    Variant                              = stable
mix.SCF:    History steps                        = 6
mix.SCF:    Linear mixing weight                 =     0.250000
mix.SCF:    Mixing weight                        =     0.250000
mix.SCF:    SVD condition                        = 0.1000E-07
mix.SCF:    Restart steps                        = 24
mix.SCF:    Restart save steps                   = 3
mix.SCF: Spin-component mixing                   all
redata: Save all siesta data in one NC              =   F
redata: ***********************************************************************

%block SCF.Mixers
  Pulay
%endblock SCF.Mixers

%block SCF.Mixer.Pulay
  # Mixing method
  method pulay
  variant stable

  # Mixing options
  weight 0.2500
  weight.linear 0.2500
  history 6
  restart 24
  restart.save 3
%endblock SCF.Mixer.Pulay

Size of DM history Fstack: 3
Total number of electrons:    98.000000
Total ionic charge:    98.000000

* ProcessorY, Blocksize:    4   9


* Orbital distribution balance (max,min):    18     9


Time-reversal symmetry not used.

siesta: k-grid: Number of k-points =     1
siesta: k-grid: Cutoff (effective) =     5.164 Ang
siesta: k-grid: Supercell and displacements
siesta: k-grid:    1   0   0      0.000
siesta: k-grid:    0   1   0      0.000
siesta: k-grid:    0   0   1      0.000

diag: Algorithm                                     = ELPA-1stage
diag: Parallel over k                               =   F
diag: Use parallel 2D distribution                  =   T
diag: Parallel block-size                           = 9
diag: Parallel distribution                         =     4 x     8
diag: Used triangular part                          = Lower
diag: Absolute tolerance                            =  0.100E-15
diag: Orthogonalization factor                      =  0.100E-05
diag: Memory factor                                 =  1.0000


ts: **************************************************************
ts: Save H and S matrices                           =    F
ts: Save DM and EDM matrices                        =    F
ts: Only save the overlap matrix S                  =    F
ts: **************************************************************

************************ Begin: TS CHECKS AND WARNINGS ************************
************************ End: TS CHECKS AND WARNINGS **************************


                     ====================================
                        Begin MD step =      1
                     ====================================

outcoor: Atomic coordinates (Ang):                          
    2.28494382   -5.19529124    0.00000000   1       1  H
    1.37433094   -4.66471070    0.00000000   2       2  N
   -0.21830245   -5.49458215    0.00000000   3       3  Si
   -0.17484108   -6.98516892    0.00000000   1       4  H
   -1.66171682   -4.58600741    0.00000000   2       5  N
   -1.09026419   -2.87456374    0.00000000   3       6  Si
   -1.53038332   -0.70765692    0.00000000   3       7  Si
   -3.14415959   -0.09186471    0.00000000   2       8  N
   -3.40268075    0.95848335    0.00000000   1       9  H
   -3.95073599   -0.76720972    0.00000000   1      10  H
   -0.17836637    0.41349951    0.00000000   2      11  N
    1.49520211   -0.04739960    0.00000000   3      12  Si
    2.45603905    1.10727302    0.00000000   1      13  H
    2.30451743   -1.58574382    0.00000000   2      14  N
    1.10725559   -2.84610319    0.00000000   3      15  Si
    0.69749952    6.63404798    0.00000000   1      16  H
   -0.11121116    5.94184210    0.00000000   2      17  N
   -1.76780100    6.65496220    0.00000000   3      18  Si
   -1.67093583    8.16568741    0.00000000   1      19  H
   -3.49395735    5.31191407    0.00000000   3      20  Si
   -5.84841160    5.30392714    0.00000000   3      21  Si
   -6.41082972    6.03841679   -1.20183078   1      22  H
   -6.14822535    3.82483601   -0.08618332   1      23  H
   -6.41094218    5.86875960    1.28814761   1      24  H
   -2.56456671    3.24134284    0.00000000   3      25  Si
   -3.51403507    1.95280671    0.00000000   4      26  O
   -0.77362184    3.06760737    0.00000000   2      27  N
   -0.44263048    2.03525039    0.00000000   1      28  H
    0.53483638    4.26215379    0.00000000   3      29  Si
    2.10077331    3.99490694    0.00000000   4      30  O

outcell: Unit cell vectors (Ang):
       17.932658    0.000000    0.000000
        0.000000   24.254525    0.000000
        0.000000    0.000000   10.327559

outcell: Cell vector modules (Ang)   :   17.932658   24.254525   10.327559
outcell: Cell angles (23,13,12) (deg):     90.0000     90.0000     90.0000
outcell: Cell volume (Ang**3)        :   4491.9522
<dSpData1D:S at geom step 1
  <sparsity:sparsity for geom step 1
    nrows_g=302 nrows=18 sparsity=.0396 nnzs=3614, refcount: 8>
  <dData1D:(new from dSpData1D) n=3614, refcount: 1>
refcount: 1>
new_DM -- step:     1
Initializing Density Matrix...

Attempting to read DM from file... Failed...
DM filled with atomic data:
<dSpData2D:DM initialized from atoms
  <sparsity:sparsity for geom step 1
    nrows_g=302 nrows=18 sparsity=.0396 nnzs=3614, refcount: 9>
  <dData2D:DM n=3614 m=8, refcount: 1>
refcount: 1>
     spin moment: S , {S} =   56.00000   0.00000   0.00000  56.00000
No. of atoms with KB's overlaping orbs in proc 0. Max # of overlaps:      25     205

Initializing spin-orbit part of the Hamiltonian
  Adding spin-orbit effects for H 
  Adding spin-orbit effects for N 
  Adding spin-orbit effects for Si
  Adding spin-orbit effects for O 


New grid distribution:   1
           1       1:  100    1:   34    1:    8
           2       1:  100    1:   34    9:   16
           3       1:  100    1:   34   17:   24
           4       1:  100    1:   34   25:   32
           5       1:  100    1:   34   33:   39
           6       1:  100    1:   34   40:   46
           7       1:  100    1:   34   47:   53
           8       1:  100    1:   34   54:   60
           9       1:  100   35:   68    1:    8
          10       1:  100   35:   68    9:   16
          11       1:  100   35:   68   17:   24
          12       1:  100   35:   68   25:   32
          13       1:  100   35:   68   33:   39
          14       1:  100   35:   68   40:   46
          15       1:  100   35:   68   47:   53
          16       1:  100   35:   68   54:   60
          17       1:  100   69:  102    1:    8
          18       1:  100   69:  102    9:   16
          19       1:  100   69:  102   17:   24
          20       1:  100   69:  102   25:   32
          21       1:  100   69:  102   33:   39
          22       1:  100   69:  102   40:   46
          23       1:  100   69:  102   47:   53
          24       1:  100   69:  102   54:   60
          25       1:  100  103:  135    1:    8
          26       1:  100  103:  135    9:   16
          27       1:  100  103:  135   17:   24
          28       1:  100  103:  135   25:   32
          29       1:  100  103:  135   33:   39
          30       1:  100  103:  135   40:   46
          31       1:  100  103:  135   47:   53
          32       1:  100  103:  135   54:   60

InitMesh: MESH =   200 x   270 x   120 =     6480000
InitMesh: (bp) =   100 x   135 x    60 =      810000
InitMesh: Mesh cutoff (required, used) =   340.000   342.487 Ry
ExtMesh (bp) on 0 =   200 x   134 x   116 =     3108800
New grid distribution:   2
           1      13:   81    1:   17    1:   18
           2      55:   81   18:   33    1:   21
           3       1:   12    1:   17    1:   18
           4      13:   81    1:   17   19:   60
           5       1:   57   18:   33   22:   60
           6       1:   54   18:   33    1:   21
           7       1:   12    1:   17   19:   60
           8      92:  100    1:   15   19:   60
           9      77:   91   34:  114    1:   20
          10      82:   91   16:   33   21:   60
          11      82:   91   16:   33    1:   20
          12      11:   76   34:  115   21:   60
          13      77:   91   34:  114   21:   60
          14      58:   81   18:   33   22:   60
          15      92:  100   16:   33   21:   60
          16       1:    9  116:  135    1:   20
          17      11:   76   34:  115    1:   20
          18       1:   10   34:  115    1:   20
          19      82:   91    1:   15   19:   60
          20      92:  100   16:   33    1:   20
          21       1:   10   34:  115   21:   60
          22      92:  100   34:  114    1:   20
          23      77:   91  115:  135    1:   20
          24      82:   91    1:   15    1:   18
          25      10:   76  116:  135    1:   20
          26      92:  100  115:  135    1:   20
          27      93:  100  115:  135   21:   60
          28      10:   76  116:  135   21:   60
          29      92:  100   34:  114   21:   60
          30      77:   92  115:  135   21:   60
          31       1:    9  116:  135   21:   60
          32      92:  100    1:   15    1:   18
New grid distribution:   3
           1      18:   63    1:   23    1:   25
           2       1:   17    1:   23   26:   60
           3      64:   83    1:   23    1:   25
           4      18:   63    1:   23   26:   60
           5      16:   69  111:  135    1:   25
           6      22:   63   24:   44    1:   25
           7       1:   21   24:   44   26:   60
           8      64:   82   24:   44    1:   26
           9      13:   69   45:  110    1:   24
          10      84:  100    1:   23   26:   60
          11       1:   21   24:   44    1:   25
          12      90:  100   45:  106   25:   60
          13      22:   63   24:   44   26:   60
          14      64:   83    1:   23   26:   60
          15      82:  100   24:   44   27:   60
          16      83:  100   24:   44    1:   26
          17       1:   12   45:  110    1:   24
          18       1:   15  111:  135   26:   60
          19      84:  100    1:   23    1:   25
          20      13:   69   45:  110   25:   60
          21      70:   89   45:  106   25:   60
          22       1:   12   45:  110   25:   60
          23      64:   81   24:   44   27:   60
          24       1:   17    1:   23    1:   25
          25      90:  100   45:  106    1:   24
          26      70:   86  107:  135    1:   25
          27      87:  100  107:  135    1:   25
          28      16:   69  111:  135   26:   60
          29      70:   89   45:  106    1:   24
          30      70:   87  107:  135   26:   60
          31      88:  100  107:  135   26:   60
          32       1:   15  111:  135    1:   25
Setting up quadratic distribution...
ExtMesh (bp) on 0 =   169 x   117 x   126 =     2491398
PhiOnMesh: Number of (b)points on node 0 =                21114
PhiOnMesh: nlist on node 0 =               368073

stepf: Fermi-Dirac step function

siesta: Program's energy decomposition (eV):
siesta: Ebs     =      -620.013920
siesta: Eions   =      3553.971015
siesta: Ena     =       378.733175
siesta: Ekin    =      3189.977205
siesta: Enl     =     -3003.833353
siesta: Eso     =        -0.003957
siesta: Edftu   =         0.000000
siesta: DEna    =       132.138990
siesta: DUscf   =        75.529503
siesta: DUext   =         0.000000
siesta: Exc     =     -1173.260987
siesta: eta*DQ  =         0.000000
siesta: Emadel  =         0.000000
siesta: Emeta   =         0.000000
siesta: Emolmec =         0.000000
siesta: Ekinion =         0.000000
siesta: Eharris =     -3876.675870
siesta: Etot    =     -3954.690439
siesta: FreeEng =     -3954.695021

        iscf     Eharris(eV)        E_KS(eV)     FreeEng(eV)     dDmax    Ef(eV) dHmax(eV)
   scf:    1    -3876.675870    -3954.690439    -3954.695021  0.966849 -4.963856 22.540161
     spin moment: S , {S} =    2.03531  -0.00000  -0.00000   2.03531
timer: Routine,Calls,Time,% = IterSCF        1       3.678   8.73
   scf:    2    -4000.275549    -3989.613266    -3989.613267  0.447285 -4.326152  9.635131
     spin moment: S , {S} =    2.00011   0.00000  -0.00000   2.00011
   scf:    3    -3992.810326    -3994.295505    -3994.296505  0.420568 -4.146110  5.881572
     spin moment: S , {S} =    0.00571  -0.00000   0.00000   0.00571
   scf:    4    -3996.797573    -3995.687656    -3995.687663  0.026019 -3.816278  4.125187
     spin moment: S , {S} =    0.00012  -0.00000   0.00000   0.00012
   scf:    5    -3997.369241    -3996.577914    -3996.580744  0.033452 -3.797147  2.141115
     spin moment: S , {S} =    0.01950  -0.00000   0.00000   0.01950
   scf:    6    -3996.946742    -3996.832710    -3996.847524  0.052096 -3.819341  1.128100
     spin moment: S , {S} =    0.16610  -0.00000  -0.00000   0.16610
   scf:    7    -3997.121518    -3997.016438    -3997.016638  0.043121 -3.857106  0.514325
     spin moment: S , {S} =    0.00073  -0.00000   0.00000   0.00073
   scf:    8    -3997.100727    -3997.057712    -3997.058003  0.010453 -3.888217  0.279810
     spin moment: S , {S} =    0.00008  -0.00000   0.00000  -0.00008
   scf:    9    -3997.091172    -3997.074247    -3997.074776  0.006287 -3.897071  0.138492
     spin moment: S , {S} =    0.00085  -0.00000   0.00000  -0.00085
   scf:   10    -3997.101223    -3997.086899    -3997.087436  0.006905 -3.907396  0.089744
     spin moment: S , {S} =    0.00079  -0.00000   0.00000  -0.00079
   scf:   11    -3997.103819    -3997.094463    -3997.094995  0.007545 -3.908048  0.053851
     spin moment: S , {S} =    0.00045  -0.00000  -0.00000  -0.00045
   scf:   12    -3997.101057    -3997.097233    -3997.097761  0.006303 -3.906255  0.029719
     spin moment: S , {S} =    0.00021  -0.00000  -0.00000  -0.00021
   scf:   13    -3997.098147    -3997.097640    -3997.098167  0.002390 -3.905062  0.019516
     spin moment: S , {S} =    0.00013  -0.00000  -0.00000  -0.00013
   scf:   14    -3997.098075    -3997.097832    -3997.098356  0.002008 -3.904324  0.013990
     spin moment: S , {S} =    0.00008  -0.00000  -0.00000  -0.00008
   scf:   15    -3997.098007    -3997.097910    -3997.098433  0.001370 -3.904056  0.008933
     spin moment: S , {S} =    0.00006  -0.00000  -0.00000  -0.00006
   scf:   16    -3997.097993    -3997.097945    -3997.098468  0.001129 -3.904082  0.004735
     spin moment: S , {S} =    0.00003  -0.00000  -0.00000  -0.00003
   scf:   17    -3997.097969    -3997.097955    -3997.098478  0.000628 -3.904120  0.002592
     spin moment: S , {S} =    0.00002  -0.00000  -0.00000  -0.00002
   scf:   18    -3997.097961    -3997.097958    -3997.098480  0.000351 -3.904125  0.001173
     spin moment: S , {S} =    0.00001  -0.00000  -0.00000  -0.00001
   scf:   19    -3997.097960    -3997.097959    -3997.098481  0.000166 -3.904128  0.000681
     spin moment: S , {S} =    0.00000  -0.00000  -0.00000  -0.00000
   scf:   20    -3997.097959    -3997.097959    -3997.098482  0.000069 -3.904122  0.000577
     spin moment: S , {S} =    0.00000  -0.00000  -0.00000  -0.00000
   scf:   21    -3997.097959    -3997.097959    -3997.098482  0.000044 -3.904117  0.000394
     spin moment: S , {S} =    0.00000   0.00000  -0.00000  -0.00000
   scf:   22    -3997.097959    -3997.097959    -3997.098482  0.000034 -3.904114  0.000230
     spin moment: S , {S} =    0.00000   0.00000  -0.00000  -0.00000
   scf:   23    -3997.097959    -3997.097959    -3997.098482  0.000023 -3.904116  0.000119
     spin moment: S , {S} =    0.00000   0.00000   0.00000  -0.00000
   scf:   24    -3997.097959    -3997.097959    -3997.098482  0.000009 -3.904119  0.000081
     spin moment: S , {S} =    0.00000   0.00000   0.00000  -0.00000
mix: Pulay -- resetting history
   scf:   25    -3997.097959    -3997.097959    -3997.098482  0.000006 -3.904121  0.000046
     spin moment: S , {S} =    0.00000   0.00000   0.00000  -0.00000
   scf:   26    -3997.097959    -3997.097959    -3997.098482  0.000003 -3.904122  0.000031
     spin moment: S , {S} =    0.00000   0.00000   0.00000  -0.00000
   scf:   27    -3997.097959    -3997.097959    -3997.098482  0.000005 -3.904122  0.000009
     spin moment: S , {S} =    0.00000   0.00000   0.00000  -0.00000
   scf:   28    -3997.097959    -3997.097959    -3997.098482  0.000001 -3.904121  0.000005
     spin moment: S , {S} =    0.00000   0.00000  -0.00000   0.00000
   scf:   29    -3997.097959    -3997.097959    -3997.098482  0.000000 -3.904121  0.000003
     spin moment: S , {S} =    0.00000  -0.00000   0.00000   0.00000
   scf:   30    -3997.097959    -3997.097959    -3997.098482  0.000000 -3.904121  0.000002
     spin moment: S , {S} =    0.00000  -0.00000   0.00000   0.00000
   scf:   31    -3997.097959    -3997.097959    -3997.098482  0.000000 -3.904121  0.000001
     spin moment: S , {S} =    0.00000   0.00000  -0.00000   0.00000
   scf:   32    -3997.097959    -3997.097959    -3997.098482  0.000000 -3.904121  0.000001
     spin moment: S , {S} =    0.00000   0.00000   0.00000   0.00000

SCF Convergence by DM+H criterion
max |DM_out - DM_in|         :     0.0000000835
max |H_out - H_in|      (eV) :     0.0000007763
SCF cycle converged after 32 iterations

Using DM_out to compute the final energy and forces
No. of atoms with KB's overlaping orbs in proc 0. Max # of overlaps:      25     205

siesta: E_KS(eV) =            -3997.0980

siesta: E_KS - E_eggbox =     -3997.0980
     spin moment: S , {S} =    0.00000   0.00000   0.00000   0.00000

siesta: Atomic forces (eV/Ang):
     1    0.158158   -0.059184   -0.000006
     2    0.054353   -0.029170   -0.000020
     3    0.039312    0.011351   -0.000006
     4    0.027865   -0.205085    0.000006
     5   -0.032907    0.012114   -0.000037
     6    0.176474   -0.027620    0.000018
     7   -1.099395   -0.377857   -0.000108
     8    1.864444   -7.598791    0.000409
     9    0.185412   -3.019489   -0.000139
    10    0.111047   -0.550270   -0.000137
    11    0.291285   -0.467110    0.000020
    12    0.336227   -0.112840    0.000002
    13   -0.194584   -0.003356    0.000007
    14   -0.035375    0.129459   -0.000018
    15   -0.064149   -0.142763    0.000084
    16   -0.021155    0.055406   -0.000894
    17    0.049467    0.082861   -0.000735
    18    0.116025    0.020458    0.005108
    19   -0.028073   -0.107026   -0.001282
    20   -0.079987   -0.152480   -0.001124
    21    0.040233    0.048828   -0.004012
    22    0.066802   -0.043765    0.104299
    23    0.006216    0.065436   -0.017157
    24    0.061028    0.007886   -0.085754
    25    0.763521    1.152401    0.000537
    26    1.577171   14.307319    0.000150
    27   -0.749525    1.574436   -0.000441
    28    0.234302   -1.073029   -0.000089
    29   -0.324794   -0.027876   -0.000093
    30   -1.867016   -1.026996    0.000167
----------------------------------------
   Tot    1.662379    2.443245   -0.001244
----------------------------------------
   Max   14.307319
   Res    1.797382    sqrt( Sum f_i^2 / 3N )
----------------------------------------
   Max   14.307319    constrained

Stress tensor Voigt[x,y,z,yz,xz,xy] (kbar):        0.63       -9.00       -0.03       -0.02        0.00        1.72
(Free)E + p*V (eV/cell)    -3989.2507
Target enthalpy (eV/cell)    -3997.0985

siesta: Stress tensor (static) (eV/Ang**3):
         0.000394    0.001077    0.000001
         0.001077   -0.005616   -0.000012
         0.000001   -0.000012   -0.000018

siesta: Pressure (static):          2.79914324  kBar

siesta: Stress tensor (total) (eV/Ang**3):
         0.000394    0.001077    0.000001
         0.001077   -0.005616   -0.000012
         0.000001   -0.000012   -0.000018

siesta: Pressure (total):          2.79914324  kBar

siesta: Temp_ion =       0.000 K

siesta: Eigenvalues (eV):
ik =     1
  -24.9788  -24.9788  -22.8690  -22.8690  -21.7822  -21.7822  -21.1619  -21.1619  -20.9884  -20.9884
  -19.8440  -19.8440  -19.4359  -19.4359  -19.2258  -19.2258  -18.8455  -18.8455  -15.3013  -15.3013
  -14.3536  -14.3536  -14.2535  -14.2535  -13.5272  -13.5272  -13.4709  -13.4709  -12.8449  -12.8449
  -12.6478  -12.6478  -12.3142  -12.3142  -11.9739  -11.9739  -11.8024  -11.8024  -11.3817  -11.3817
  -10.8267  -10.8267  -10.6649  -10.6649  -10.1533  -10.1533   -9.5750   -9.5750   -9.4628   -9.4628
   -9.3396   -9.3396   -9.1259   -9.1259   -8.9157   -8.9157   -8.8568   -8.8568   -8.7385   -8.7385
   -8.6424   -8.6424   -8.6335   -8.6335   -8.4423   -8.4423   -8.2575   -8.2575   -8.1153   -8.1153
   -7.8875   -7.8875   -7.7065   -7.7065   -7.4446   -7.4446   -7.3903   -7.3903   -7.0765   -7.0765
   -6.8760   -6.8760   -6.6221   -6.6221   -6.5014   -6.5014   -6.2364   -6.2364   -6.1541   -6.1541
   -5.9543   -5.9543   -5.5376   -5.5376   -5.4308   -5.4308   -4.0959   -4.0959   -3.7124   -3.7124
   -2.8545   -2.8545   -2.4666   -2.4666   -2.4460   -2.4460   -2.1600   -2.1600   -2.1187   -2.1187
   -1.9102   -1.9102   -1.8286   -1.8286   -1.7666   -1.7666   -1.4752   -1.4752   -1.3916   -1.3916
   -1.2051   -1.2051   -0.4959   -0.4959   -0.3157   -0.3157   -0.2400   -0.2400   -0.1940   -0.1940
   -0.1469   -0.1469   -0.1286   -0.1286    0.0847    0.0847    0.5149    0.5149    0.6142    0.6142
    0.6898    0.6898    0.9455    0.9455    1.2538    1.2538    1.3109    1.3109    1.4200    1.4200
    1.6236    1.6236    1.7189    1.7189    2.1021    2.1021    2.3054    2.3054    2.3535    2.3535
    2.4931    2.4931    2.5364    2.5364    2.8265    2.8265    2.9615    2.9615    3.1008    3.1008
    3.1174    3.1174    3.1985    3.1985    3.2904    3.2904    3.4788    3.4788    3.6492    3.6492
    4.0042    4.0042    4.2024    4.2024    4.2232    4.2232    4.4256    4.4256    4.5537    4.5537
    4.7909    4.7909    5.0194    5.0194    5.1047    5.1047    5.1112    5.1112    5.2055    5.2055
    5.3823    5.3823    5.5121    5.5121    5.7719    5.7719    5.8204    5.8204    5.9763    5.9763
    6.2152    6.2152    6.2427    6.2427    6.5184    6.5184    6.6829    6.6829    6.8249    6.8249
    6.9493    6.9493    7.0823    7.0823    7.1811    7.1811    7.4118    7.4118    7.4257    7.4257
    7.6210    7.6210    7.7910    7.7910    7.8071    7.8071    8.0995    8.0995    8.2765    8.2765
    8.4170    8.4170    8.4392    8.4392    8.6390    8.6390    8.7627    8.7627    9.0761    9.0761
    9.2575    9.2575    9.3262    9.3262    9.5168    9.5168    9.6324    9.6324    9.7325    9.7325
    9.8340    9.8340   10.0218   10.0218   10.3456   10.3456   10.3731   10.3731   10.5456   10.5456
   10.7480   10.7480   11.3341   11.3341   11.4404   11.4404   11.5292   11.5292   11.6047   11.6047
   11.6300   11.6300   11.8056   11.8056   11.9177   11.9177   12.0285   12.0285   12.3688   12.3688
   12.4699   12.4699   12.6235   12.6235   13.0619   13.0619   13.2107   13.2107   13.2904   13.2904
   13.6167   13.6167   13.7736   13.7736   13.8453   13.8453   14.0601   14.0601   14.4957   14.4957
   14.6696   14.6696   14.9320   14.9320   15.1258   15.1258   15.2082   15.2082   15.5662   15.5662
   15.9722   15.9722   16.2373   16.2373   16.3425   16.3425   16.4343   16.4343   16.8572   16.8572
   17.1713   17.1713   17.3027   17.3027   17.5580   17.5580   17.8568   17.8568   18.1239   18.1239
   18.7174   18.7174   18.7861   18.7861   18.8192   18.8192   18.9425   18.9425   19.2040   19.2040
   19.3973   19.3973   19.9923   19.9923   20.5214   20.5214   20.7331   20.7331   21.1386   21.1386
   21.5458   21.5458   22.0945   22.0945   22.3168   22.3168   22.6661   22.6661   23.0455   23.0455
   23.1583   23.1583   23.3371   23.3371   24.0049   24.0049   24.4843   24.4843   24.7955   24.7955
   24.9347   24.9347   25.2352   25.2352   25.7662   25.7662   26.0711   26.0711   26.5945   26.5945
   27.1404   27.1404   27.2252   27.2252   27.7009   27.7009   28.2371   28.2371   28.9461   28.9461
   29.3565   29.3565   29.9987   29.9987   30.9068   30.9068   30.9313   30.9313   31.3327   31.3327
   31.3581   31.3581   31.4937   31.4937   31.9814   31.9814   32.0622   32.0622   32.6143   32.6143
   33.4779   33.4779   33.7458   33.7458   34.1239   34.1239   34.7857   34.7857   35.1623   35.1623
   35.6667   35.6667   36.1339   36.1339   36.7314   36.7314   37.1075   37.1075   37.2257   37.2257
   37.6454   37.6454   38.6118   38.6118   39.0092   39.0092   39.3474   39.3474   39.4243   39.4243
   40.3069   40.3069   40.3772   40.3772   40.5672   40.5672   41.6118   41.6118   41.8476   41.8476
   42.5117   42.5117   43.0674   43.0674   43.2065   43.2065   43.4256   43.4256   43.8656   43.8656
   44.1355   44.1355   44.5115   44.5115   44.7617   44.7617   44.8411   44.8411   45.5319   45.5319
   45.6434   45.6434   46.3138   46.3138   46.7401   46.7401   47.1090   47.1090   47.6886   47.6886
   47.9370   47.9370   48.1612   48.1612   48.9180   48.9180   49.3126   49.3126   49.8051   49.8051
   49.9306   49.9306   50.0949   50.0949   50.4426   50.4426   50.5045   50.5045   51.1291   51.1291
   51.4176   51.4176   52.1190   52.1190   53.4649   53.4649   54.3964   54.3964   55.0134   55.0134
   55.2109   55.2109   56.5142   56.5142   56.7770   56.7770   56.8768   56.8768   57.3710   57.3710
   57.9274   57.9274   58.5271   58.5271   59.1770   59.1770   59.6663   59.6663   60.5183   60.5183
   61.3375   61.3375   62.1056   62.1056   62.6204   62.6204   63.7071   63.7071   64.3534   64.3534
   65.7616   65.7616   66.6525   66.6525   67.1316   67.1316   67.5704   67.5704   68.0581   68.0581
   68.7117   68.7117   69.2536   69.2536   72.2597   72.2597   75.4089   75.4089   77.2632   77.2632
   87.5744   87.5744   87.9577   87.9577   89.3960   89.3960   93.1000   93.1000   94.3711   94.3711
   96.9394   96.9394   99.3146   99.3146  100.4711  100.4711  101.1590  101.1590  101.4996  101.4996
  103.5702  103.5702  117.8964  117.8964  121.9956  121.9956  126.5894  126.5894  131.2364  131.2364
  143.5962  143.5962  151.2099  151.2099
siesta: Fermi energy =      -3.904121 eV

siesta: Program's energy decomposition (eV):
siesta: Ebs     =     -1123.334339
siesta: Eions   =      3553.971015
siesta: Ena     =       378.733175
siesta: Ekin    =      2764.090771
siesta: Enl     =     -2541.074084
siesta: Eso     =        -0.004780
siesta: Edftu   =         0.000000
siesta: DEna    =        37.830470
siesta: DUscf   =        13.830377
siesta: DUext   =         0.000000
siesta: Exc     =     -1096.532873
siesta: eta*DQ  =         0.000000
siesta: Emadel  =         0.000000
siesta: Emeta   =         0.000000
siesta: Emolmec =         0.000000
siesta: Ekinion =         0.000000
siesta: Eharris =     -3997.097959
siesta: Etot    =     -3997.097959
siesta: FreeEng =     -3997.098482

siesta: Final energy (eV):
siesta:  Band Struct. =   -1123.334339
siesta:       Kinetic =    2764.090771
siesta:       Hartree =    8583.291641
siesta:       Edftu   =       0.000000
siesta:       Eso     =      -0.004780
siesta:    Ext. field =       0.000000
siesta:   Exch.-corr. =   -1096.532873
siesta:  Ion-electron =  -19630.571787
siesta:       Ion-ion =    5382.629068
siesta:       Ekinion =       0.000000
siesta:         Total =   -3997.097959
siesta:         Fermi =      -3.904121

siesta: Atomic forces (eV/Ang):
siesta:      1    0.158158   -0.059184   -0.000006
siesta:      2    0.054353   -0.029170   -0.000020
siesta:      3    0.039312    0.011351   -0.000006
siesta:      4    0.027865   -0.205085    0.000006
siesta:      5   -0.032907    0.012114   -0.000037
siesta:      6    0.176474   -0.027620    0.000018
siesta:      7   -1.099395   -0.377857   -0.000108
siesta:      8    1.864444   -7.598791    0.000409
siesta:      9    0.185412   -3.019489   -0.000139
siesta:     10    0.111047   -0.550270   -0.000137
siesta:     11    0.291285   -0.467110    0.000020
siesta:     12    0.336227   -0.112840    0.000002
siesta:     13   -0.194584   -0.003356    0.000007
siesta:     14   -0.035375    0.129459   -0.000018
siesta:     15   -0.064149   -0.142763    0.000084
siesta:     16   -0.021155    0.055406   -0.000894
siesta:     17    0.049467    0.082861   -0.000735
siesta:     18    0.116025    0.020458    0.005108
siesta:     19   -0.028073   -0.107026   -0.001282
siesta:     20   -0.079987   -0.152480   -0.001124
siesta:     21    0.040233    0.048828   -0.004012
siesta:     22    0.066802   -0.043765    0.104299
siesta:     23    0.006216    0.065436   -0.017157
siesta:     24    0.061028    0.007886   -0.085754
siesta:     25    0.763521    1.152401    0.000537
siesta:     26    1.577171   14.307319    0.000150
siesta:     27   -0.749525    1.574436   -0.000441
siesta:     28    0.234302   -1.073029   -0.000089
siesta:     29   -0.324794   -0.027876   -0.000093
siesta:     30   -1.867016   -1.026996    0.000167
siesta: ----------------------------------------
siesta:    Tot    1.662379    2.443245   -0.001244

siesta: Stress tensor (static) (eV/Ang**3):
siesta:     0.000394    0.001077    0.000001
siesta:     0.001077   -0.005616   -0.000012
siesta:     0.000001   -0.000012   -0.000018

siesta: Cell volume =       4491.952228 Ang**3

siesta: Pressure (static):
siesta:                Solid            Molecule  Units
siesta:           0.00001903          0.00000965  Ry/Bohr**3
siesta:           0.00174707          0.00088575  eV/Ang**3
siesta:           2.79914324          1.41914272  kBar
(Free)E+ p_basis*V_orbitals  =       -3975.970397
(Free)Eharris+ p_basis*V_orbitals  =       -3975.970397
     spin moment: S , {S} =    0.00000   0.00000   0.00000   0.00000

siesta: Electric dipole (a.u.)  =   -1.276401    2.250694   -0.001614
siesta: Electric dipole (Debye) =   -3.244289    5.720697   -0.004101

cite: Please see "AT.bib" for an exhaustive BiBTeX file.
cite: Please clearly indicate Siesta version in published work: v4.1.5-1-g384057250
cite: This calculation has made use of the following articles
cite: which are encouraged to be cited in a published work.
        Primary SIESTA paper
          DOI: www.doi.org/10.1088/0953-8984/14/11/302
        Spin-orbit coupling (on-site approximation)
          DOI: www.doi.org/10.1088/0953-8984/19/19/489001


WARNING: alloc-realloc-dealloc name mismatch
         Name: atomlist isa
         Size:              -120. Bytes
         Node:     0
         Subsequent mismatches will not be reported
>> End of run:  16-OCT-2023  20:09:23
Job completed
