Siesta Version  : v4.1.5-1-g384057250
Architecture    : gcc
Compiler version: GNU Fortran (Ubuntu 11.4.0-1ubuntu1~22.04) 11.4.0
Compiler flags  : mpifort -O2 -fPIC -ftree-vectorize -fallow-argument-mismatch
PP flags        : -DFC_HAVE_ABORT -DMPI -DSIESTA__FLOOK -DSIESTA__METIS -DSIESTA__MUMPS -DCDF -DNCDF -DNCDF_4 -DNCDF_PARALLEL -DSIESTA__MRRR -DSIESTA__ELPA
Libraries       : libncdf.a libfdict.a  -lflookall -ldl -lnetcdff -lnetcdf -lhdf5_hl -lhdf5 -lhdf5_fortran -lz -lscalapack-openmpi -lopenblas -lmetis -lzmumps -lcmumps -ldmumps -lmumps_common -lpord -lsmumps -lesmumps -lscotch -lscotcherr -fopenmp -lelpa
PARALLEL version
NetCDF support
NetCDF-4 support
NetCDF-4 MPI-IO support
METIS ordering support
Lua support

* Running on 8 nodes in parallel
>> Start of run:   1-FEB-2024  20:56:17

                           ***********************       
                           *  WELCOME TO SIESTA  *       
                           ***********************       

reinit: Reading from standard input
reinit: Dumped input in INPUT_TMP.48291
************************** Dump of input data file ****************************
# mpirun -np 4 siesta-4.1.5 < AT.fdf > AT.out &
SystemLabel      AT
NumberOfAtoms    30
NumberOfSpecies  4
%block ChemicalSpeciesLabel
    1    1  H
    2    7  N
    3   14  Si
    4    8  O
%endblock ChemicalSpeciesLabel
############################################
# This overrides Defaults.fdf configuration
############################################
MD.TypeOfRun                Verlet # CG, Verlet
MD.Steps                    0
MaxSCFIterations            200
SCF.MustConverge            F
AtomicCoordinatesFormat NotScaledCartesianAng
%block AtomicCoordinatesAndAtomicSpecies
    2.28494382 -5.19529124 0.0  1  1  H
    1.37433094 -4.6647107 0.0  2  2  N
    -0.21830245 -5.49458215 0.0  3  3  Si
    -0.17484108 -6.98516892 0.0  1  4  H
    -1.66171682 -4.58600741 0.0  2  5  N
    -1.09026419 -2.87456374 0.0  3  6  Si
    -1.53038332 -0.70765692 0.0  3  7  Si
    -3.14415959 -0.09186471 0.0  2  8  N
    -3.40268075 0.95848335 0.0  1  9  H
    -3.95073599 -0.76720972 0.0  1  10  H
    -0.17836637 0.41349951 0.0  2  11  N
    1.49520211 -0.0473996 0.0  3  12  Si
    2.45603905 1.10727302 0.0  1  13  H
    2.30451743 -1.58574382 0.0  2  14  N
    1.10725559 -2.84610319 0.0  3  15  Si
    0.032939138020154246 11.400606450033663 0.0  1  16  H
    -0.7757715419798458 10.708400570033664 0.0  2  17  N
    -2.4323613819798457 11.421520670033665 0.0  3  18  Si
    -2.3354962119798457 12.932245880033664 0.0  1  19  H
    -4.158517731979845 10.078472540033664 0.0  3  20  Si
    -6.512971981979846 10.070485610033664 0.0  3  21  Si
    -7.075390101979846 10.804975260033665 -1.20183078  1  22  H
    -6.812785731979846 8.591394480033664 -0.08618332  1  23  H
    -7.075502561979846 10.635318070033664 1.28814761  1  24  H
    -3.229127091979846 8.007901310033663 0.0  3  25  Si
    -4.178595451979846 6.719365180033664 0.0  4  26  O
    -1.438182221979846 7.8341658400336645 0.0  2  27  N
    -1.1071908619798458 6.801808860033664 0.0  1  28  H
    -0.1297240019798458 9.028712260033664 0.0  3  29  Si
    1.436212928020154 8.761465410033665 0.0  4  30  O
%endblock AtomicCoordinatesAndAtomicSpecies
#############
# Unit Cell
#############
LatticeConstant 1.0 Ang
%block LatticeVectors
    30.00000    0.000000    0.000000
    0.000000    45.00000    0.000000
    0.000000    0.000000    10.00000
%endblock LatticeVectors
%include ../../../../Defaults.fdf
************************** End of input data file *****************************

reinit: -----------------------------------------------------------------------
reinit: System Name: 
reinit: -----------------------------------------------------------------------
reinit: System Label: AT
reinit: -----------------------------------------------------------------------

initatom: Reading input for the pseudopotentials and atomic orbitals ----------
Species number:   1 Atomic number:    1 Label: H
Species number:   2 Atomic number:    7 Label: N
Species number:   3 Atomic number:   14 Label: Si
Species number:   4 Atomic number:    8 Label: O

Ground state valence configuration:   1s01
Reading pseudopotential information in formatted form from H.psf

Pseudopotential generated from a relativistic atomic calculation

Valence configuration for pseudopotential generation:
1s( 1.00) rc: 0.01
2p( 0.00) rc: 0.60
3d( 0.00) rc: 1.99
4f( 0.00) rc: 2.49
Ground state valence configuration:   2s02  2p03
Reading pseudopotential information in formatted form from N.psf

Pseudopotential generated from a relativistic atomic calculation

Valence configuration for pseudopotential generation:
2s( 2.00) rc: 0.94
2p( 3.00) rc: 0.59
3d( 0.00) rc: 3.46
4f( 0.00) rc: 2.47
Ground state valence configuration:   3s02  3p02
Reading pseudopotential information in formatted form from Si.psf

Pseudopotential generated from a relativistic atomic calculation

Valence configuration for pseudopotential generation:
3s( 2.00) rc: 1.67
3p( 2.00) rc: 2.04
3d( 0.00) rc: 2.89
4f( 0.00) rc: 2.49
Ground state valence configuration:   2s02  2p04
Reading pseudopotential information in formatted form from O.psf

Pseudopotential generated from a relativistic atomic calculation

Valence configuration for pseudopotential generation:
2s( 2.00) rc: 0.45
2p( 4.00) rc: 0.92
3d( 0.00) rc: 2.24
4f( 0.00) rc: 0.25
For H, standard SIESTA heuristics set lmxkb to 2
 (one more than the basis l, including polarization orbitals).
Use PS.lmax or PS.KBprojectors blocks to override.
For N, standard SIESTA heuristics set lmxkb to 3
 (one more than the basis l, including polarization orbitals).
Use PS.lmax or PS.KBprojectors blocks to override.
For Si, standard SIESTA heuristics set lmxkb to 3
 (one more than the basis l, including polarization orbitals).
Use PS.lmax or PS.KBprojectors blocks to override.
For O, standard SIESTA heuristics set lmxkb to 3
 (one more than the basis l, including polarization orbitals).
Use PS.lmax or PS.KBprojectors blocks to override.

<basis_specs>
===============================================================================
H                    Z=   1    Mass=  1.0100        Charge= 0.17977+309
Lmxo=0 Lmxkb= 2    BasisType=split      Semic=F
L=0  Nsemic=0  Cnfigmx=1
          i=1  nzeta=2  polorb=1  (1s)
            splnorm:   0.62000    
               vcte:    0.0000    
               rinn:    0.0000    
               qcoe:    0.0000    
               qyuk:    0.0000    
               qwid:   0.10000E-01
                rcs:    0.0000      0.0000    
            lambdas:    1.0000      1.0000    
-------------------------------------------------------------------------------
L=0  Nkbl=1  erefs: 0.17977+309
L=1  Nkbl=1  erefs: 0.17977+309
L=2  Nkbl=1  erefs: 0.17977+309
===============================================================================
</basis_specs>

atom: Called for H                     (Z =   1)

read_vps: Pseudopotential generation method:
read_vps: ATM4.2.7  Troullier-Martins                       
Valence charge for ps generation:    1.00000

xc_check: Exchange-correlation functional:
xc_check: GGA Perdew, Burke & Ernzerhof 1996
V l=0 = -2*Zval/r beyond r=  0.0098
V l=1 = -2*Zval/r beyond r=  0.5817
V l=2 = -2*Zval/r beyond r=  1.9372
All V_l potentials equal beyond r=  1.9372
This should be close to max(r_c) in ps generation
All pots = -2*Zval/r beyond r=  1.9372

VLOCAL1: 99.0% of the norm of Vloc inside     11.567 Ry
VLOCAL1: 99.9% of the norm of Vloc inside     26.362 Ry
atom: Maximum radius for 4*pi*r*r*local-pseudopot. charge    2.25106
atom: Maximum radius for r*vlocal+2*Zval:    1.91306
GHOST: No ghost state for L =  0
GHOST: No ghost state for L =  1
GHOST: No ghost state for L =  2

KBgen: Kleinman-Bylander projectors: 
   l= 0   rc=  2.036604   el= -0.477180   Ekb= -6.081590   kbcos= -0.277285
   l= 1   rc=  2.195416   el=  0.001076   Ekb= -0.926943   kbcos= -0.034643
   l= 2   rc=  2.251056   el=  0.002010   Ekb= -0.130941   kbcos= -0.009788

KBgen: Total number of Kleinman-Bylander projectors:    9
atom: -------------------------------------------------------------------------

atom: SANKEY-TYPE ORBITALS:
atom: Selected multiple-zeta basis: split     

SPLIT: Orbitals with angular momentum L= 0

SPLIT: Basis orbitals for state 1s

SPLIT: PAO cut-off radius determined from an
SPLIT: energy shift=  0.002000 Ry

   izeta = 1
                 lambda =    1.000000
                     rc =    6.518340
                 energy =   -0.475305
                kinetic =    0.912139
    potential(screened) =   -1.387444
       potential(ionic) =   -1.907295

   izeta = 2
                 rmatch =    2.141150
              splitnorm =    0.620000
                 energy =    0.566467
                kinetic =    3.772856
    potential(screened) =   -3.206389
       potential(ionic) =   -3.759093

POLgen: Perturbative polarization orbital with L=  1

POLgen: Polarization orbital for state 1s

   izeta = 1
                     rc =    6.518340
                 energy =    0.533861
                kinetic =    1.121086
    potential(screened) =   -0.587225
       potential(ionic) =   -1.053027
atom: Total number of Sankey-type orbitals:  5

atm_pop: Valence configuration (for local Pseudopot. screening):
 1s( 1.00)                                                            
Vna: chval, zval:    1.00000   1.00000

Vna:  Cut-off radius for the neutral-atom potential:   6.518340

atom: _________________________________________________________________________

<basis_specs>
===============================================================================
N                    Z=   7    Mass=  14.010        Charge= 0.17977+309
Lmxo=1 Lmxkb= 3    BasisType=split      Semic=F
L=0  Nsemic=0  Cnfigmx=2
          i=1  nzeta=2  polorb=0  (2s)
            splnorm:   0.28000    
               vcte:    0.0000    
               rinn:    0.0000    
               qcoe:    0.0000    
               qyuk:    0.0000    
               qwid:   0.10000E-01
                rcs:    0.0000      0.0000    
            lambdas:    1.0000      1.0000    
L=1  Nsemic=0  Cnfigmx=2
          i=1  nzeta=2  polorb=1  (2p)
            splnorm:   0.28000    
               vcte:    0.0000    
               rinn:    0.0000    
               qcoe:    0.0000    
               qyuk:    0.0000    
               qwid:   0.10000E-01
                rcs:    0.0000      0.0000    
            lambdas:    1.0000      1.0000    
-------------------------------------------------------------------------------
L=0  Nkbl=1  erefs: 0.17977+309
L=1  Nkbl=1  erefs: 0.17977+309
L=2  Nkbl=1  erefs: 0.17977+309
L=3  Nkbl=1  erefs: 0.17977+309
===============================================================================
</basis_specs>

atom: Called for N                     (Z =   7)

read_vps: Pseudopotential generation method:
read_vps: ATM4.2.7  Troullier-Martins                       
Valence charge for ps generation:    5.00000

xc_check: Exchange-correlation functional:
xc_check: GGA Perdew, Burke & Ernzerhof 1996
V l=0 = -2*Zval/r beyond r=  1.2889
V l=1 = -2*Zval/r beyond r=  1.2889
V l=2 = -2*Zval/r beyond r=  3.4178
V l=3 = -2*Zval/r beyond r=  2.4084
All V_l potentials equal beyond r=  3.3753
This should be close to max(r_c) in ps generation
All pots = -2*Zval/r beyond r=  3.4178

VLOCAL1: 99.0% of the norm of Vloc inside      3.810 Ry
VLOCAL1: 99.9% of the norm of Vloc inside      8.683 Ry
atom: Maximum radius for 4*pi*r*r*local-pseudopot. charge    4.02088
atom: Maximum radius for r*vlocal+2*Zval:    3.54838
GHOST: No ghost state for L =  0
GHOST: No ghost state for L =  1
GHOST: No ghost state for L =  2
GHOST: No ghost state for L =  3

KBgen: Kleinman-Bylander projectors: 
   l= 0   rc=  3.417763   el= -1.365098   Ekb= -4.433130   kbcos= -0.707855
   l= 1   rc=  3.375302   el= -0.521201   Ekb=-13.264039   kbcos= -0.535594
   l= 2   rc=  3.872880   el=  0.001991   Ekb= -0.641094   kbcos= -0.062456
   l= 3   rc=  3.970931   el=  0.003093   Ekb= -0.474517   kbcos= -0.018236

KBgen: Total number of Kleinman-Bylander projectors:   16
atom: -------------------------------------------------------------------------

atom: SANKEY-TYPE ORBITALS:
atom: Selected multiple-zeta basis: split     

SPLIT: Orbitals with angular momentum L= 0

SPLIT: Basis orbitals for state 2s

SPLIT: PAO cut-off radius determined from an
SPLIT: energy shift=  0.002000 Ry

   izeta = 1
                 lambda =    1.000000
                     rc =    4.730425
                 energy =   -1.363399
                kinetic =    1.245246
    potential(screened) =   -2.608645
       potential(ionic) =   -8.121105

   izeta = 2
                 rmatch =    2.531849
              splitnorm =    0.280000
                 energy =   -0.959908
                kinetic =    2.409435
    potential(screened) =   -3.369343
       potential(ionic) =   -9.427975

SPLIT: Orbitals with angular momentum L= 1

SPLIT: Basis orbitals for state 2p

SPLIT: PAO cut-off radius determined from an
SPLIT: energy shift=  0.002000 Ry

   izeta = 1
                 lambda =    1.000000
                     rc =    5.924108
                 energy =   -0.519262
                kinetic =    3.672940
    potential(screened) =   -4.192202
       potential(ionic) =   -9.518354

   izeta = 2
                 rmatch =    2.531849
              splitnorm =    0.280000
                 energy =   -0.104258
                kinetic =    6.807538
    potential(screened) =   -6.911796
       potential(ionic) =  -13.149920

POLgen: Perturbative polarization orbital with L=  2

POLgen: Polarization orbital for state 2p

   izeta = 1
                     rc =    5.924108
                 energy =    1.427508
                kinetic =    2.872379
    potential(screened) =   -1.444871
       potential(ionic) =   -5.563644
atom: Total number of Sankey-type orbitals: 13

atm_pop: Valence configuration (for local Pseudopot. screening):
 2s( 2.00)                                                            
 2p( 3.00)                                                            
Vna: chval, zval:    5.00000   5.00000

Vna:  Cut-off radius for the neutral-atom potential:   5.924108

atom: _________________________________________________________________________

<basis_specs>
===============================================================================
Si                   Z=  14    Mass=  28.090        Charge= 0.17977+309
Lmxo=1 Lmxkb= 3    BasisType=split      Semic=F
L=0  Nsemic=0  Cnfigmx=3
          i=1  nzeta=2  polorb=0  (3s)
            splnorm:   0.28000    
               vcte:    0.0000    
               rinn:    0.0000    
               qcoe:    0.0000    
               qyuk:    0.0000    
               qwid:   0.10000E-01
                rcs:    0.0000      0.0000    
            lambdas:    1.0000      1.0000    
L=1  Nsemic=0  Cnfigmx=3
          i=1  nzeta=2  polorb=1  (3p)
            splnorm:   0.28000    
               vcte:    0.0000    
               rinn:    0.0000    
               qcoe:    0.0000    
               qyuk:    0.0000    
               qwid:   0.10000E-01
                rcs:    0.0000      0.0000    
            lambdas:    1.0000      1.0000    
-------------------------------------------------------------------------------
L=0  Nkbl=1  erefs: 0.17977+309
L=1  Nkbl=1  erefs: 0.17977+309
L=2  Nkbl=1  erefs: 0.17977+309
L=3  Nkbl=1  erefs: 0.17977+309
===============================================================================
</basis_specs>

atom: Called for Si                    (Z =  14)

read_vps: Pseudopotential generation method:
read_vps: ATM4.2.7  Troullier-Martins                       
Valence charge for ps generation:    4.00000

xc_check: Exchange-correlation functional:
xc_check: GGA Perdew, Burke & Ernzerhof 1996
V l=0 = -2*Zval/r beyond r=  2.7826
V l=1 = -2*Zval/r beyond r=  2.7826
V l=2 = -2*Zval/r beyond r=  2.9253
V l=3 = -2*Zval/r beyond r=  2.7826
All V_l potentials equal beyond r=  2.8530
This should be close to max(r_c) in ps generation
All pots = -2*Zval/r beyond r=  2.9253

VLOCAL1: 99.0% of the norm of Vloc inside      5.333 Ry
VLOCAL1: 99.9% of the norm of Vloc inside     12.154 Ry
atom: Maximum radius for 4*pi*r*r*local-pseudopot. charge    3.39869
atom: Maximum radius for r*vlocal+2*Zval:    2.96205
GHOST: No ghost state for L =  0
GHOST: No ghost state for L =  1
GHOST: No ghost state for L =  2
GHOST: No ghost state for L =  3

KBgen: Kleinman-Bylander projectors: 
   l= 0   rc=  3.075247   el= -0.794092   Ekb=  5.879390   kbcos=  0.167461
   l= 1   rc=  3.153101   el= -0.300068   Ekb=  2.642817   kbcos=  0.058301
   l= 2   rc=  3.273594   el=  0.001958   Ekb= -1.185135   kbcos= -0.104411
   l= 3   rc=  3.232927   el=  0.003046   Ekb= -0.497174   kbcos= -0.015889

KBgen: Total number of Kleinman-Bylander projectors:   16
atom: -------------------------------------------------------------------------

atom: SANKEY-TYPE ORBITALS:
atom: Selected multiple-zeta basis: split     

SPLIT: Orbitals with angular momentum L= 0

SPLIT: Basis orbitals for state 3s

SPLIT: PAO cut-off radius determined from an
SPLIT: energy shift=  0.002000 Ry

   izeta = 1
                 lambda =    1.000000
                     rc =    6.429618
                 energy =   -0.792283
                kinetic =    0.525293
    potential(screened) =   -1.317576
       potential(ionic) =   -3.744923

   izeta = 2
                 rmatch =    3.998416
              splitnorm =    0.280000
                 energy =   -0.583081
                kinetic =    1.069570
    potential(screened) =   -1.652651
       potential(ionic) =   -4.235185

SPLIT: Orbitals with angular momentum L= 1

SPLIT: Basis orbitals for state 3p

SPLIT: PAO cut-off radius determined from an
SPLIT: energy shift=  0.002000 Ry

   izeta = 1
                 lambda =    1.000000
                     rc =    8.464845
                 energy =   -0.298236
                kinetic =    0.785360
    potential(screened) =   -1.083596
       potential(ionic) =   -3.273779

   izeta = 2
                 rmatch =    4.587816
              splitnorm =    0.280000
                 energy =   -0.131871
                kinetic =    1.403687
    potential(screened) =   -1.535557
       potential(ionic) =   -4.015310

POLgen: Perturbative polarization orbital with L=  2

POLgen: Polarization orbital for state 3p

   izeta = 1
                     rc =    8.464845
                 energy =    0.321949
                kinetic =    1.055677
    potential(screened) =   -0.733728
       potential(ionic) =   -2.672950
atom: Total number of Sankey-type orbitals: 13

atm_pop: Valence configuration (for local Pseudopot. screening):
 3s( 2.00)                                                            
 3p( 2.00)                                                            
Vna: chval, zval:    4.00000   4.00000

Vna:  Cut-off radius for the neutral-atom potential:   8.464845

atom: _________________________________________________________________________

<basis_specs>
===============================================================================
O                    Z=   8    Mass=  16.000        Charge= 0.17977+309
Lmxo=1 Lmxkb= 3    BasisType=split      Semic=F
L=0  Nsemic=0  Cnfigmx=2
          i=1  nzeta=2  polorb=0  (2s)
            splnorm:   0.28000    
               vcte:    0.0000    
               rinn:    0.0000    
               qcoe:    0.0000    
               qyuk:    0.0000    
               qwid:   0.10000E-01
                rcs:    0.0000      0.0000    
            lambdas:    1.0000      1.0000    
L=1  Nsemic=0  Cnfigmx=2
          i=1  nzeta=2  polorb=1  (2p)
            splnorm:   0.28000    
               vcte:    0.0000    
               rinn:    0.0000    
               qcoe:    0.0000    
               qyuk:    0.0000    
               qwid:   0.10000E-01
                rcs:    0.0000      0.0000    
            lambdas:    1.0000      1.0000    
-------------------------------------------------------------------------------
L=0  Nkbl=1  erefs: 0.17977+309
L=1  Nkbl=1  erefs: 0.17977+309
L=2  Nkbl=1  erefs: 0.17977+309
L=3  Nkbl=1  erefs: 0.17977+309
===============================================================================
</basis_specs>

atom: Called for O                     (Z =   8)

read_vps: Pseudopotential generation method:
read_vps: ATM4.2.7  Troullier-Martins                       
Valence charge for ps generation:    6.00000

xc_check: Exchange-correlation functional:
xc_check: GGA Perdew, Burke & Ernzerhof 1996
V l=0 = -2*Zval/r beyond r=  1.1000
V l=1 = -2*Zval/r beyond r=  1.1000
V l=2 = -2*Zval/r beyond r=  2.2154
V l=3 = -2*Zval/r beyond r=  1.1000
All V_l potentials equal beyond r=  2.2154
This should be close to max(r_c) in ps generation
All pots = -2*Zval/r beyond r=  2.2154

VLOCAL1: 99.0% of the norm of Vloc inside      8.845 Ry
VLOCAL1: 99.9% of the norm of Vloc inside     20.157 Ry
atom: Maximum radius for 4*pi*r*r*local-pseudopot. charge    2.67231
atom: Maximum radius for r*vlocal+2*Zval:    2.32897
GHOST: No ghost state for L =  0
GHOST: No ghost state for L =  1
GHOST: No ghost state for L =  2
GHOST: No ghost state for L =  3

KBgen: Kleinman-Bylander projectors: 
   l= 0   rc=  2.243238   el= -1.759686   Ekb=**********   kbcos= -0.171774
   l= 1   rc=  2.328968   el= -0.663873   Ekb=-14.506792   kbcos= -0.519897
   l= 2   rc=  2.573941   el=  0.002031   Ekb= -1.137373   kbcos= -0.019581
   l= 3   rc=  2.606321   el=  0.003153   Ekb= -1.013546   kbcos= -0.003122

KBgen: Total number of Kleinman-Bylander projectors:   16
atom: -------------------------------------------------------------------------

atom: SANKEY-TYPE ORBITALS:
atom: Selected multiple-zeta basis: split     

SPLIT: Orbitals with angular momentum L= 0

SPLIT: Basis orbitals for state 2s

SPLIT: PAO cut-off radius determined from an
SPLIT: energy shift=  0.002000 Ry

   izeta = 1
                 lambda =    1.000000
                     rc =    4.243912
                 energy =   -1.758270
                kinetic =    3.286084
    potential(screened) =   -5.044353
       potential(ionic) =  -12.921184

   izeta = 2
                 rmatch =    2.187845
              splitnorm =    0.280000
                 energy =   -0.885018
                kinetic =    8.134434
    potential(screened) =   -9.019452
       potential(ionic) =  -17.710645

SPLIT: Orbitals with angular momentum L= 1

SPLIT: Basis orbitals for state 2p

SPLIT: PAO cut-off radius determined from an
SPLIT: energy shift=  0.002000 Ry

   izeta = 1
                 lambda =    1.000000
                     rc =    5.314825
                 energy =   -0.661986
                kinetic =    4.917472
    potential(screened) =   -5.579458
       potential(ionic) =  -13.236259

   izeta = 2
                 rmatch =    2.160663
              splitnorm =    0.280000
                 energy =   -0.068760
                kinetic =    9.183374
    potential(screened) =   -9.252135
       potential(ionic) =  -18.274251

POLgen: Perturbative polarization orbital with L=  2

POLgen: Polarization orbital for state 2p

   izeta = 1
                     rc =    5.314825
                 energy =    1.970580
                kinetic =    3.886128
    potential(screened) =   -1.915547
       potential(ionic) =   -7.749584
atom: Total number of Sankey-type orbitals: 13

atm_pop: Valence configuration (for local Pseudopot. screening):
 2s( 2.00)                                                            
 2p( 4.00)                                                            
Vna: chval, zval:    6.00000   6.00000

Vna:  Cut-off radius for the neutral-atom potential:   5.314825

atom: _________________________________________________________________________

prinput: Basis input ----------------------------------------------------------

PAO.BasisType split     

%block ChemicalSpeciesLabel
    1    1 H                       # Species index, atomic number, species label
    2    7 N                       # Species index, atomic number, species label
    3   14 Si                      # Species index, atomic number, species label
    4    8 O                       # Species index, atomic number, species label
%endblock ChemicalSpeciesLabel

%block PAO.Basis                 # Define Basis set
H                     1                    # Species label, number of l-shells
 n=1   0   2 P   1                   # n, l, Nzeta, Polarization, NzetaPol
   6.518      2.141   
   1.000      1.000   
N                     2                    # Species label, number of l-shells
 n=2   0   2                         # n, l, Nzeta 
   4.730      2.532   
   1.000      1.000   
 n=2   1   2 P   1                   # n, l, Nzeta, Polarization, NzetaPol
   5.924      2.532   
   1.000      1.000   
Si                    2                    # Species label, number of l-shells
 n=3   0   2                         # n, l, Nzeta 
   6.430      3.998   
   1.000      1.000   
 n=3   1   2 P   1                   # n, l, Nzeta, Polarization, NzetaPol
   8.465      4.588   
   1.000      1.000   
O                     2                    # Species label, number of l-shells
 n=2   0   2                         # n, l, Nzeta 
   4.244      2.188   
   1.000      1.000   
 n=2   1   2 P   1                   # n, l, Nzeta, Polarization, NzetaPol
   5.315      2.161   
   1.000      1.000   
%endblock PAO.Basis

prinput: ----------------------------------------------------------------------

Dumping basis to NetCDF file H.ion.nc
Dumping basis to NetCDF file N.ion.nc
Dumping basis to NetCDF file Si.ion.nc
Dumping basis to NetCDF file O.ion.nc
coor:   Atomic-coordinates input format  =     Cartesian coordinates
coor:                                          (in Angstroms)

siesta: Atomic coordinates (Bohr) and species
siesta:      4.31792  -9.81768   0.00000  1        1
siesta:      2.59711  -8.81503   0.00000  2        2
siesta:     -0.41253 -10.38326   0.00000  3        3
siesta:     -0.33040 -13.20006   0.00000  1        4
siesta:     -3.14019  -8.66630   0.00000  2        5
siesta:     -2.06030  -5.43214   0.00000  3        6
siesta:     -2.89201  -1.33728   0.00000  3        7
siesta:     -5.94160  -0.17360   0.00000  2        8
siesta:     -6.43014   1.81127   0.00000  1        9
siesta:     -7.46581  -1.44982   0.00000  1       10
siesta:     -0.33706   0.78140   0.00000  2       11
siesta:      2.82552  -0.08957   0.00000  3       12
siesta:      4.64124   2.09244   0.00000  1       13
siesta:      4.35491  -2.99662   0.00000  2       14
siesta:      2.09241  -5.37836   0.00000  3       15
siesta:      0.06225  21.54403   0.00000  1       16
siesta:     -1.46600  20.23595   0.00000  2       17
siesta:     -4.59650  21.58355   0.00000  3       18
siesta:     -4.41345  24.43841   0.00000  1       19
siesta:     -7.85846  19.04556   0.00000  3       20
siesta:    -12.30774  19.03047   0.00000  3       21
siesta:    -13.37055  20.41845  -2.27113  1       22
siesta:    -12.87430  16.23539  -0.16286  1       23
siesta:    -13.37077  20.09785   2.43425  1       24
siesta:     -6.10217  15.13275   0.00000  3       25
siesta:     -7.89640  12.69776   0.00000  4       26
siesta:     -2.71777  14.80443   0.00000  2       27
siesta:     -2.09229  12.85356   0.00000  1       28
siesta:     -0.24514  17.06180   0.00000  3       29
siesta:      2.71405  16.55678   0.00000  4       30

siesta: System type = molecule  

initatomlists: Number of atoms, orbitals, and projectors:     30   302   403

siesta: ******************** Simulation parameters ****************************
siesta:
siesta: The following are some of the parameters of the simulation.
siesta: A complete list of the parameters used, including default values,
siesta: can be found in file out.fdf
siesta:
redata: Spin configuration                          = spin-orbit
redata: Number of spin components                   = 8
redata: Time-Reversal Symmetry                      = F
redata: Spin spiral                                 = F
############################################################
This spin-orbit implementation uses a local approximation.
From 4.2 and onwards the full non-local approximation is implemented
You are strongly advised to use >=4.2 versions!
############################################################
redata: Long output                                 =   F
redata: Number of Atomic Species                    =        4
redata: Charge density info will appear in .RHO file
redata: Write Mulliken Pop.                         = NO
redata: Matel table size (NRTAB)                    =     1024
redata: Mesh Cutoff                                 =   340.0000 Ry
redata: Net charge of the system                    =     0.0000 |e|
redata: Min. number of SCF Iter                     =        1
redata: Max. number of SCF Iter                     =      200
redata: SCF mix quantity                            = Hamiltonian
redata: Mix DM or H after convergence               =   F
redata: Recompute H after scf cycle                 =   F
redata: Mix DM in first SCF step                    =   T
redata: Write Pulay info on disk                    =   F
redata: New DM Occupancy tolerance                  = 0.000000000001
redata: No kicks to SCF
redata: DM Mixing Weight for Kicks                  =     0.5000
redata: Require Harris convergence for SCF          =   F
redata: Harris energy tolerance for SCF             =     0.000100 eV
redata: Require DM convergence for SCF              =   T
redata: DM tolerance for SCF                        =     0.000008
redata: Require EDM convergence for SCF             =   F
redata: EDM tolerance for SCF                       =     0.001000 eV
redata: Require H convergence for SCF               =   T
redata: Hamiltonian tolerance for SCF               =     0.000001 eV
redata: Require (free) Energy convergence for SCF   =   F
redata: (free) Energy tolerance for SCF             =     0.000100 eV
redata: Using Saved Data (generic)                  =   F
redata: Use continuation files for DM               =   T
redata: Neglect nonoverlap interactions             =   F
redata: Method of Calculation                       = Diagonalization
redata: Electronic Temperature                      =   299.9978 K
redata: Fix the spin of the system                  =   F
redata: Dynamics option                             = Verlet MD run
redata: Initial MD time step                        =        1
redata:   Final MD time step                        =        1
redata: Length of MD time step                      =     0.5000 fs
redata: Initial Temperature of MD run               =     0.0000 K
redata: Perform a MD quench                         =   F
mix.SCF: Pulay mixing                            = Pulay
mix.SCF:    Variant                              = stable
mix.SCF:    History steps                        = 6
mix.SCF:    Linear mixing weight                 =     0.250000
mix.SCF:    Mixing weight                        =     0.250000
mix.SCF:    SVD condition                        = 0.1000E-07
mix.SCF:    Restart steps                        = 24
mix.SCF:    Restart save steps                   = 3
mix.SCF: Spin-component mixing                   all
redata: Save all siesta data in one NC              =   F
redata: ***********************************************************************

%block SCF.Mixers
  Pulay
%endblock SCF.Mixers

%block SCF.Mixer.Pulay
  # Mixing method
  method pulay
  variant stable

  # Mixing options
  weight 0.2500
  weight.linear 0.2500
  history 6
  restart 24
  restart.save 3
%endblock SCF.Mixer.Pulay

Size of DM history Fstack: 3
Total number of electrons:    98.000000
Total ionic charge:    98.000000

* ProcessorY, Blocksize:    2  24


* Orbital distribution balance (max,min):    48    24


Time-reversal symmetry not used.

siesta: k-grid: Number of k-points =     1
siesta: k-grid: Cutoff (effective) =     5.000 Ang
siesta: k-grid: Supercell and displacements
siesta: k-grid:    1   0   0      0.000
siesta: k-grid:    0   1   0      0.000
siesta: k-grid:    0   0   1      0.000

diag: Algorithm                                     = ELPA-1stage
diag: Parallel over k                               =   F
diag: Use parallel 2D distribution                  =   T
diag: Parallel block-size                           = 24
diag: Parallel distribution                         =     2 x     4
diag: Used triangular part                          = Lower
diag: Absolute tolerance                            =  0.100E-15
diag: Orthogonalization factor                      =  0.100E-05
diag: Memory factor                                 =  1.0000


ts: **************************************************************
ts: Save H and S matrices                           =    F
ts: Save DM and EDM matrices                        =    F
ts: Only save the overlap matrix S                  =    F
ts: **************************************************************

************************ Begin: TS CHECKS AND WARNINGS ************************
************************ End: TS CHECKS AND WARNINGS **************************


                     ====================================
                        Begin MD step =      1
                     ====================================

outcoor: Atomic coordinates (Ang):                          
    2.28494382   -5.19529124    0.00000000   1       1  H
    1.37433094   -4.66471070    0.00000000   2       2  N
   -0.21830245   -5.49458215    0.00000000   3       3  Si
   -0.17484108   -6.98516892    0.00000000   1       4  H
   -1.66171682   -4.58600741    0.00000000   2       5  N
   -1.09026419   -2.87456374    0.00000000   3       6  Si
   -1.53038332   -0.70765692    0.00000000   3       7  Si
   -3.14415959   -0.09186471    0.00000000   2       8  N
   -3.40268075    0.95848335    0.00000000   1       9  H
   -3.95073599   -0.76720972    0.00000000   1      10  H
   -0.17836637    0.41349951    0.00000000   2      11  N
    1.49520211   -0.04739960    0.00000000   3      12  Si
    2.45603905    1.10727302    0.00000000   1      13  H
    2.30451743   -1.58574382    0.00000000   2      14  N
    1.10725559   -2.84610319    0.00000000   3      15  Si
    0.03293914   11.40060645    0.00000000   1      16  H
   -0.77577154   10.70840057    0.00000000   2      17  N
   -2.43236138   11.42152067    0.00000000   3      18  Si
   -2.33549621   12.93224588    0.00000000   1      19  H
   -4.15851773   10.07847254    0.00000000   3      20  Si
   -6.51297198   10.07048561    0.00000000   3      21  Si
   -7.07539010   10.80497526   -1.20183078   1      22  H
   -6.81278573    8.59139448   -0.08618332   1      23  H
   -7.07550256   10.63531807    1.28814761   1      24  H
   -3.22912709    8.00790131    0.00000000   3      25  Si
   -4.17859545    6.71936518    0.00000000   4      26  O
   -1.43818222    7.83416584    0.00000000   2      27  N
   -1.10719086    6.80180886    0.00000000   1      28  H
   -0.12972400    9.02871226    0.00000000   3      29  Si
    1.43621293    8.76146541    0.00000000   4      30  O

outcell: Unit cell vectors (Ang):
       30.000000    0.000000    0.000000
        0.000000   45.000000    0.000000
        0.000000    0.000000   10.000000

outcell: Cell vector modules (Ang)   :   30.000000   45.000000   10.000000
outcell: Cell angles (23,13,12) (deg):     90.0000     90.0000     90.0000
outcell: Cell volume (Ang**3)        :  13500.0000
<dSpData1D:S at geom step 1
  <sparsity:sparsity for geom step 1
    nrows_g=302 nrows=48 sparsity=.0767 nnzs=6994, refcount: 8>
  <dData1D:(new from dSpData1D) n=6994, refcount: 1>
refcount: 1>
new_DM -- step:     1
Initializing Density Matrix...

Attempting to read DM from file... Failed...
DM filled with atomic data:
<dSpData2D:DM initialized from atoms
  <sparsity:sparsity for geom step 1
    nrows_g=302 nrows=48 sparsity=.0767 nnzs=6994, refcount: 9>
  <dData2D:DM n=6994 m=8, refcount: 1>
refcount: 1>
     spin moment: S , {S} =   56.00000   0.00000   0.00000  56.00000
No. of atoms with KB's overlaping orbs in proc 0. Max # of overlaps:      27     134

Initializing spin-orbit part of the Hamiltonian
  Adding spin-orbit effects for H 
  Adding spin-orbit effects for N 
  Adding spin-orbit effects for Si
  Adding spin-orbit effects for O 


New grid distribution:   1
           1       1:  180    1:  125    1:   15
           2       1:  180    1:  125   16:   30
           3       1:  180    1:  125   31:   45
           4       1:  180    1:  125   46:   60
           5       1:  180  126:  250    1:   15
           6       1:  180  126:  250   16:   30
           7       1:  180  126:  250   31:   45
           8       1:  180  126:  250   46:   60

InitMesh: MESH =   360 x   500 x   120 =    21600000
InitMesh: (bp) =   180 x   250 x    60 =     2700000
InitMesh: Mesh cutoff (required, used) =   340.000   341.206 Ry
ExtMesh (bp) on 0 =   288 x   225 x   123 =     7970400
New grid distribution:   2
           1       1:  158    1:   48    1:   60
           2       1:  151  233:  250    1:   60
           3       1:  158   49:   65    1:   60
           4     159:  180   49:   65    1:   60
           5       1:  151   66:  232    1:   60
           6     152:  180   66:  231    1:   60
           7     159:  180    1:   48    1:   60
           8     152:  180  232:  250    1:   60
New grid distribution:   3
           1       1:  144    1:   42    1:   60
           2       1:  146  220:  250    1:   60
           3       1:  144   43:   64    1:   60
           4     145:  180   38:   64    1:   60
           5       1:  146   65:  219    1:   60
           6     147:  180   65:  216    1:   60
           7     145:  180    1:   37    1:   60
           8     147:  180  217:  250    1:   60
Setting up quadratic distribution...
ExtMesh (bp) on 0 =   266 x   148 x   168 =     6613824
PhiOnMesh: Number of (b)points on node 0 =               455040
PhiOnMesh: nlist on node 0 =              1772235

stepf: Fermi-Dirac step function

siesta: Program's energy decomposition (eV):
siesta: Ebs     =      -627.504421
siesta: Eions   =      3553.971015
siesta: Ena     =       374.984508
siesta: Ekin    =      3170.978628
siesta: Enl     =     -2984.400148
siesta: Eso     =        -0.003884
siesta: Edftu   =         0.000000
siesta: DEna    =       129.718720
siesta: DUscf   =        75.673972
siesta: DUext   =         0.000000
siesta: Exc     =     -1168.569020
siesta: eta*DQ  =         0.000000
siesta: Emadel  =         0.000000
siesta: Emeta   =         0.000000
siesta: Emolmec =         0.000000
siesta: Ekinion =         0.000000
siesta: Eharris =     -3884.494186
siesta: Etot    =     -3955.588239
siesta: FreeEng =     -3955.591562

        iscf     Eharris(eV)        E_KS(eV)     FreeEng(eV)     dDmax    Ef(eV) dHmax(eV)
   scf:    1    -3884.494186    -3955.588239    -3955.591562  0.970499 -4.935301 21.625733
     spin moment: S , {S} =    2.02361  -0.00000  -0.00000   2.02361
timer: Routine,Calls,Time,% = IterSCF        1      15.182  28.84
   scf:    2    -3994.928191    -3988.272762    -3988.272770  0.465923 -4.254584 12.030939
     spin moment: S , {S} =    2.00008   0.00000  -0.00000   2.00008
   scf:    3    -3955.786602    -3984.914897    -3984.945579  0.422177 -4.212692 12.611009
     spin moment: S , {S} =    1.99769  -0.00000  -0.00000   1.99769
   scf:    4    -4002.364072    -3997.208167    -3997.208168  0.215075 -3.866499  6.198181
     spin moment: S , {S} =    0.00010  -0.00000   0.00000   0.00010
   scf:    5    -3998.620289    -3997.987327    -3997.987327  0.038274 -3.746908  3.994291
     spin moment: S , {S} =    0.00006  -0.00000   0.00000   0.00006
   scf:    6    -3998.785347    -3998.385838    -3998.385838  0.026820 -3.729406  1.886064
     spin moment: S , {S} =    0.00003  -0.00000   0.00000   0.00003
   scf:    7    -3998.771417    -3998.572856    -3998.572856  0.022437 -3.787161  0.784616
     spin moment: S , {S} =    0.00001  -0.00000   0.00000   0.00001
   scf:    8    -3998.704766    -3998.636552    -3998.636552  0.012503 -3.820297  0.523671
     spin moment: S , {S} =    0.00000  -0.00000   0.00000   0.00000
   scf:    9    -3998.687416    -3998.660835    -3998.660835  0.007245 -3.838270  0.417359
     spin moment: S , {S} =    0.00000  -0.00000   0.00000   0.00000
   scf:   10    -3998.722547    -3998.680529    -3998.680529  0.025662 -3.870833  0.235356
     spin moment: S , {S} =    0.00000  -0.00000  -0.00000  -0.00000
   scf:   11    -3998.687004    -3998.683953    -3998.683954  0.004267 -3.854527  0.087488
     spin moment: S , {S} =    0.00000  -0.00000  -0.00000  -0.00000
   scf:   12    -3998.685266    -3998.684644    -3998.684645  0.001147 -3.851137  0.051160
     spin moment: S , {S} =    0.00000   0.00000  -0.00000  -0.00000
   scf:   13    -3998.685763    -3998.685192    -3998.685193  0.001146 -3.848832  0.027796
     spin moment: S , {S} =    0.00000   0.00000  -0.00000   0.00000
   scf:   14    -3998.685714    -3998.685443    -3998.685444  0.000911 -3.847704  0.017378
     spin moment: S , {S} =    0.00000   0.00000  -0.00000   0.00000
   scf:   15    -3998.685663    -3998.685547    -3998.685548  0.000617 -3.847333  0.010054
     spin moment: S , {S} =    0.00000   0.00000  -0.00000  -0.00000
   scf:   16    -3998.685637    -3998.685588    -3998.685589  0.000479 -3.847285  0.004050
     spin moment: S , {S} =    0.00000   0.00000   0.00000   0.00000
   scf:   17    -3998.685602    -3998.685595    -3998.685595  0.000158 -3.847458  0.001962
     spin moment: S , {S} =    0.00000   0.00000   0.00000   0.00000
   scf:   18    -3998.685602    -3998.685598    -3998.685599  0.000127 -3.847586  0.001231
     spin moment: S , {S} =    0.00000   0.00000   0.00000   0.00000
   scf:   19    -3998.685600    -3998.685599    -3998.685600  0.000077 -3.847625  0.000779
     spin moment: S , {S} =    0.00000   0.00000   0.00000   0.00000
   scf:   20    -3998.685599    -3998.685599    -3998.685600  0.000035 -3.847649  0.000524
     spin moment: S , {S} =    0.00000   0.00000   0.00000   0.00000
   scf:   21    -3998.685599    -3998.685599    -3998.685600  0.000030 -3.847662  0.000368
     spin moment: S , {S} =    0.00000   0.00000   0.00000   0.00000
   scf:   22    -3998.685599    -3998.685599    -3998.685600  0.000031 -3.847680  0.000178
     spin moment: S , {S} =    0.00000   0.00000   0.00000   0.00000
   scf:   23    -3998.685599    -3998.685599    -3998.685600  0.000015 -3.847684  0.000142
     spin moment: S , {S} =    0.00000   0.00000   0.00000   0.00000
   scf:   24    -3998.685599    -3998.685599    -3998.685600  0.000013 -3.847683  0.000079
     spin moment: S , {S} =    0.00000   0.00000   0.00000   0.00000
mix: Pulay -- resetting history
   scf:   25    -3998.685599    -3998.685599    -3998.685600  0.000011 -3.847680  0.000040
     spin moment: S , {S} =    0.00000   0.00000   0.00000   0.00000
   scf:   26    -3998.685599    -3998.685599    -3998.685600  0.000004 -3.847677  0.000026
     spin moment: S , {S} =    0.00000   0.00000   0.00000   0.00000
   scf:   27    -3998.685599    -3998.685599    -3998.685600  0.000003 -3.847676  0.000017
     spin moment: S , {S} =    0.00000   0.00000   0.00000   0.00000
   scf:   28    -3998.685599    -3998.685599    -3998.685600  0.000002 -3.847675  0.000008
     spin moment: S , {S} =    0.00000  -0.00000   0.00000   0.00000
   scf:   29    -3998.685599    -3998.685599    -3998.685600  0.000001 -3.847677  0.000006
     spin moment: S , {S} =    0.00000  -0.00000   0.00000   0.00000
   scf:   30    -3998.685599    -3998.685599    -3998.685600  0.000001 -3.847677  0.000003
     spin moment: S , {S} =    0.00000  -0.00000   0.00000   0.00000
   scf:   31    -3998.685599    -3998.685599    -3998.685600  0.000000 -3.847677  0.000003
     spin moment: S , {S} =    0.00000  -0.00000   0.00000   0.00000
   scf:   32    -3998.685599    -3998.685599    -3998.685600  0.000000 -3.847676  0.000002
     spin moment: S , {S} =    0.00000   0.00000   0.00000  -0.00000
   scf:   33    -3998.685599    -3998.685599    -3998.685600  0.000000 -3.847676  0.000001
     spin moment: S , {S} =    0.00000  -0.00000   0.00000  -0.00000

SCF Convergence by DM+H criterion
max |DM_out - DM_in|         :     0.0000001607
max |H_out - H_in|      (eV) :     0.0000009795
SCF cycle converged after 33 iterations

Using DM_out to compute the final energy and forces
No. of atoms with KB's overlaping orbs in proc 0. Max # of overlaps:      27     134

siesta: E_KS(eV) =            -3998.6856

siesta: E_KS - E_eggbox =     -3998.6856
     spin moment: S , {S} =    0.00000  -0.00000   0.00000  -0.00000

siesta: Atomic forces (eV/Ang):
     1    0.143142   -0.027313    0.000000
     2   -0.035467    0.043793    0.000000
     3   -0.031059   -0.017889   -0.000000
     4    0.068485   -0.134410    0.000000
     5    0.054231    0.005192   -0.000000
     6   -0.193692    0.018707    0.000000
     7    1.075757   -0.042165   -0.000000
     8   -0.657211    1.417603    0.000000
     9    0.170416   -1.014518   -0.000000
    10   -0.111308    0.135013    0.000000
    11   -0.193603   -0.376645    0.000000
    12   -0.281216    0.049464   -0.000000
    13   -0.123151   -0.051944    0.000000
    14    0.031627   -0.118480    0.000000
    15    0.111411    0.096585   -0.000000
    16   -0.103764   -0.033242   -0.000950
    17    0.041309   -0.083579   -0.000790
    18   -0.151497    0.039088    0.005208
    19    0.076964   -0.044081   -0.001428
    20    0.123782    0.079550   -0.001068
    21    0.055197   -0.026330   -0.007179
    22    0.049596   -0.010190    0.138375
    23    0.000717    0.050349   -0.013282
    24    0.047526    0.019666   -0.100827
    25   -0.653282   -0.411414    0.001046
    26    2.573444    2.486825    0.000491
    27    0.349643   -0.436729   -0.000556
    28   -0.150766    0.745805   -0.000072
    29    0.139847    0.177308   -0.000225
    30   -3.027488   -2.955431    0.000256
----------------------------------------
   Tot   -0.600407   -0.419415    0.019001
----------------------------------------
   Max    3.027488
   Res    0.645119    sqrt( Sum f_i^2 / 3N )
----------------------------------------
   Max    3.027488    constrained

Stress tensor Voigt[x,y,z,yz,xz,xy] (kbar):        0.10        0.34       -0.01       -0.01        0.00        0.12
(Free)E + p*V (eV/cell)    -3999.9160
Target enthalpy (eV/cell)    -3998.6856

siesta: Stress tensor (static) (eV/Ang**3):
         0.000065    0.000078    0.000000
         0.000078    0.000213   -0.000004
         0.000000   -0.000004   -0.000005

siesta: Pressure (static):         -0.14602928  kBar

siesta: Stress tensor (total) (eV/Ang**3):
         0.000065    0.000078    0.000000
         0.000078    0.000213   -0.000004
         0.000000   -0.000004   -0.000005

siesta: Pressure (total):         -0.14602928  kBar

siesta: Temp_ion =       0.000 K

siesta: Eigenvalues (eV):
ik =     1
  -22.8413  -22.8413  -22.3321  -22.3321  -21.7193  -21.7193  -21.2739  -21.2739  -21.0269  -21.0269
  -20.9496  -20.9496  -19.4031  -19.4031  -19.2397  -19.2397  -18.6162  -18.6162  -15.0119  -15.0119
  -14.0995  -14.0995  -13.6540  -13.6540  -13.5639  -13.5639  -13.0668  -13.0668  -12.8951  -12.8951
  -12.5409  -12.5409  -12.1696  -12.1696  -11.9009  -11.9009  -11.6170  -11.6170  -11.4808  -11.4808
  -10.9934  -10.9934  -10.6078  -10.6078  -10.2081  -10.2081   -9.5331   -9.5331   -9.3160   -9.3160
   -9.1627   -9.1627   -9.0852   -9.0852   -9.0151   -9.0151   -8.7994   -8.7994   -8.5869   -8.5869
   -8.3829   -8.3829   -8.2416   -8.2416   -8.1379   -8.1379   -7.9965   -7.9965   -7.9252   -7.9252
   -7.7019   -7.7019   -7.4012   -7.4012   -7.3068   -7.3068   -7.2574   -7.2574   -6.8470   -6.8470
   -6.8414   -6.8414   -6.7098   -6.7098   -6.4142   -6.4142   -6.2574   -6.2574   -6.1722   -6.1722
   -5.8111   -5.8111   -5.6917   -5.6917   -5.5492   -5.5492   -4.2194   -4.2194   -3.4759   -3.4759
   -2.6888   -2.6888   -2.1936   -2.1936   -2.1769   -2.1769   -2.1094   -2.1094   -1.9776   -1.9776
   -1.9481   -1.9481   -1.7145   -1.7145   -1.6185   -1.6185   -1.5931   -1.5931   -1.4062   -1.4062
   -1.1457   -1.1457   -0.5783   -0.5783   -0.3153   -0.3153   -0.2056   -0.2056   -0.1720   -0.1720
   -0.0076   -0.0076    0.0625    0.0625    0.2588    0.2588    0.5335    0.5335    0.5708    0.5708
    0.6337    0.6337    0.7572    0.7572    1.2150    1.2150    1.2727    1.2727    1.3024    1.3024
    1.4592    1.4592    1.5791    1.5791    1.9165    1.9165    1.9646    1.9646    2.1767    2.1767
    2.4351    2.4351    2.7605    2.7605    2.8010    2.8010    2.8181    2.8181    2.8465    2.8465
    3.0780    3.0780    3.1144    3.1144    3.1509    3.1509    3.2620    3.2620    3.3247    3.3247
    3.6805    3.6805    3.9242    3.9242    4.2105    4.2105    4.2163    4.2163    4.2459    4.2459
    4.3772    4.3772    4.6874    4.6874    4.6924    4.6924    4.8122    4.8122    5.0732    5.0732
    5.0775    5.0775    5.2194    5.2194    5.5670    5.5670    5.7150    5.7150    5.7523    5.7523
    5.8934    5.8934    6.0692    6.0692    6.1633    6.1633    6.2282    6.2282    6.3249    6.3249
    6.6029    6.6029    6.6195    6.6195    6.8311    6.8311    7.0520    7.0520    7.2197    7.2197
    7.2633    7.2633    7.4832    7.4832    7.6394    7.6394    7.8575    7.8575    7.9845    7.9845
    7.9977    7.9977    8.1750    8.1750    8.3684    8.3684    8.3800    8.3800    8.6974    8.6974
    8.9381    8.9381    8.9867    8.9867    9.0199    9.0199    9.2931    9.2931    9.6202    9.6202
    9.6671    9.6671    9.8065    9.8065    9.8405    9.8405    9.9284    9.9284    9.9479    9.9479
   10.1791   10.1791   10.4656   10.4656   10.6571   10.6571   10.9502   10.9502   10.9857   10.9857
   11.3045   11.3045   11.4283   11.4283   11.6343   11.6343   11.6784   11.6784   11.7000   11.7000
   11.9354   11.9354   12.3121   12.3121   12.3431   12.3431   12.4142   12.4142   12.6358   12.6358
   12.9393   12.9393   12.9541   12.9541   13.0541   13.0541   13.2818   13.2818   13.4012   13.4012
   13.4725   13.4725   13.7413   13.7413   14.5072   14.5072   14.6633   14.6633   14.7464   14.7464
   14.8165   14.8165   14.9475   14.9475   15.1544   15.1544   16.1098   16.1098   16.5627   16.5627
   16.8039   16.8039   16.9213   16.9213   17.0278   17.0278   17.1902   17.1902   17.4497   17.4497
   18.2386   18.2386   18.2592   18.2592   18.5812   18.5812   18.7645   18.7645   18.8470   18.8470
   18.8952   18.8952   19.5481   19.5481   19.8868   19.8868   20.0264   20.0264   20.2564   20.2564
   20.7288   20.7288   21.1149   21.1149   21.1950   21.1950   21.7027   21.7027   22.2863   22.2863
   22.3225   22.3225   22.8945   22.8945   22.9897   22.9897   23.1967   23.1967   23.8434   23.8434
   24.5952   24.5952   24.8325   24.8325   24.8529   24.8529   25.8057   25.8057   25.9426   25.9426
   26.1475   26.1475   26.5617   26.5617   26.6073   26.6073   27.7765   27.7765   28.0551   28.0551
   28.4260   28.4260   28.5099   28.5099   29.2349   29.2349   29.5207   29.5207   30.4808   30.4808
   30.8108   30.8108   30.8560   30.8560   30.9517   30.9517   31.3986   31.3986   31.6466   31.6466
   31.7815   31.7815   32.0386   32.0386   32.1816   32.1816   33.4004   33.4004   33.4976   33.4976
   33.7551   33.7551   34.0852   34.0852   34.5169   34.5169   34.9057   34.9057   34.9339   34.9339
   35.5115   35.5115   36.0243   36.0243   36.1666   36.1666   37.1928   37.1928   37.5729   37.5729
   37.5873   37.5873   37.8260   37.8260   38.1515   38.1515   38.4641   38.4641   38.4962   38.4962
   39.1477   39.1477   40.2657   40.2657   40.2993   40.2993   40.7755   40.7755   41.2158   41.2158
   41.7312   41.7312   41.8955   41.8955   41.9385   41.9385   43.3321   43.3321   43.4928   43.4928
   43.9309   43.9309   44.5938   44.5938   44.8993   44.8993   44.9365   44.9365   45.1937   45.1937
   45.6243   45.6243   45.8019   45.8019   45.9995   45.9995   46.6271   46.6271   47.0449   47.0449
   47.1265   47.1265   47.4538   47.4538   48.6502   48.6502   48.8287   48.8287   49.3863   49.3863
   49.7264   49.7264   50.2426   50.2426   50.3224   50.3224   50.3491   50.3491   50.4720   50.4720
   51.7649   51.7649   52.6783   52.6783   52.7627   52.7627   53.9807   53.9807   54.3868   54.3868
   54.8718   54.8718   54.9089   54.9089   56.0893   56.0893   56.1254   56.1254   56.2396   56.2396
   56.9478   56.9478   57.7782   57.7782   58.0154   58.0154   58.4179   58.4179   59.6961   59.6961
   60.0680   60.0680   61.2447   61.2447   61.7479   61.7479   62.8729   62.8729   63.3720   63.3720
   65.3037   65.3037   65.4762   65.4762   67.0868   67.0868   67.3516   67.3516   68.4617   68.4617
   68.4736   68.4736   70.6061   70.6061   72.0214   72.0214   76.5563   76.5563   88.6870   88.6870
   91.9057   91.9057   93.0888   93.0888   95.1159   95.1159   96.5591   96.5591  100.2009  100.2009
  100.7920  100.7920  102.6039  102.6039  114.3333  114.3333  118.3821  118.3821  123.2996  123.2996
  132.4989  132.4989  138.8182  138.8182
siesta: Fermi energy =      -3.847676 eV

siesta: Program's energy decomposition (eV):
siesta: Ebs     =     -1111.149595
siesta: Eions   =      3553.971015
siesta: Ena     =       374.984508
siesta: Ekin    =      2742.952421
siesta: Enl     =     -2522.623611
siesta: Eso     =        -0.004664
siesta: Edftu   =         0.000000
siesta: DEna    =        36.863470
siesta: DUscf   =        13.897473
siesta: DUext   =         0.000000
siesta: Exc     =     -1090.784181
siesta: eta*DQ  =         0.000000
siesta: Emadel  =         0.000000
siesta: Emeta   =         0.000000
siesta: Emolmec =         0.000000
siesta: Ekinion =         0.000000
siesta: Eharris =     -3998.685599
siesta: Etot    =     -3998.685599
siesta: FreeEng =     -3998.685600

siesta: Final energy (eV):
siesta:  Band Struct. =   -1111.149595
siesta:       Kinetic =    2742.952421
siesta:       Hartree =   11991.937802
siesta:       Edftu   =       0.000000
siesta:       Eso     =      -0.004664
siesta:    Ext. field =       0.000000
siesta:   Exch.-corr. =   -1090.784181
siesta:  Ion-electron =  -26422.347735
siesta:       Ion-ion =    8779.560757
siesta:       Ekinion =       0.000000
siesta:         Total =   -3998.685599
siesta:         Fermi =      -3.847676

siesta: Atomic forces (eV/Ang):
siesta:      1    0.143142   -0.027313    0.000000
siesta:      2   -0.035467    0.043793    0.000000
siesta:      3   -0.031059   -0.017889   -0.000000
siesta:      4    0.068485   -0.134410    0.000000
siesta:      5    0.054231    0.005192   -0.000000
siesta:      6   -0.193692    0.018707    0.000000
siesta:      7    1.075757   -0.042165   -0.000000
siesta:      8   -0.657211    1.417603    0.000000
siesta:      9    0.170416   -1.014518   -0.000000
siesta:     10   -0.111308    0.135013    0.000000
siesta:     11   -0.193603   -0.376645    0.000000
siesta:     12   -0.281216    0.049464   -0.000000
siesta:     13   -0.123151   -0.051944    0.000000
siesta:     14    0.031627   -0.118480    0.000000
siesta:     15    0.111411    0.096585   -0.000000
siesta:     16   -0.103764   -0.033242   -0.000950
siesta:     17    0.041309   -0.083579   -0.000790
siesta:     18   -0.151497    0.039088    0.005208
siesta:     19    0.076964   -0.044081   -0.001428
siesta:     20    0.123782    0.079550   -0.001068
siesta:     21    0.055197   -0.026330   -0.007179
siesta:     22    0.049596   -0.010190    0.138375
siesta:     23    0.000717    0.050349   -0.013282
siesta:     24    0.047526    0.019666   -0.100827
siesta:     25   -0.653282   -0.411414    0.001046
siesta:     26    2.573444    2.486825    0.000491
siesta:     27    0.349643   -0.436729   -0.000556
siesta:     28   -0.150766    0.745805   -0.000072
siesta:     29    0.139847    0.177308   -0.000225
siesta:     30   -3.027488   -2.955431    0.000256
siesta: ----------------------------------------
siesta:    Tot   -0.600407   -0.419415    0.019001

siesta: Stress tensor (static) (eV/Ang**3):
siesta:     0.000065    0.000078    0.000000
siesta:     0.000078    0.000213   -0.000004
siesta:     0.000000   -0.000004   -0.000005

siesta: Cell volume =      13500.000000 Ang**3

siesta: Pressure (static):
siesta:                Solid            Molecule  Units
siesta:          -0.00000099          0.00000559  Ry/Bohr**3
siesta:          -0.00009114          0.00051303  eV/Ang**3
siesta:          -0.14602928          0.82196879  kBar
(Free)E+ p_basis*V_orbitals  =       -3977.557515
(Free)Eharris+ p_basis*V_orbitals  =       -3977.557515
     spin moment: S , {S} =    0.00000  -0.00000   0.00000  -0.00000

siesta: Electric dipole (a.u.)  =   -1.166668    1.564636   -0.001837
siesta: Electric dipole (Debye) =   -2.965376    3.976910   -0.004668

cite: Please see "AT.bib" for an exhaustive BiBTeX file.
cite: Please clearly indicate Siesta version in published work: v4.1.5-1-g384057250
cite: This calculation has made use of the following articles
cite: which are encouraged to be cited in a published work.
        Primary SIESTA paper
          DOI: www.doi.org/10.1088/0953-8984/14/11/302
        Spin-orbit coupling (on-site approximation)
          DOI: www.doi.org/10.1088/0953-8984/19/19/489001


WARNING: alloc-realloc-dealloc name mismatch
         Name: atomlist isa
         Size:              -120. Bytes
         Node:     0
         Subsequent mismatches will not be reported
>> End of run:   1-FEB-2024  21:02:32
Job completed
