Siesta Version  : v4.1.5-1-g384057250
Architecture    : gcc
Compiler version: GNU Fortran (Ubuntu 11.3.0-1ubuntu1~22.04) 11.3.0
Compiler flags  : mpifort -O2 -fPIC -ftree-vectorize -fallow-argument-mismatch
PP flags        : -DFC_HAVE_ABORT -DMPI -DSIESTA__FLOOK -DSIESTA__METIS -DSIESTA__MUMPS -DCDF -DNCDF -DNCDF_4 -DNCDF_PARALLEL -DSIESTA__MRRR -DSIESTA__ELPA
Libraries       : libncdf.a libfdict.a  -lflookall -ldl -lnetcdff -lnetcdf -lhdf5_hl -lhdf5 -lhdf5_fortran -lz -lscalapack-openmpi -lopenblas -lmetis -lzmumps -lcmumps -ldmumps -lmumps_common -lpord -lsmumps -lesmumps -lscotch -lscotcherr -fopenmp -lelpa
PARALLEL version
NetCDF support
NetCDF-4 support
NetCDF-4 MPI-IO support
METIS ordering support
Lua support

* Running on 4 nodes in parallel
>> Start of run:   4-JUL-2023   9:22:10

                           ***********************       
                           *  WELCOME TO SIESTA  *       
                           ***********************       

reinit: Reading from standard input
reinit: Dumped input in INPUT_TMP.57129
************************** Dump of input data file ****************************
SystemLabel      GC
NumberOfAtoms    29
NumberOfSpecies  4
%block ChemicalSpeciesLabel
    1    8  O
    2    7  N
    3   14  Si
    4    1  H
%endblock ChemicalSpeciesLabel
# Single point calculation
MD.TypeOfRun                CG
MD.Steps                    0
SCF.MustConverge            F # In case it does not. There can be 2 very close atoms
AtomicCoordinatesFormat NotScaledCartesianAng
%block AtomicCoordinatesAndAtomicSpecies
0.958671510    3.803529300    0.000000000       1
-3.038688210   0.998073330    0.000000000       2
2.066567750    1.099065770    0.000000000       2
1.029569860    -1.834680850   0.000000000       2
-2.108567660   -1.881798240   0.000000000       2
3.912411070    -1.180894430   0.000000000       2
-1.235636790   1.044983000    0.000000000       3
-0.501909240   -1.031832280   0.000000000       3
0.629463280    2.232755840    0.000000000       3
2.280054370    -0.658293540   0.000000000       3
-3.424812990   -0.662324160   0.000000000       3
2.965974160    1.682263990    0.000000000       4
-4.796229390   -1.238728480   0.000000000       4
4.096559410    -2.214148760   0.000000000       4
4.792108680    -0.529147250   0.000000000       4
-2.266861300   -2.922393730   0.000000000       4
4.551518080    4.854155130    0.000000000       3
6.476995830    6.045784460    0.000000000       3
6.012189440    2.119600760    0.000000000       3
8.083369360    4.566647350    0.000000000       3
4.653802620    3.144800440    0.000000000       2
2.972139990    5.524384620    0.000000000       2
7.665259340    2.834764440    0.000000000       2
6.785486650    7.510445820    0.000000000       4
9.575042270    4.766626810    0.000000000       4
2.787513550    6.559258350    0.000000000       4
2.080048200    4.853095890    0.000000000       4
6.002058840    0.521372240    0.000000000       1
8.441857720    2.112934240    0.000000000       4
%endblock AtomicCoordinatesAndAtomicSpecies
%include ../../../Defaults.fdf
************************** End of input data file *****************************

reinit: -----------------------------------------------------------------------
reinit: System Name: 
reinit: -----------------------------------------------------------------------
reinit: System Label: GC
reinit: -----------------------------------------------------------------------

initatom: Reading input for the pseudopotentials and atomic orbitals ----------
Species number:   1 Atomic number:    8 Label: O
Species number:   2 Atomic number:    7 Label: N
Species number:   3 Atomic number:   14 Label: Si
Species number:   4 Atomic number:    1 Label: H

Ground state valence configuration:   2s02  2p04
Reading pseudopotential information in formatted form from O.psf

Pseudopotential generated from a relativistic atomic calculation

Valence configuration for pseudopotential generation:
2s( 2.00) rc: 0.45
2p( 4.00) rc: 0.92
3d( 0.00) rc: 2.24
4f( 0.00) rc: 0.25
Ground state valence configuration:   2s02  2p03
Reading pseudopotential information in formatted form from N.psf

Pseudopotential generated from a relativistic atomic calculation

Valence configuration for pseudopotential generation:
2s( 2.00) rc: 0.94
2p( 3.00) rc: 0.59
3d( 0.00) rc: 3.46
4f( 0.00) rc: 2.47
Ground state valence configuration:   3s02  3p02
Reading pseudopotential information in formatted form from Si.psf

Pseudopotential generated from a relativistic atomic calculation

Valence configuration for pseudopotential generation:
3s( 2.00) rc: 1.67
3p( 2.00) rc: 2.04
3d( 0.00) rc: 2.89
4f( 0.00) rc: 2.49
Ground state valence configuration:   1s01
Reading pseudopotential information in formatted form from H.psf

Pseudopotential generated from a relativistic atomic calculation

Valence configuration for pseudopotential generation:
1s( 1.00) rc: 0.01
2p( 0.00) rc: 0.60
3d( 0.00) rc: 1.99
4f( 0.00) rc: 2.49
For O, standard SIESTA heuristics set lmxkb to 3
 (one more than the basis l, including polarization orbitals).
Use PS.lmax or PS.KBprojectors blocks to override.
For N, standard SIESTA heuristics set lmxkb to 3
 (one more than the basis l, including polarization orbitals).
Use PS.lmax or PS.KBprojectors blocks to override.
For Si, standard SIESTA heuristics set lmxkb to 3
 (one more than the basis l, including polarization orbitals).
Use PS.lmax or PS.KBprojectors blocks to override.
For H, standard SIESTA heuristics set lmxkb to 2
 (one more than the basis l, including polarization orbitals).
Use PS.lmax or PS.KBprojectors blocks to override.

<basis_specs>
===============================================================================
O                    Z=   8    Mass=  16.000        Charge= 0.17977+309
Lmxo=1 Lmxkb= 3    BasisType=split      Semic=F
L=0  Nsemic=0  Cnfigmx=2
          i=1  nzeta=2  polorb=0  (2s)
            splnorm:   0.28000    
               vcte:    0.0000    
               rinn:    0.0000    
               qcoe:    0.0000    
               qyuk:    0.0000    
               qwid:   0.10000E-01
                rcs:    0.0000      0.0000    
            lambdas:    1.0000      1.0000    
L=1  Nsemic=0  Cnfigmx=2
          i=1  nzeta=2  polorb=1  (2p)
            splnorm:   0.28000    
               vcte:    0.0000    
               rinn:    0.0000    
               qcoe:    0.0000    
               qyuk:    0.0000    
               qwid:   0.10000E-01
                rcs:    0.0000      0.0000    
            lambdas:    1.0000      1.0000    
-------------------------------------------------------------------------------
L=0  Nkbl=1  erefs: 0.17977+309
L=1  Nkbl=1  erefs: 0.17977+309
L=2  Nkbl=1  erefs: 0.17977+309
L=3  Nkbl=1  erefs: 0.17977+309
===============================================================================
</basis_specs>

atom: Called for O                     (Z =   8)

read_vps: Pseudopotential generation method:
read_vps: ATM4.2.7  Troullier-Martins                       
Valence charge for ps generation:    6.00000

xc_check: Exchange-correlation functional:
xc_check: GGA Perdew, Burke & Ernzerhof 1996
V l=0 = -2*Zval/r beyond r=  1.1000
V l=1 = -2*Zval/r beyond r=  1.1000
V l=2 = -2*Zval/r beyond r=  2.2154
V l=3 = -2*Zval/r beyond r=  1.1000
All V_l potentials equal beyond r=  2.2154
This should be close to max(r_c) in ps generation
All pots = -2*Zval/r beyond r=  2.2154

VLOCAL1: 99.0% of the norm of Vloc inside      8.845 Ry
VLOCAL1: 99.9% of the norm of Vloc inside     20.157 Ry
atom: Maximum radius for 4*pi*r*r*local-pseudopot. charge    2.67231
atom: Maximum radius for r*vlocal+2*Zval:    2.32897
GHOST: No ghost state for L =  0
GHOST: No ghost state for L =  1
GHOST: No ghost state for L =  2
GHOST: No ghost state for L =  3

KBgen: Kleinman-Bylander projectors: 
   l= 0   rc=  2.243238   el= -1.759686   Ekb=**********   kbcos= -0.171774
   l= 1   rc=  2.328968   el= -0.663873   Ekb=-14.506792   kbcos= -0.519897
   l= 2   rc=  2.573941   el=  0.002031   Ekb= -1.137373   kbcos= -0.019581
   l= 3   rc=  2.606321   el=  0.003153   Ekb= -1.013546   kbcos= -0.003122

KBgen: Total number of Kleinman-Bylander projectors:   16
atom: -------------------------------------------------------------------------

atom: SANKEY-TYPE ORBITALS:
atom: Selected multiple-zeta basis: split     

SPLIT: Orbitals with angular momentum L= 0

SPLIT: Basis orbitals for state 2s

SPLIT: PAO cut-off radius determined from an
SPLIT: energy shift=  0.002000 Ry

   izeta = 1
                 lambda =    1.000000
                     rc =    4.243912
                 energy =   -1.758270
                kinetic =    3.286084
    potential(screened) =   -5.044353
       potential(ionic) =  -12.921184

   izeta = 2
                 rmatch =    2.187845
              splitnorm =    0.280000
                 energy =   -0.885018
                kinetic =    8.134434
    potential(screened) =   -9.019452
       potential(ionic) =  -17.710645

SPLIT: Orbitals with angular momentum L= 1

SPLIT: Basis orbitals for state 2p

SPLIT: PAO cut-off radius determined from an
SPLIT: energy shift=  0.002000 Ry

   izeta = 1
                 lambda =    1.000000
                     rc =    5.314825
                 energy =   -0.661986
                kinetic =    4.917472
    potential(screened) =   -5.579458
       potential(ionic) =  -13.236259

   izeta = 2
                 rmatch =    2.160663
              splitnorm =    0.280000
                 energy =   -0.068760
                kinetic =    9.183374
    potential(screened) =   -9.252135
       potential(ionic) =  -18.274251

POLgen: Perturbative polarization orbital with L=  2

POLgen: Polarization orbital for state 2p

   izeta = 1
                     rc =    5.314825
                 energy =    1.970580
                kinetic =    3.886128
    potential(screened) =   -1.915547
       potential(ionic) =   -7.749584
atom: Total number of Sankey-type orbitals: 13

atm_pop: Valence configuration (for local Pseudopot. screening):
 2s( 2.00)                                                            
 2p( 4.00)                                                            
Vna: chval, zval:    6.00000   6.00000

Vna:  Cut-off radius for the neutral-atom potential:   5.314825

atom: _________________________________________________________________________

<basis_specs>
===============================================================================
N                    Z=   7    Mass=  14.010        Charge= 0.17977+309
Lmxo=1 Lmxkb= 3    BasisType=split      Semic=F
L=0  Nsemic=0  Cnfigmx=2
          i=1  nzeta=2  polorb=0  (2s)
            splnorm:   0.28000    
               vcte:    0.0000    
               rinn:    0.0000    
               qcoe:    0.0000    
               qyuk:    0.0000    
               qwid:   0.10000E-01
                rcs:    0.0000      0.0000    
            lambdas:    1.0000      1.0000    
L=1  Nsemic=0  Cnfigmx=2
          i=1  nzeta=2  polorb=1  (2p)
            splnorm:   0.28000    
               vcte:    0.0000    
               rinn:    0.0000    
               qcoe:    0.0000    
               qyuk:    0.0000    
               qwid:   0.10000E-01
                rcs:    0.0000      0.0000    
            lambdas:    1.0000      1.0000    
-------------------------------------------------------------------------------
L=0  Nkbl=1  erefs: 0.17977+309
L=1  Nkbl=1  erefs: 0.17977+309
L=2  Nkbl=1  erefs: 0.17977+309
L=3  Nkbl=1  erefs: 0.17977+309
===============================================================================
</basis_specs>

atom: Called for N                     (Z =   7)

read_vps: Pseudopotential generation method:
read_vps: ATM4.2.7  Troullier-Martins                       
Valence charge for ps generation:    5.00000

xc_check: Exchange-correlation functional:
xc_check: GGA Perdew, Burke & Ernzerhof 1996
V l=0 = -2*Zval/r beyond r=  1.2889
V l=1 = -2*Zval/r beyond r=  1.2889
V l=2 = -2*Zval/r beyond r=  3.4178
V l=3 = -2*Zval/r beyond r=  2.4084
All V_l potentials equal beyond r=  3.3753
This should be close to max(r_c) in ps generation
All pots = -2*Zval/r beyond r=  3.4178

VLOCAL1: 99.0% of the norm of Vloc inside      3.810 Ry
VLOCAL1: 99.9% of the norm of Vloc inside      8.683 Ry
atom: Maximum radius for 4*pi*r*r*local-pseudopot. charge    4.02088
atom: Maximum radius for r*vlocal+2*Zval:    3.54838
GHOST: No ghost state for L =  0
GHOST: No ghost state for L =  1
GHOST: No ghost state for L =  2
GHOST: No ghost state for L =  3

KBgen: Kleinman-Bylander projectors: 
   l= 0   rc=  3.417763   el= -1.365098   Ekb= -4.433130   kbcos= -0.707855
   l= 1   rc=  3.375302   el= -0.521201   Ekb=-13.264039   kbcos= -0.535594
   l= 2   rc=  3.872880   el=  0.001991   Ekb= -0.641094   kbcos= -0.062456
   l= 3   rc=  3.970931   el=  0.003093   Ekb= -0.474517   kbcos= -0.018236

KBgen: Total number of Kleinman-Bylander projectors:   16
atom: -------------------------------------------------------------------------

atom: SANKEY-TYPE ORBITALS:
atom: Selected multiple-zeta basis: split     

SPLIT: Orbitals with angular momentum L= 0

SPLIT: Basis orbitals for state 2s

SPLIT: PAO cut-off radius determined from an
SPLIT: energy shift=  0.002000 Ry

   izeta = 1
                 lambda =    1.000000
                     rc =    4.730425
                 energy =   -1.363399
                kinetic =    1.245246
    potential(screened) =   -2.608645
       potential(ionic) =   -8.121105

   izeta = 2
                 rmatch =    2.531849
              splitnorm =    0.280000
                 energy =   -0.959908
                kinetic =    2.409435
    potential(screened) =   -3.369343
       potential(ionic) =   -9.427975

SPLIT: Orbitals with angular momentum L= 1

SPLIT: Basis orbitals for state 2p

SPLIT: PAO cut-off radius determined from an
SPLIT: energy shift=  0.002000 Ry

   izeta = 1
                 lambda =    1.000000
                     rc =    5.924108
                 energy =   -0.519262
                kinetic =    3.672940
    potential(screened) =   -4.192202
       potential(ionic) =   -9.518354

   izeta = 2
                 rmatch =    2.531849
              splitnorm =    0.280000
                 energy =   -0.104258
                kinetic =    6.807538
    potential(screened) =   -6.911796
       potential(ionic) =  -13.149920

POLgen: Perturbative polarization orbital with L=  2

POLgen: Polarization orbital for state 2p

   izeta = 1
                     rc =    5.924108
                 energy =    1.427508
                kinetic =    2.872379
    potential(screened) =   -1.444871
       potential(ionic) =   -5.563644
atom: Total number of Sankey-type orbitals: 13

atm_pop: Valence configuration (for local Pseudopot. screening):
 2s( 2.00)                                                            
 2p( 3.00)                                                            
Vna: chval, zval:    5.00000   5.00000

Vna:  Cut-off radius for the neutral-atom potential:   5.924108

atom: _________________________________________________________________________

<basis_specs>
===============================================================================
Si                   Z=  14    Mass=  28.090        Charge= 0.17977+309
Lmxo=1 Lmxkb= 3    BasisType=split      Semic=F
L=0  Nsemic=0  Cnfigmx=3
          i=1  nzeta=2  polorb=0  (3s)
            splnorm:   0.28000    
               vcte:    0.0000    
               rinn:    0.0000    
               qcoe:    0.0000    
               qyuk:    0.0000    
               qwid:   0.10000E-01
                rcs:    0.0000      0.0000    
            lambdas:    1.0000      1.0000    
L=1  Nsemic=0  Cnfigmx=3
          i=1  nzeta=2  polorb=1  (3p)
            splnorm:   0.28000    
               vcte:    0.0000    
               rinn:    0.0000    
               qcoe:    0.0000    
               qyuk:    0.0000    
               qwid:   0.10000E-01
                rcs:    0.0000      0.0000    
            lambdas:    1.0000      1.0000    
-------------------------------------------------------------------------------
L=0  Nkbl=1  erefs: 0.17977+309
L=1  Nkbl=1  erefs: 0.17977+309
L=2  Nkbl=1  erefs: 0.17977+309
L=3  Nkbl=1  erefs: 0.17977+309
===============================================================================
</basis_specs>

atom: Called for Si                    (Z =  14)

read_vps: Pseudopotential generation method:
read_vps: ATM4.2.7  Troullier-Martins                       
Valence charge for ps generation:    4.00000

xc_check: Exchange-correlation functional:
xc_check: GGA Perdew, Burke & Ernzerhof 1996
V l=0 = -2*Zval/r beyond r=  2.7826
V l=1 = -2*Zval/r beyond r=  2.7826
V l=2 = -2*Zval/r beyond r=  2.9253
V l=3 = -2*Zval/r beyond r=  2.7826
All V_l potentials equal beyond r=  2.8530
This should be close to max(r_c) in ps generation
All pots = -2*Zval/r beyond r=  2.9253

VLOCAL1: 99.0% of the norm of Vloc inside      5.333 Ry
VLOCAL1: 99.9% of the norm of Vloc inside     12.154 Ry
atom: Maximum radius for 4*pi*r*r*local-pseudopot. charge    3.39869
atom: Maximum radius for r*vlocal+2*Zval:    2.96205
GHOST: No ghost state for L =  0
GHOST: No ghost state for L =  1
GHOST: No ghost state for L =  2
GHOST: No ghost state for L =  3

KBgen: Kleinman-Bylander projectors: 
   l= 0   rc=  3.075247   el= -0.794092   Ekb=  5.879390   kbcos=  0.167461
   l= 1   rc=  3.153101   el= -0.300068   Ekb=  2.642817   kbcos=  0.058301
   l= 2   rc=  3.273594   el=  0.001958   Ekb= -1.185135   kbcos= -0.104411
   l= 3   rc=  3.232927   el=  0.003046   Ekb= -0.497174   kbcos= -0.015889

KBgen: Total number of Kleinman-Bylander projectors:   16
atom: -------------------------------------------------------------------------

atom: SANKEY-TYPE ORBITALS:
atom: Selected multiple-zeta basis: split     

SPLIT: Orbitals with angular momentum L= 0

SPLIT: Basis orbitals for state 3s

SPLIT: PAO cut-off radius determined from an
SPLIT: energy shift=  0.002000 Ry

   izeta = 1
                 lambda =    1.000000
                     rc =    6.429618
                 energy =   -0.792283
                kinetic =    0.525293
    potential(screened) =   -1.317576
       potential(ionic) =   -3.744923

   izeta = 2
                 rmatch =    3.998416
              splitnorm =    0.280000
                 energy =   -0.583081
                kinetic =    1.069570
    potential(screened) =   -1.652651
       potential(ionic) =   -4.235185

SPLIT: Orbitals with angular momentum L= 1

SPLIT: Basis orbitals for state 3p

SPLIT: PAO cut-off radius determined from an
SPLIT: energy shift=  0.002000 Ry

   izeta = 1
                 lambda =    1.000000
                     rc =    8.464845
                 energy =   -0.298236
                kinetic =    0.785360
    potential(screened) =   -1.083596
       potential(ionic) =   -3.273779

   izeta = 2
                 rmatch =    4.587816
              splitnorm =    0.280000
                 energy =   -0.131871
                kinetic =    1.403687
    potential(screened) =   -1.535557
       potential(ionic) =   -4.015310

POLgen: Perturbative polarization orbital with L=  2

POLgen: Polarization orbital for state 3p

   izeta = 1
                     rc =    8.464845
                 energy =    0.321949
                kinetic =    1.055677
    potential(screened) =   -0.733728
       potential(ionic) =   -2.672950
atom: Total number of Sankey-type orbitals: 13

atm_pop: Valence configuration (for local Pseudopot. screening):
 3s( 2.00)                                                            
 3p( 2.00)                                                            
Vna: chval, zval:    4.00000   4.00000

Vna:  Cut-off radius for the neutral-atom potential:   8.464845

atom: _________________________________________________________________________

<basis_specs>
===============================================================================
H                    Z=   1    Mass=  1.0100        Charge= 0.17977+309
Lmxo=0 Lmxkb= 2    BasisType=split      Semic=F
L=0  Nsemic=0  Cnfigmx=1
          i=1  nzeta=2  polorb=1  (1s)
            splnorm:   0.62000    
               vcte:    0.0000    
               rinn:    0.0000    
               qcoe:    0.0000    
               qyuk:    0.0000    
               qwid:   0.10000E-01
                rcs:    0.0000      0.0000    
            lambdas:    1.0000      1.0000    
-------------------------------------------------------------------------------
L=0  Nkbl=1  erefs: 0.17977+309
L=1  Nkbl=1  erefs: 0.17977+309
L=2  Nkbl=1  erefs: 0.17977+309
===============================================================================
</basis_specs>

atom: Called for H                     (Z =   1)

read_vps: Pseudopotential generation method:
read_vps: ATM4.2.7  Troullier-Martins                       
Valence charge for ps generation:    1.00000

xc_check: Exchange-correlation functional:
xc_check: GGA Perdew, Burke & Ernzerhof 1996
V l=0 = -2*Zval/r beyond r=  0.0098
V l=1 = -2*Zval/r beyond r=  0.5817
V l=2 = -2*Zval/r beyond r=  1.9372
All V_l potentials equal beyond r=  1.9372
This should be close to max(r_c) in ps generation
All pots = -2*Zval/r beyond r=  1.9372

VLOCAL1: 99.0% of the norm of Vloc inside     11.567 Ry
VLOCAL1: 99.9% of the norm of Vloc inside     26.362 Ry
atom: Maximum radius for 4*pi*r*r*local-pseudopot. charge    2.25106
atom: Maximum radius for r*vlocal+2*Zval:    1.91306
GHOST: No ghost state for L =  0
GHOST: No ghost state for L =  1
GHOST: No ghost state for L =  2

KBgen: Kleinman-Bylander projectors: 
   l= 0   rc=  2.036604   el= -0.477180   Ekb= -6.081590   kbcos= -0.277285
   l= 1   rc=  2.195416   el=  0.001076   Ekb= -0.926943   kbcos= -0.034643
   l= 2   rc=  2.251056   el=  0.002010   Ekb= -0.130941   kbcos= -0.009788

KBgen: Total number of Kleinman-Bylander projectors:    9
atom: -------------------------------------------------------------------------

atom: SANKEY-TYPE ORBITALS:
atom: Selected multiple-zeta basis: split     

SPLIT: Orbitals with angular momentum L= 0

SPLIT: Basis orbitals for state 1s

SPLIT: PAO cut-off radius determined from an
SPLIT: energy shift=  0.002000 Ry

   izeta = 1
                 lambda =    1.000000
                     rc =    6.518340
                 energy =   -0.475305
                kinetic =    0.912139
    potential(screened) =   -1.387444
       potential(ionic) =   -1.907295

   izeta = 2
                 rmatch =    2.141150
              splitnorm =    0.620000
                 energy =    0.566467
                kinetic =    3.772856
    potential(screened) =   -3.206389
       potential(ionic) =   -3.759093

POLgen: Perturbative polarization orbital with L=  1

POLgen: Polarization orbital for state 1s

   izeta = 1
                     rc =    6.518340
                 energy =    0.533861
                kinetic =    1.121086
    potential(screened) =   -0.587225
       potential(ionic) =   -1.053027
atom: Total number of Sankey-type orbitals:  5

atm_pop: Valence configuration (for local Pseudopot. screening):
 1s( 1.00)                                                            
Vna: chval, zval:    1.00000   1.00000

Vna:  Cut-off radius for the neutral-atom potential:   6.518340

atom: _________________________________________________________________________

prinput: Basis input ----------------------------------------------------------

PAO.BasisType split     

%block ChemicalSpeciesLabel
    1    8 O                       # Species index, atomic number, species label
    2    7 N                       # Species index, atomic number, species label
    3   14 Si                      # Species index, atomic number, species label
    4    1 H                       # Species index, atomic number, species label
%endblock ChemicalSpeciesLabel

%block PAO.Basis                 # Define Basis set
O                     2                    # Species label, number of l-shells
 n=2   0   2                         # n, l, Nzeta 
   4.244      2.188   
   1.000      1.000   
 n=2   1   2 P   1                   # n, l, Nzeta, Polarization, NzetaPol
   5.315      2.161   
   1.000      1.000   
N                     2                    # Species label, number of l-shells
 n=2   0   2                         # n, l, Nzeta 
   4.730      2.532   
   1.000      1.000   
 n=2   1   2 P   1                   # n, l, Nzeta, Polarization, NzetaPol
   5.924      2.532   
   1.000      1.000   
Si                    2                    # Species label, number of l-shells
 n=3   0   2                         # n, l, Nzeta 
   6.430      3.998   
   1.000      1.000   
 n=3   1   2 P   1                   # n, l, Nzeta, Polarization, NzetaPol
   8.465      4.588   
   1.000      1.000   
H                     1                    # Species label, number of l-shells
 n=1   0   2 P   1                   # n, l, Nzeta, Polarization, NzetaPol
   6.518      2.141   
   1.000      1.000   
%endblock PAO.Basis

prinput: ----------------------------------------------------------------------

Dumping basis to NetCDF file O.ion.nc
Dumping basis to NetCDF file N.ion.nc
Dumping basis to NetCDF file Si.ion.nc
Dumping basis to NetCDF file H.ion.nc
coor:   Atomic-coordinates input format  =     Cartesian coordinates
coor:                                          (in Angstroms)

siesta: Atomic coordinates (Bohr) and species
siesta:      1.81163   7.18763   0.00000  1        1
siesta:     -5.74229   1.88609   0.00000  2        2
siesta:      3.90525   2.07693   0.00000  2        3
siesta:      1.94561  -3.46705   0.00000  2        4
siesta:     -3.98462  -3.55608   0.00000  2        5
siesta:      7.39339  -2.23157   0.00000  2        6
siesta:     -2.33502   1.97473   0.00000  3        7
siesta:     -0.94847  -1.94988   0.00000  3        8
siesta:      1.18951   4.21930   0.00000  3        9
siesta:      4.30868  -1.24399   0.00000  3       10
siesta:     -6.47196  -1.25161   0.00000  3       11
siesta:      5.60488   3.17902   0.00000  4       12
siesta:     -9.06356  -2.34086   0.00000  4       13
siesta:      7.74138  -4.18414   0.00000  4       14
siesta:      9.05578  -0.99994   0.00000  4       15
siesta:     -4.28375  -5.52253   0.00000  4       16
siesta:      8.60113   9.17303   0.00000  3       17
siesta:     12.23975  11.42488   0.00000  3       18
siesta:     11.36140   4.00547   0.00000  3       19
siesta:     15.27536   8.62972   0.00000  3       20
siesta:      8.79442   5.94281   0.00000  2       21
siesta:      5.61653  10.43958   0.00000  2       22
siesta:     14.48525   5.35693   0.00000  2       23
siesta:     12.82272  14.19269   0.00000  4       24
siesta:     18.09421   9.00762   0.00000  4       25
siesta:      5.26764  12.39521   0.00000  4       26
siesta:      3.93072   9.17103   0.00000  4       27
siesta:     11.34225   0.98525   0.00000  1       28
siesta:     15.95281   3.99287   0.00000  4       29

siesta: Automatic unit cell vectors (Ang):
siesta:   23.396982    0.000000    0.000000
siesta:    0.000000   19.064706    0.000000
siesta:    0.000000    0.000000    9.854683

siesta: System type = molecule  

initatomlists: Number of atoms, orbitals, and projectors:     29   297   394

siesta: ******************** Simulation parameters ****************************
siesta:
siesta: The following are some of the parameters of the simulation.
siesta: A complete list of the parameters used, including default values,
siesta: can be found in file out.fdf
siesta:
redata: Spin configuration                          = spin-orbit
redata: Number of spin components                   = 8
redata: Time-Reversal Symmetry                      = F
redata: Spin spiral                                 = F
############################################################
This spin-orbit implementation uses a local approximation.
From 4.2 and onwards the full non-local approximation is implemented
You are strongly advised to use >=4.2 versions!
############################################################
redata: Long output                                 =   F
redata: Number of Atomic Species                    =        4
redata: Charge density info will appear in .RHO file
redata: Write Mulliken Pop.                         = Atomic and Orbital charges
redata: Matel table size (NRTAB)                    =     1024
redata: Mesh Cutoff                                 =   340.0000 Ry
redata: Net charge of the system                    =     0.0000 |e|
redata: Min. number of SCF Iter                     =        1
redata: Max. number of SCF Iter                     =      200
redata: SCF mix quantity                            = Hamiltonian
redata: Mix DM or H after convergence               =   F
redata: Recompute H after scf cycle                 =   F
redata: Mix DM in first SCF step                    =   T
redata: Write Pulay info on disk                    =   F
redata: New DM Occupancy tolerance                  = 0.000000000001
redata: No kicks to SCF
redata: DM Mixing Weight for Kicks                  =     0.5000
redata: Require Harris convergence for SCF          =   F
redata: Harris energy tolerance for SCF             =     0.000100 eV
redata: Require DM convergence for SCF              =   T
redata: DM tolerance for SCF                        =     0.000008
redata: Require EDM convergence for SCF             =   F
redata: EDM tolerance for SCF                       =     0.001000 eV
redata: Require H convergence for SCF               =   T
redata: Hamiltonian tolerance for SCF               =     0.000001 eV
redata: Require (free) Energy convergence for SCF   =   F
redata: (free) Energy tolerance for SCF             =     0.000100 eV
redata: Using Saved Data (generic)                  =   F
redata: Use continuation files for DM               =   F
redata: Neglect nonoverlap interactions             =   F
redata: Method of Calculation                       = Diagonalization
redata: Electronic Temperature                      =   299.9978 K
redata: Fix the spin of the system                  =   F
redata: Dynamics option                             = Single-point calculation
mix.SCF: Pulay mixing                            = Pulay
mix.SCF:    Variant                              = stable
mix.SCF:    History steps                        = 6
mix.SCF:    Linear mixing weight                 =     0.250000
mix.SCF:    Mixing weight                        =     0.250000
mix.SCF:    SVD condition                        = 0.1000E-07
mix.SCF:    Restart steps                        = 24
mix.SCF:    Restart save steps                   = 3
mix.SCF: Spin-component mixing                   all
redata: Save all siesta data in one NC              =   F
redata: ***********************************************************************

%block SCF.Mixers
  Pulay
%endblock SCF.Mixers

%block SCF.Mixer.Pulay
  # Mixing method
  method pulay
  variant stable

  # Mixing options
  weight 0.2500
  weight.linear 0.2500
  history 6
  restart 24
  restart.save 3
%endblock SCF.Mixer.Pulay

DM_history_depth set to one: no extrapolation allowed by default for geometry relaxation
Size of DM history Fstack: 1
Total number of electrons:    98.000000
Total ionic charge:    98.000000

* ProcessorY, Blocksize:    2  24


* Orbital distribution balance (max,min):    81    72


Time-reversal symmetry not used.

siesta: k-grid: Number of k-points =     1
siesta: k-grid: Cutoff (effective) =     4.927 Ang
siesta: k-grid: Supercell and displacements
siesta: k-grid:    1   0   0      0.000
siesta: k-grid:    0   1   0      0.000
siesta: k-grid:    0   0   1      0.000

diag: Algorithm                                     = ELPA-1stage
diag: Parallel over k                               =   F
diag: Use parallel 2D distribution                  =   T
diag: Parallel block-size                           = 24
diag: Parallel distribution                         =     2 x     2
diag: Used triangular part                          = Lower
diag: Absolute tolerance                            =  0.100E-15
diag: Orthogonalization factor                      =  0.100E-05
diag: Memory factor                                 =  1.0000


ts: **************************************************************
ts: Save H and S matrices                           =    F
ts: Save DM and EDM matrices                        =    F
ts: Only save the overlap matrix S                  =    F
ts: **************************************************************

************************ Begin: TS CHECKS AND WARNINGS ************************
************************ End: TS CHECKS AND WARNINGS **************************


                     ====================================
                        Single-point calculation
                     ====================================

outcoor: Atomic coordinates (Ang):                          
    0.95867151    3.80352930    0.00000000   1       1  O
   -3.03868821    0.99807333    0.00000000   2       2  N
    2.06656775    1.09906577    0.00000000   2       3  N
    1.02956986   -1.83468085    0.00000000   2       4  N
   -2.10856766   -1.88179824    0.00000000   2       5  N
    3.91241107   -1.18089443    0.00000000   2       6  N
   -1.23563679    1.04498300    0.00000000   3       7  Si
   -0.50190924   -1.03183228    0.00000000   3       8  Si
    0.62946328    2.23275584    0.00000000   3       9  Si
    2.28005437   -0.65829354    0.00000000   3      10  Si
   -3.42481299   -0.66232416    0.00000000   3      11  Si
    2.96597416    1.68226399    0.00000000   4      12  H
   -4.79622939   -1.23872848    0.00000000   4      13  H
    4.09655941   -2.21414876    0.00000000   4      14  H
    4.79210868   -0.52914725    0.00000000   4      15  H
   -2.26686130   -2.92239373    0.00000000   4      16  H
    4.55151808    4.85415513    0.00000000   3      17  Si
    6.47699583    6.04578446    0.00000000   3      18  Si
    6.01218944    2.11960076    0.00000000   3      19  Si
    8.08336936    4.56664735    0.00000000   3      20  Si
    4.65380262    3.14480044    0.00000000   2      21  N
    2.97213999    5.52438462    0.00000000   2      22  N
    7.66525934    2.83476444    0.00000000   2      23  N
    6.78548665    7.51044582    0.00000000   4      24  H
    9.57504227    4.76662681    0.00000000   4      25  H
    2.78751355    6.55925835    0.00000000   4      26  H
    2.08004820    4.85309589    0.00000000   4      27  H
    6.00205884    0.52137224    0.00000000   1      28  O
    8.44185772    2.11293424    0.00000000   4      29  H

outcell: Unit cell vectors (Ang):
       23.396982    0.000000    0.000000
        0.000000   19.064706    0.000000
        0.000000    0.000000    9.854683

outcell: Cell vector modules (Ang)   :   23.396982   19.064706    9.854683
outcell: Cell angles (23,13,12) (deg):     90.0000     90.0000     90.0000
outcell: Cell volume (Ang**3)        :   4395.7463
<dSpData1D:S at geom step 0
  <sparsity:sparsity for geom step 0
    nrows_g=297 nrows=81 sparsity=.2330 nnzs=20549, refcount: 8>
  <dData1D:(new from dSpData1D) n=20549, refcount: 1>
refcount: 1>
new_DM -- step:     1
Initializing Density Matrix...
DM filled with atomic data:
<dSpData2D:DM initialized from atoms
  <sparsity:sparsity for geom step 0
    nrows_g=297 nrows=81 sparsity=.2330 nnzs=20549, refcount: 9>
  <dData2D:DM n=20549 m=8, refcount: 1>
refcount: 1>
     spin moment: S , {S} =   56.00000   0.00000   0.00000  56.00000
No. of atoms with KB's overlaping orbs in proc 0. Max # of overlaps:      29     206

Initializing spin-orbit part of the Hamiltonian
  Adding spin-orbit effects for O 
  Adding spin-orbit effects for N 
  Adding spin-orbit effects for Si
  Adding spin-orbit effects for H 


New grid distribution:   1
           1       1:  135    1:   54    1:   30
           2       1:  135    1:   54   31:   60
           3       1:  135   55:  108    1:   30
           4       1:  135   55:  108   31:   60

InitMesh: MESH =   270 x   216 x   120 =     6998400
InitMesh: (bp) =   135 x   108 x    60 =      874800
InitMesh: Mesh cutoff (required, used) =   340.000   354.772 Ry
ExtMesh (bp) on 0 =   239 x   158 x   142 =     5362204
New grid distribution:   2
           1      32:  135    1:   25    1:   60
           2       1:   31    1:   23    1:   60
           3      32:  135   26:  108    1:   60
           4       1:   31   24:  108    1:   60
New grid distribution:   3
           1      44:  135    1:   32    1:   60
           2       1:   43    1:   37    1:   60
           3      44:  135   33:  108    1:   60
           4       1:   43   38:  108    1:   60
Setting up quadratic distribution...
ExtMesh (bp) on 0 =   208 x   129 x   172 =     4615104
PhiOnMesh: Number of (b)points on node 0 =               156000
PhiOnMesh: nlist on node 0 =              2643431

stepf: Fermi-Dirac step function

siesta: Program's energy decomposition (eV):
siesta: Ebs     =      -612.469407
siesta: Eions   =      3585.165840
siesta: Ena     =       382.848685
siesta: Ekin    =      3368.377865
siesta: Enl     =     -3298.493819
siesta: Eso     =        -0.003471
siesta: Edftu   =         0.000000
siesta: DEna    =       154.692353
siesta: DUscf   =        78.005852
siesta: DUext   =         0.000000
siesta: Exc     =     -1204.955064
siesta: eta*DQ  =         0.000000
siesta: Emadel  =         0.000000
siesta: Emeta   =         0.000000
siesta: Emolmec =         0.000000
siesta: Ekinion =         0.000000
siesta: Eharris =     -4028.373790
siesta: Etot    =     -4104.693439
siesta: FreeEng =     -4104.695141

        iscf     Eharris(eV)        E_KS(eV)     FreeEng(eV)     dDmax    Ef(eV) dHmax(eV)
   scf:    1    -4028.373790    -4104.693439    -4104.695141  0.956749 -4.902967 19.925003
     spin moment: S , {S} =    2.01045   0.00000  -0.00000   2.01045
timer: Routine,Calls,Time,% = IterSCF        1      11.514  16.21
   scf:    2    -4150.820126    -4138.789457    -4138.791261  0.460865 -4.201418 10.805053
     spin moment: S , {S} =    1.98917  -0.00000  -0.00000   1.98917
   scf:    3    -4112.227781    -4136.033980    -4136.052155  0.425339 -4.255724 11.378440
     spin moment: S , {S} =    2.00011   0.00000   0.00000   2.00011
   scf:    4    -4151.617152    -4146.757246    -4146.757247  0.308194 -3.874772  5.881186
     spin moment: S , {S} =    0.00009   0.00000   0.00000   0.00009
   scf:    5    -4147.901487    -4147.418268    -4147.418268  0.038330 -3.681800  4.261470
     spin moment: S , {S} =    0.00005   0.00000   0.00000   0.00005
   scf:    6    -4148.196027    -4147.809989    -4147.809989  0.025913 -3.653630  2.030996
     spin moment: S , {S} =    0.00003   0.00000  -0.00000   0.00003
   scf:    7    -4148.158317    -4147.983985    -4147.983985  0.021433 -3.778886  0.845190
     spin moment: S , {S} =    0.00001   0.00000  -0.00000   0.00001
   scf:    8    -4148.097780    -4148.039510    -4148.039510  0.012056 -3.791422  0.448129
     spin moment: S , {S} =    0.00000   0.00000  -0.00000   0.00000
   scf:    9    -4148.077847    -4148.058092    -4148.058092  0.006802 -3.774866  0.294855
     spin moment: S , {S} =    0.00000   0.00000  -0.00000   0.00000
   scf:   10    -4148.103141    -4148.077404    -4148.077404  0.016076 -3.797239  0.128406
     spin moment: S , {S} =    0.00000  -0.00000  -0.00000  -0.00000
   scf:   11    -4148.080740    -4148.078978    -4148.078978  0.004774 -3.790317  0.052581
     spin moment: S , {S} =    0.00000   0.00000   0.00000   0.00000
   scf:   12    -4148.079912    -4148.079435    -4148.079435  0.002181 -3.787172  0.032545
     spin moment: S , {S} =    0.00000   0.00000   0.00000   0.00000
   scf:   13    -4148.080058    -4148.079728    -4148.079728  0.002009 -3.785019  0.025464
     spin moment: S , {S} =    0.00000   0.00000   0.00000   0.00000
   scf:   14    -4148.080250    -4148.079963    -4148.079963  0.002364 -3.784259  0.017546
     spin moment: S , {S} =    0.00000   0.00000   0.00000   0.00000
   scf:   15    -4148.080319    -4148.080111    -4148.080111  0.002533 -3.784388  0.009408
     spin moment: S , {S} =    0.00000   0.00000  -0.00000   0.00000
   scf:   16    -4148.080221    -4148.080153    -4148.080153  0.001648 -3.784592  0.004211
     spin moment: S , {S} =    0.00000   0.00000  -0.00000   0.00000
   scf:   17    -4148.080168    -4148.080159    -4148.080159  0.000563 -3.784786  0.002334
     spin moment: S , {S} =    0.00000   0.00000  -0.00000   0.00000
   scf:   18    -4148.080164    -4148.080161    -4148.080161  0.000268 -3.784875  0.001204
     spin moment: S , {S} =    0.00000   0.00000  -0.00000  -0.00000
   scf:   19    -4148.080163    -4148.080162    -4148.080162  0.000126 -3.784869  0.000640
     spin moment: S , {S} =    0.00000   0.00000  -0.00000  -0.00000
   scf:   20    -4148.080162    -4148.080162    -4148.080162  0.000056 -3.784817  0.000394
     spin moment: S , {S} =    0.00000   0.00000  -0.00000  -0.00000
   scf:   21    -4148.080162    -4148.080162    -4148.080162  0.000074 -3.784767  0.000202
     spin moment: S , {S} =    0.00000   0.00000  -0.00000  -0.00000
   scf:   22    -4148.080162    -4148.080162    -4148.080162  0.000015 -3.784749  0.000076
     spin moment: S , {S} =    0.00000   0.00000  -0.00000  -0.00000
   scf:   23    -4148.080162    -4148.080162    -4148.080162  0.000005 -3.784748  0.000042
     spin moment: S , {S} =    0.00000   0.00000  -0.00000  -0.00000
   scf:   24    -4148.080162    -4148.080162    -4148.080162  0.000004 -3.784745  0.000019
     spin moment: S , {S} =    0.00000   0.00000  -0.00000  -0.00000
mix: Pulay -- resetting history
   scf:   25    -4148.080162    -4148.080162    -4148.080162  0.000002 -3.784743  0.000008
     spin moment: S , {S} =    0.00000   0.00000  -0.00000  -0.00000
   scf:   26    -4148.080162    -4148.080162    -4148.080162  0.000000 -3.784743  0.000006
     spin moment: S , {S} =    0.00000   0.00000  -0.00000   0.00000
   scf:   27    -4148.080162    -4148.080162    -4148.080162  0.000000 -3.784743  0.000004
     spin moment: S , {S} =    0.00000   0.00000  -0.00000  -0.00000
   scf:   28    -4148.080162    -4148.080162    -4148.080162  0.000000 -3.784743  0.000002
     spin moment: S , {S} =    0.00000   0.00000  -0.00000  -0.00000
   scf:   29    -4148.080162    -4148.080162    -4148.080162  0.000000 -3.784743  0.000001
     spin moment: S , {S} =    0.00000   0.00000  -0.00000  -0.00000
   scf:   30    -4148.080162    -4148.080162    -4148.080162  0.000000 -3.784743  0.000001
     spin moment: S , {S} =    0.00000   0.00000  -0.00000  -0.00000

SCF Convergence by DM+H criterion
max |DM_out - DM_in|         :     0.0000001657
max |H_out - H_in|      (eV) :     0.0000005168
SCF cycle converged after 30 iterations

Using DM_out to compute the final energy and forces
No. of atoms with KB's overlaping orbs in proc 0. Max # of overlaps:      29     206

siesta: E_KS(eV) =            -4148.0802

siesta: E_KS - E_eggbox =     -4148.0802
     spin moment: S , {S} =    0.00000   0.00000  -0.00000  -0.00000

siesta: Atomic forces (eV/Ang):
     1   -1.073373   -1.645898   -0.000000
     2   -0.017772    0.001083   -0.000000
     3   -0.019867    0.002199   -0.000000
     4   -0.014033    0.003905   -0.000000
     5   -0.000720    0.000046    0.000000
     6   -0.052538   -0.036694   -0.000000
     7   -0.001529    0.005185   -0.000000
     8    0.005575   -0.005893    0.000000
     9    0.005071   -0.027465    0.000000
    10    0.016501   -0.008623   -0.000000
    11    0.001542    0.000060    0.000000
    12    0.058369    0.055609    0.000000
    13   -0.094961   -0.002835    0.000000
    14   -0.073724   -0.131070   -0.000000
    15   -0.130434    0.105706    0.000000
    16    0.052390   -0.102066   -0.000000
    17   -0.017399    0.024238   -0.000000
    18    0.003924   -0.006244    0.000000
    19    0.012457    0.029594    0.000000
    20   -0.003170    0.007305   -0.000000
    21    0.004341   -0.017346   -0.000000
    22    0.073452    0.045425    0.000000
    23   -0.021600   -0.022708   -0.000000
    24   -0.105477    0.070095    0.000000
    25   -0.008201    0.003283   -0.000000
    26    0.009220    0.025601    0.000000
    27   -0.018187   -0.054527   -0.000000
    28   -2.043187    2.046122   -0.000000
    29   -0.041923    0.038835    0.000000
----------------------------------------
   Tot   -3.495250    0.402922    0.000000
----------------------------------------
   Max    2.046122
   Res    0.376651    sqrt( Sum f_i^2 / 3N )
----------------------------------------
   Max    2.046122    constrained

Stress tensor Voigt[x,y,z,yz,xz,xy] (kbar):       -0.58       -1.11       -0.12       -0.00       -0.00       -0.30
(Free)E + p*V (eV/cell)    -4146.4262
Target enthalpy (eV/cell)    -4148.0802

mulliken: Atomic and Orbital Populations:

Species: O                   

Atom      Orb        Charge      Spin       Svec
----------------------------------------------------------------
    1  1 2s         1.71933   0.00000      0.000   0.000  -0.000
    1  2 2s         0.06703   0.00000     -0.000  -0.000   0.000
    1  3 2py        1.35477   0.00000     -0.000  -0.000   0.000
    1  4 2pz        1.61847   0.00000     -0.000  -0.000   0.000
    1  5 2px        1.64987   0.00000     -0.000  -0.000  -0.000
    1  6 2py        0.08641   0.00000     -0.000   0.000   0.000
    1  7 2pz       -0.01704   0.00000     -0.000   0.000   0.000
    1  8 2px       -0.00079   0.00000      0.000   0.000   0.000
    1  9 3Pdxy      0.00933   0.00000      0.000  -0.000   0.000
    1 10 3Pdyz      0.00747   0.00000     -0.000   0.000   0.000
    1 11 3Pdz2      0.00209   0.00000      0.000  -0.000   0.000
    1 12 3Pdxz     -0.00002   0.00000     -0.000   0.000   0.000
    1 13 3Pdx2-y2   0.00528   0.00000      0.000  -0.000  -0.000
    1     Total     6.50220   0.00000     -0.000  -0.000   0.000

   28  1 2s         1.73288   0.00000     -0.000   0.000   0.000
   28  2 2s         0.06314   0.00000      0.000  -0.000  -0.000
   28  3 2py        1.35545   0.00000      0.000  -0.000   0.000
   28  4 2pz        1.60740   0.00000      0.000  -0.000   0.000
   28  5 2px        1.66481   0.00000      0.000  -0.000   0.000
   28  6 2py        0.08005   0.00000     -0.000   0.000   0.000
   28  7 2pz       -0.01514   0.00000     -0.000   0.000   0.000
   28  8 2px       -0.00255   0.00000     -0.000   0.000  -0.000
   28  9 3Pdxy      0.00913   0.00000     -0.000   0.000   0.000
   28 10 3Pdyz      0.00837   0.00000     -0.000   0.000  -0.000
   28 11 3Pdz2      0.00168   0.00000      0.000   0.000  -0.000
   28 12 3Pdxz     -0.00009   0.00000      0.000  -0.000   0.000
   28 13 3Pdx2-y2   0.00650   0.00000     -0.000  -0.000  -0.000
   28     Total     6.51161   0.00000      0.000  -0.000   0.000

----------------------------------------------------------------
Total              13.01382   0.00000      0.000  -0.000   0.000


Species: N                   

Atom      Orb        Charge      Spin       Svec
----------------------------------------------------------------
    2  1 2s         1.55399   0.00000     -0.000   0.000   0.000
    2  2 2s         0.08360   0.00000      0.000  -0.000   0.000
    2  3 2py        1.04140   0.00000      0.000   0.000   0.000
    2  4 2pz        1.22481   0.00000     -0.000  -0.000   0.000
    2  5 2px        0.98724   0.00000      0.000   0.000   0.000
    2  6 2py        0.18853   0.00000      0.000   0.000  -0.000
    2  7 2pz        0.05628   0.00000      0.000   0.000  -0.000
    2  8 2px        0.19560   0.00000     -0.000   0.000  -0.000
    2  9 3Pdxy      0.00856   0.00000     -0.000  -0.000   0.000
    2 10 3Pdyz      0.01121   0.00000     -0.000  -0.000  -0.000
    2 11 3Pdz2      0.00193   0.00000      0.000  -0.000  -0.000
    2 12 3Pdxz      0.00763   0.00000     -0.000   0.000  -0.000
    2 13 3Pdx2-y2   0.00929   0.00000     -0.000  -0.000   0.000
    2     Total     5.37006   0.00000      0.000  -0.000   0.000

    3  1 2s         1.37942   0.00000      0.000  -0.000  -0.000
    3  2 2s         0.12531   0.00000      0.000   0.000   0.000
    3  3 2py        0.93761   0.00000      0.000   0.000  -0.000
    3  4 2pz        1.53874   0.00000      0.000   0.000  -0.000
    3  5 2px        1.06951   0.00000      0.000  -0.000  -0.000
    3  6 2py        0.25591   0.00000     -0.000   0.000   0.000
    3  7 2pz        0.00560   0.00000     -0.000  -0.000   0.000
    3  8 2px        0.19020   0.00000     -0.000   0.000   0.000
    3  9 3Pdxy      0.00405   0.00000     -0.000  -0.000   0.000
    3 10 3Pdyz      0.00386   0.00000      0.000   0.000   0.000
    3 11 3Pdz2      0.00050   0.00000      0.000  -0.000  -0.000
    3 12 3Pdxz      0.00282   0.00000     -0.000  -0.000   0.000
    3 13 3Pdx2-y2   0.00244   0.00000     -0.000   0.000  -0.000
    3     Total     5.51596   0.00000      0.000   0.000  -0.000

    4  1 2s         1.46263   0.00000     -0.000   0.000  -0.000
    4  2 2s         0.11873   0.00000      0.000  -0.000   0.000
    4  3 2py        1.12993   0.00000     -0.000  -0.000  -0.000
    4  4 2pz        1.29196   0.00000      0.000  -0.000  -0.000
    4  5 2px        0.82510   0.00000      0.000   0.000  -0.000
    4  6 2py        0.15062   0.00000     -0.000   0.000   0.000
    4  7 2pz        0.05367   0.00000     -0.000   0.000   0.000
    4  8 2px        0.29150   0.00000     -0.000  -0.000   0.000
    4  9 3Pdxy      0.00876   0.00000      0.000   0.000  -0.000
    4 10 3Pdyz      0.01045   0.00000      0.000   0.000   0.000
    4 11 3Pdz2      0.00129   0.00000     -0.000   0.000  -0.000
    4 12 3Pdxz      0.00476   0.00000      0.000   0.000  -0.000
    4 13 3Pdx2-y2   0.00795   0.00000     -0.000  -0.000   0.000
    4     Total     5.35735   0.00000     -0.000   0.000  -0.000

    5  1 2s         1.37159   0.00000      0.000  -0.000   0.000
    5  2 2s         0.12988   0.00000     -0.000   0.000   0.000
    5  3 2py        1.02719   0.00000      0.000  -0.000   0.000
    5  4 2pz        1.49837   0.00000      0.000  -0.000   0.000
    5  5 2px        1.05673   0.00000      0.000  -0.000   0.000
    5  6 2py        0.20591   0.00000     -0.000   0.000   0.000
    5  7 2pz        0.01378   0.00000     -0.000   0.000   0.000
    5  8 2px        0.20526   0.00000     -0.000   0.000  -0.000
    5  9 3Pdxy      0.00388   0.00000     -0.000   0.000   0.000
    5 10 3Pdyz      0.00243   0.00000      0.000   0.000  -0.000
    5 11 3Pdz2      0.00141   0.00000      0.000   0.000  -0.000
    5 12 3Pdxz      0.00670   0.00000      0.000  -0.000  -0.000
    5 13 3Pdx2-y2   0.00553   0.00000      0.000   0.000  -0.000
    5     Total     5.52866   0.00000      0.000  -0.000   0.000

    6  1 2s         1.26607   0.00000     -0.000   0.000  -0.000
    6  2 2s         0.18126   0.00000      0.000  -0.000   0.000
    6  3 2py        1.06898   0.00000     -0.000  -0.000  -0.000
    6  4 2pz        1.51207   0.00000      0.000  -0.000   0.000
    6  5 2px        0.97347   0.00000      0.000   0.000   0.000
    6  6 2py        0.19572   0.00000      0.000   0.000   0.000
    6  7 2pz        0.03511   0.00000     -0.000   0.000   0.000
    6  8 2px        0.25803   0.00000      0.000  -0.000   0.000
    6  9 3Pdxy      0.00258   0.00000     -0.000  -0.000  -0.000
    6 10 3Pdyz     -0.00000   0.00000      0.000   0.000  -0.000
    6 11 3Pdz2      0.00168   0.00000      0.000  -0.000  -0.000
    6 12 3Pdxz      0.00399   0.00000     -0.000   0.000  -0.000
    6 13 3Pdx2-y2   0.00438   0.00000      0.000   0.000   0.000
    6     Total     5.50334   0.00000      0.000  -0.000   0.000

   21  1 2s         1.41184   0.00000      0.000  -0.000  -0.000
   21  2 2s         0.12930   0.00000     -0.000   0.000   0.000
   21  3 2py        0.89359   0.00000      0.000  -0.000   0.000
   21  4 2pz        1.32526   0.00000     -0.000  -0.000   0.000
   21  5 2px        1.15492   0.00000      0.000  -0.000   0.000
   21  6 2py        0.27168   0.00000     -0.000   0.000   0.000
   21  7 2pz        0.04248   0.00000     -0.000   0.000  -0.000
   21  8 2px        0.16311   0.00000     -0.000   0.000   0.000
   21  9 3Pdxy      0.00613   0.00000     -0.000   0.000   0.000
   21 10 3Pdyz      0.00452   0.00000     -0.000  -0.000  -0.000
   21 11 3Pdz2     -0.00013   0.00000      0.000   0.000  -0.000
   21 12 3Pdxz      0.00572   0.00000      0.000   0.000  -0.000
   21 13 3Pdx2-y2   0.00593   0.00000     -0.000   0.000   0.000
   21     Total     5.41435   0.00000      0.000  -0.000   0.000

   22  1 2s         1.28832   0.00000      0.000   0.000   0.000
   22  2 2s         0.17283   0.00000     -0.000  -0.000  -0.000
   22  3 2py        1.06607   0.00000      0.000  -0.000  -0.000
   22  4 2pz        1.47164   0.00000      0.000   0.000  -0.000
   22  5 2px        1.01237   0.00000      0.000  -0.000  -0.000
   22  6 2py        0.19881   0.00000     -0.000   0.000   0.000
   22  7 2pz        0.03464   0.00000      0.000  -0.000   0.000
   22  8 2px        0.23560   0.00000     -0.000   0.000   0.000
   22  9 3Pdxy      0.00384   0.00000     -0.000   0.000  -0.000
   22 10 3Pdyz      0.00007   0.00000      0.000  -0.000  -0.000
   22 11 3Pdz2      0.00237   0.00000     -0.000  -0.000  -0.000
   22 12 3Pdxz      0.00423   0.00000      0.000  -0.000  -0.000
   22 13 3Pdx2-y2   0.00473   0.00000      0.000   0.000  -0.000
   22     Total     5.49553   0.00000      0.000   0.000   0.000

   23  1 2s         1.36731   0.00000     -0.000   0.000   0.000
   23  2 2s         0.13206   0.00000      0.000  -0.000   0.000
   23  3 2py        1.00959   0.00000     -0.000   0.000  -0.000
   23  4 2pz        1.53513   0.00000     -0.000   0.000   0.000
   23  5 2px        1.04768   0.00000     -0.000  -0.000  -0.000
   23  6 2py        0.21690   0.00000      0.000  -0.000   0.000
   23  7 2pz        0.00445   0.00000      0.000  -0.000   0.000
   23  8 2px        0.20516   0.00000      0.000  -0.000   0.000
   23  9 3Pdxy      0.00518   0.00000     -0.000   0.000   0.000
   23 10 3Pdyz      0.00460   0.00000      0.000   0.000   0.000
   23 11 3Pdz2      0.00068   0.00000      0.000  -0.000  -0.000
   23 12 3Pdxz      0.00243   0.00000      0.000   0.000   0.000
   23 13 3Pdx2-y2   0.00148   0.00000     -0.000  -0.000  -0.000
   23     Total     5.53266   0.00000     -0.000   0.000   0.000

----------------------------------------------------------------
Total              56.73172   0.00000      0.000  -0.000   0.000


Species: Si                  

Atom      Orb        Charge      Spin       Svec
----------------------------------------------------------------
    7  1 3s         0.64037   0.00000      0.000  -0.000  -0.000
    7  2 3s         0.37682   0.00000     -0.000   0.000   0.000
    7  3 3py        0.46657   0.00000      0.000  -0.000   0.000
    7  4 3pz        0.68421   0.00000      0.000  -0.000  -0.000
    7  5 3px        0.10775   0.00000     -0.000  -0.000  -0.000
    7  6 3py        0.28221   0.00000     -0.000   0.000  -0.000
    7  7 3pz        0.26698   0.00000     -0.000   0.000  -0.000
    7  8 3px        0.45238   0.00000     -0.000   0.000  -0.000
    7  9 3Pdxy      0.25229   0.00000     -0.000   0.000  -0.000
    7 10 3Pdyz      0.02871   0.00000      0.000   0.000   0.000
    7 11 3Pdz2      0.01062   0.00000     -0.000   0.000   0.000
    7 12 3Pdxz      0.15282   0.00000      0.000  -0.000   0.000
    7 13 3Pdx2-y2   0.11136   0.00000      0.000   0.000   0.000
    7     Total     3.83310   0.00000     -0.000   0.000  -0.000

    8  1 3s         0.65343   0.00000      0.000   0.000   0.000
    8  2 3s         0.36988   0.00000     -0.000  -0.000  -0.000
    8  3 3py        0.39673   0.00000      0.000   0.000  -0.000
    8  4 3pz        0.50195   0.00000      0.000  -0.000   0.000
    8  5 3px       -0.01902   0.00000      0.000  -0.000  -0.000
    8  6 3py        0.30497   0.00000     -0.000  -0.000   0.000
    8  7 3pz        0.20647   0.00000     -0.000   0.000   0.000
    8  8 3px        0.51209   0.00000     -0.000   0.000   0.000
    8  9 3Pdxy      0.24914   0.00000      0.000  -0.000   0.000
    8 10 3Pdyz      0.11199   0.00000     -0.000   0.000   0.000
    8 11 3Pdz2      0.01401   0.00000     -0.000  -0.000  -0.000
    8 12 3Pdxz      0.15732   0.00000     -0.000   0.000  -0.000
    8 13 3Pdx2-y2   0.20228   0.00000      0.000   0.000   0.000
    8     Total     3.66124   0.00000     -0.000  -0.000   0.000

    9  1 3s         0.58022   0.00000     -0.000  -0.000   0.000
    9  2 3s         0.37745   0.00000      0.000   0.000   0.000
    9  3 3py        0.10469   0.00000     -0.000   0.000   0.000
    9  4 3pz        0.46686   0.00000      0.000   0.000   0.000
    9  5 3px        0.34385   0.00000     -0.000   0.000   0.000
    9  6 3py        0.41021   0.00000      0.000  -0.000   0.000
    9  7 3pz        0.19575   0.00000      0.000   0.000   0.000
    9  8 3px        0.29421   0.00000      0.000  -0.000   0.000
    9  9 3Pdxy      0.29015   0.00000      0.000   0.000  -0.000
    9 10 3Pdyz      0.19059   0.00000     -0.000   0.000   0.000
    9 11 3Pdz2      0.01087   0.00000     -0.000   0.000   0.000
    9 12 3Pdxz      0.10777   0.00000     -0.000   0.000   0.000
    9 13 3Pdx2-y2   0.17791   0.00000     -0.000   0.000  -0.000
    9     Total     3.55051   0.00000     -0.000   0.000   0.000

   10  1 3s         0.48464   0.00000      0.000  -0.000  -0.000
   10  2 3s         0.37610   0.00000      0.000   0.000   0.000
   10  3 3py        0.24522   0.00000     -0.000   0.000   0.000
   10  4 3pz        0.41948   0.00000      0.000  -0.000   0.000
   10  5 3px        0.09315   0.00000      0.000   0.000  -0.000
   10  6 3py        0.31815   0.00000     -0.000   0.000  -0.000
   10  7 3pz        0.21751   0.00000      0.000   0.000   0.000
   10  8 3px        0.44748   0.00000     -0.000  -0.000   0.000
   10  9 3Pdxy      0.17718   0.00000     -0.000  -0.000  -0.000
   10 10 3Pdyz      0.13013   0.00000      0.000   0.000  -0.000
   10 11 3Pdz2      0.00917   0.00000      0.000  -0.000  -0.000
   10 12 3Pdxz      0.18514   0.00000     -0.000  -0.000  -0.000
   10 13 3Pdx2-y2   0.30714   0.00000      0.000  -0.000  -0.000
   10     Total     3.41048   0.00000     -0.000   0.000  -0.000

   11  1 3s         0.55110   0.00000      0.000  -0.000  -0.000
   11  2 3s         0.38659   0.00000     -0.000   0.000  -0.000
   11  3 3py        0.31031   0.00000     -0.000   0.000  -0.000
   11  4 3pz        0.53019   0.00000     -0.000   0.000  -0.000
   11  5 3px        0.13133   0.00000      0.000   0.000  -0.000
   11  6 3py        0.29936   0.00000      0.000  -0.000  -0.000
   11  7 3pz        0.17967   0.00000      0.000  -0.000  -0.000
   11  8 3px        0.44273   0.00000     -0.000  -0.000   0.000
   11  9 3Pdxy      0.23590   0.00000      0.000  -0.000  -0.000
   11 10 3Pdyz      0.12946   0.00000      0.000   0.000  -0.000
   11 11 3Pdz2      0.00996   0.00000      0.000  -0.000   0.000
   11 12 3Pdxz      0.05437   0.00000      0.000   0.000  -0.000
   11 13 3Pdx2-y2   0.19811   0.00000      0.000  -0.000  -0.000
   11     Total     3.45909   0.00000      0.000   0.000  -0.000

   17  1 3s         0.64357   0.00000      0.000  -0.000   0.000
   17  2 3s         0.35619   0.00000     -0.000   0.000  -0.000
   17  3 3py        0.23721   0.00000     -0.000   0.000   0.000
   17  4 3pz        0.42618   0.00000     -0.000  -0.000  -0.000
   17  5 3px        0.22657   0.00000     -0.000   0.000  -0.000
   17  6 3py        0.36134   0.00000     -0.000   0.000  -0.000
   17  7 3pz        0.21425   0.00000      0.000  -0.000  -0.000
   17  8 3px        0.39023   0.00000      0.000  -0.000   0.000
   17  9 3Pdxy      0.27985   0.00000     -0.000   0.000  -0.000
   17 10 3Pdyz      0.13138   0.00000     -0.000  -0.000  -0.000
   17 11 3Pdz2      0.00778   0.00000      0.000   0.000  -0.000
   17 12 3Pdxz      0.15097   0.00000     -0.000  -0.000  -0.000
   17 13 3Pdx2-y2   0.17808   0.00000     -0.000   0.000  -0.000
   17     Total     3.60360   0.00000     -0.000  -0.000  -0.000

   18  1 3s         0.75333   0.00000     -0.000  -0.000  -0.000
   18  2 3s         0.33890   0.00000      0.000   0.000  -0.000
   18  3 3py        0.08515   0.00000      0.000   0.000  -0.000
   18  4 3pz        0.80527   0.00000     -0.000  -0.000  -0.000
   18  5 3px        0.53584   0.00000      0.000   0.000  -0.000
   18  6 3py        0.51499   0.00000     -0.000   0.000  -0.000
   18  7 3pz        0.19676   0.00000     -0.000   0.000  -0.000
   18  8 3px        0.26328   0.00000     -0.000  -0.000  -0.000
   18  9 3Pdxy      0.10659   0.00000      0.000   0.000   0.000
   18 10 3Pdyz      0.02641   0.00000      0.000   0.000   0.000
   18 11 3Pdz2      0.00900   0.00000     -0.000   0.000   0.000
   18 12 3Pdxz      0.03249   0.00000     -0.000  -0.000   0.000
   18 13 3Pdx2-y2   0.10475   0.00000     -0.000   0.000  -0.000
   18     Total     3.77276   0.00000     -0.000  -0.000  -0.000

   19  1 3s         0.45241   0.00000     -0.000   0.000  -0.000
   19  2 3s         0.36548   0.00000      0.000  -0.000   0.000
   19  3 3py        0.08402   0.00000     -0.000   0.000  -0.000
   19  4 3pz        0.40206   0.00000      0.000   0.000  -0.000
   19  5 3px        0.26704   0.00000     -0.000  -0.000   0.000
   19  6 3py        0.44996   0.00000     -0.000  -0.000   0.000
   19  7 3pz        0.19447   0.00000      0.000   0.000  -0.000
   19  8 3px        0.29596   0.00000     -0.000   0.000  -0.000
   19  9 3Pdxy      0.31930   0.00000      0.000  -0.000  -0.000
   19 10 3Pdyz      0.18383   0.00000     -0.000   0.000  -0.000
   19 11 3Pdz2      0.01129   0.00000     -0.000   0.000  -0.000
   19 12 3Pdxz      0.10213   0.00000     -0.000   0.000  -0.000
   19 13 3Pdx2-y2   0.24560   0.00000     -0.000  -0.000   0.000
   19     Total     3.37355   0.00000     -0.000   0.000  -0.000

   20  1 3s         0.67999   0.00000     -0.000  -0.000   0.000
   20  2 3s         0.37621   0.00000      0.000   0.000   0.000
   20  3 3py        0.33776   0.00000     -0.000  -0.000   0.000
   20  4 3pz        0.60975   0.00000     -0.000   0.000   0.000
   20  5 3px        0.13757   0.00000      0.000   0.000   0.000
   20  6 3py        0.28237   0.00000      0.000   0.000  -0.000
   20  7 3pz        0.16083   0.00000      0.000  -0.000   0.000
   20  8 3px        0.50289   0.00000     -0.000  -0.000  -0.000
   20  9 3Pdxy      0.09910   0.00000     -0.000  -0.000   0.000
   20 10 3Pdyz      0.12914   0.00000     -0.000  -0.000   0.000
   20 11 3Pdz2      0.00727   0.00000     -0.000  -0.000  -0.000
   20 12 3Pdxz      0.02698   0.00000      0.000   0.000  -0.000
   20 13 3Pdx2-y2   0.17482   0.00000      0.000  -0.000  -0.000
   20     Total     3.52468   0.00000      0.000  -0.000   0.000

----------------------------------------------------------------
Total              88.92073   0.00000     -0.000  -0.000  -0.000


Species: H                   

Atom      Orb        Charge      Spin       Svec
----------------------------------------------------------------
   12  1 1s         0.47849   0.00000      0.000  -0.000   0.000
   12  2 1s         0.18126   0.00000      0.000  -0.000   0.000
   12  3 2Ppy       0.04165   0.00000     -0.000  -0.000  -0.000
   12  4 2Ppz       0.03116   0.00000     -0.000  -0.000   0.000
   12  5 2Ppx       0.04588   0.00000      0.000  -0.000   0.000
   12     Total     0.77844   0.00000      0.000  -0.000   0.000

   13  1 1s         1.01864   0.00000     -0.000  -0.000   0.000
   13  2 1s         0.09714   0.00000      0.000   0.000   0.000
   13  3 2Ppy       0.01915   0.00000     -0.000   0.000   0.000
   13  4 2Ppz       0.02017   0.00000      0.000   0.000  -0.000
   13  5 2Ppx       0.03328   0.00000     -0.000   0.000   0.000
   13     Total     1.18839   0.00000     -0.000  -0.000   0.000

   14  1 1s         0.48893   0.00000     -0.000   0.000  -0.000
   14  2 1s         0.19588   0.00000      0.000  -0.000   0.000
   14  3 2Ppy       0.02006   0.00000      0.000  -0.000   0.000
   14  4 2Ppz       0.04864   0.00000     -0.000   0.000  -0.000
   14  5 2Ppx       0.02142   0.00000     -0.000  -0.000  -0.000
   14     Total     0.77494   0.00000     -0.000   0.000  -0.000

   15  1 1s         0.43853   0.00000      0.000  -0.000   0.000
   15  2 1s         0.17841   0.00000     -0.000   0.000   0.000
   15  3 2Ppy       0.04916   0.00000     -0.000   0.000   0.000
   15  4 2Ppz       0.04529   0.00000     -0.000   0.000   0.000
   15  5 2Ppx       0.08485   0.00000      0.000   0.000  -0.000
   15     Total     0.79625   0.00000      0.000   0.000   0.000

   16  1 1s         0.50438   0.00000     -0.000   0.000  -0.000
   16  2 1s         0.19057   0.00000      0.000  -0.000   0.000
   16  3 2Ppy       0.02900   0.00000     -0.000   0.000  -0.000
   16  4 2Ppz       0.03954   0.00000     -0.000   0.000  -0.000
   16  5 2Ppx       0.02422   0.00000     -0.000   0.000  -0.000
   16     Total     0.78772   0.00000     -0.000   0.000  -0.000

   24  1 1s         1.05788   0.00000     -0.000   0.000   0.000
   24  2 1s         0.07611   0.00000      0.000  -0.000   0.000
   24  3 2Ppy       0.03068   0.00000     -0.000  -0.000  -0.000
   24  4 2Ppz       0.03020   0.00000      0.000   0.000  -0.000
   24  5 2Ppx       0.01787   0.00000      0.000   0.000  -0.000
   24     Total     1.21275   0.00000     -0.000   0.000   0.000

   25  1 1s         1.04581   0.00000     -0.000  -0.000  -0.000
   25  2 1s         0.08509   0.00000      0.000   0.000   0.000
   25  3 2Ppy       0.01141   0.00000      0.000   0.000  -0.000
   25  4 2Ppz       0.01899   0.00000      0.000   0.000   0.000
   25  5 2Ppx       0.03590   0.00000      0.000  -0.000   0.000
   25     Total     1.19721   0.00000     -0.000  -0.000  -0.000

   26  1 1s         0.49491   0.00000      0.000   0.000  -0.000
   26  2 1s         0.19424   0.00000     -0.000  -0.000   0.000
   26  3 2Ppy       0.02267   0.00000      0.000  -0.000   0.000
   26  4 2Ppz       0.04881   0.00000      0.000  -0.000  -0.000
   26  5 2Ppx       0.02082   0.00000     -0.000   0.000  -0.000
   26     Total     0.78146   0.00000      0.000  -0.000  -0.000

   27  1 1s         0.43053   0.00000      0.000   0.000   0.000
   27  2 1s         0.17483   0.00000     -0.000  -0.000   0.000
   27  3 2Ppy       0.05901   0.00000     -0.000  -0.000   0.000
   27  4 2Ppz       0.04324   0.00000      0.000  -0.000  -0.000
   27  5 2Ppx       0.09023   0.00000     -0.000  -0.000   0.000
   27     Total     0.79783   0.00000      0.000   0.000   0.000

   29  1 1s         0.48937   0.00000      0.000   0.000   0.000
   29  2 1s         0.18818   0.00000      0.000   0.000  -0.000
   29  3 2Ppy       0.02470   0.00000      0.000  -0.000   0.000
   29  4 2Ppz       0.03485   0.00000     -0.000  -0.000   0.000
   29  5 2Ppx       0.02719   0.00000      0.000   0.000   0.000
   29     Total     0.76429   0.00000      0.000  -0.000   0.000

----------------------------------------------------------------
Total              98.00000   0.00000      0.000  -0.000  -0.000


siesta: Eigenvalues (eV):
ik =     1
  -22.8469  -22.8469  -22.4124  -22.4124  -21.4334  -21.4334  -21.2750  -21.2750  -20.9719  -20.9719
  -20.7371  -20.7371  -20.2685  -20.2685  -19.6414  -19.6414  -19.5116  -19.5116  -19.4102  -19.4102
  -14.7657  -14.7657  -13.8375  -13.8375  -13.2808  -13.2808  -13.1125  -13.1125  -12.9614  -12.9614
  -12.6492  -12.6492  -12.5880  -12.5880  -12.1295  -12.1295  -11.8614  -11.8614  -11.7146  -11.7146
  -11.0369  -11.0369  -10.8266  -10.8266  -10.5859  -10.5859  -10.3732  -10.3732  -10.1746  -10.1746
   -9.6774   -9.6774   -9.1122   -9.1122   -8.9503   -8.9503   -8.8189   -8.8189   -8.6796   -8.6796
   -8.5091   -8.5091   -8.4257   -8.4257   -8.3286   -8.3286   -7.9813   -7.9813   -7.8412   -7.8412
   -7.6067   -7.6067   -7.3894   -7.3894   -7.2738   -7.2738   -7.1213   -7.1213   -6.9281   -6.9281
   -6.6758   -6.6758   -6.6303   -6.6303   -6.4059   -6.4059   -6.3770   -6.3770   -6.2820   -6.2820
   -6.0750   -6.0750   -5.9735   -5.9735   -5.5476   -5.5476   -4.3168   -4.3168   -3.2527   -3.2527
   -2.3436   -2.3436   -2.2686   -2.2686   -2.1728   -2.1728   -1.8944   -1.8944   -1.8653   -1.8653
   -1.8121   -1.8121   -1.6538   -1.6538   -1.6003   -1.6003   -1.1350   -1.1350   -1.1226   -1.1226
   -0.9100   -0.9100   -0.4806   -0.4806   -0.4378   -0.4378   -0.3065   -0.3065    0.3974    0.3974
    0.5096    0.5096    0.5473    0.5473    0.7107    0.7107    1.0649    1.0649    1.1635    1.1635
    1.3516    1.3516    1.4031    1.4031    1.4955    1.4955    1.6175    1.6175    2.0082    2.0082
    2.0614    2.0614    2.6805    2.6805    2.7268    2.7268    2.7655    2.7655    2.8957    2.8957
    2.9385    2.9385    3.0522    3.0522    3.2661    3.2661    3.4555    3.4555    3.6421    3.6421
    3.8234    3.8234    4.0702    4.0702    4.1705    4.1705    4.2637    4.2637    4.5244    4.5244
    4.6244    4.6244    4.7681    4.7681    4.7814    4.7814    4.9976    4.9976    5.3099    5.3099
    5.3110    5.3110    5.5014    5.5014    5.7380    5.7380    5.8760    5.8760    5.9298    5.9298
    6.0079    6.0079    6.3781    6.3781    6.4225    6.4225    6.5208    6.5208    6.6880    6.6880
    6.7632    6.7632    6.9385    6.9385    7.0430    7.0430    7.1359    7.1359    7.2050    7.2050
    7.2818    7.2818    7.7268    7.7268    7.7505    7.7505    7.9677    7.9677    8.0481    8.0481
    8.1514    8.1514    8.5377    8.5377    8.5878    8.5878    8.6510    8.6510    8.7079    8.7079
    8.8017    8.8017    8.8464    8.8464    9.1016    9.1016    9.1578    9.1578    9.4918    9.4918
    9.5853    9.5853    9.8307    9.8307   10.0088   10.0088   10.0478   10.0478   10.2161   10.2161
   10.2572   10.2572   10.6511   10.6511   10.9192   10.9192   11.2624   11.2624   11.3832   11.3832
   11.3932   11.3932   11.5343   11.5343   12.3053   12.3053   12.4310   12.4310   12.4356   12.4356
   12.5421   12.5421   12.6652   12.6652   12.8690   12.8690   13.0924   13.0924   13.2342   13.2342
   13.6297   13.6297   13.7862   13.7862   13.8803   13.8803   14.0385   14.0385   14.0892   14.0892
   14.3876   14.3876   14.5653   14.5653   15.0559   15.0559   15.2153   15.2153   15.2336   15.2336
   15.6054   15.6054   16.4045   16.4045   16.7565   16.7565   16.8418   16.8418   17.1823   17.1823
   17.2983   17.2983   17.7542   17.7542   18.3797   18.3797   18.7801   18.7801   19.0871   19.0871
   19.5401   19.5401   20.0132   20.0132   20.2314   20.2314   20.7134   20.7134   20.8377   20.8377
   21.3227   21.3227   21.9546   21.9546   22.4527   22.4527   23.0174   23.0174   23.2495   23.2495
   23.8501   23.8501   24.0363   24.0363   24.2330   24.2330   24.6270   24.6270   25.2008   25.2008
   25.9248   25.9248   26.2101   26.2101   26.8212   26.8212   27.8618   27.8618   28.9509   28.9509
   29.3466   29.3466   29.5234   29.5234   30.1746   30.1746   30.3329   30.3329   30.7426   30.7426
   30.9399   30.9399   30.9784   30.9784   31.3719   31.3719   31.5533   31.5533   31.6915   31.6915
   32.4446   32.4446   33.7393   33.7393   33.8707   33.8707   34.0590   34.0590   34.2295   34.2295
   35.4141   35.4141   35.5718   35.5718   35.9580   35.9580   36.1849   36.1849   36.5704   36.5704
   36.8970   36.8970   37.1266   37.1266   37.1872   37.1872   37.3398   37.3398   38.7168   38.7168
   38.8537   38.8537   39.2695   39.2695   39.5250   39.5250   39.8854   39.8854   40.4060   40.4060
   40.7555   40.7555   40.9677   40.9677   41.5113   41.5113   41.7312   41.7312   41.8124   41.8124
   42.2450   42.2450   42.7171   42.7171   42.8709   42.8709   43.4344   43.4344   43.7466   43.7466
   43.8911   43.8911   44.2513   44.2513   44.4993   44.4993   44.6815   44.6815   45.0884   45.0884
   45.1804   45.1804   45.4848   45.4848   46.1620   46.1620   46.2923   46.2923   46.4985   46.4985
   46.8241   46.8241   47.8811   47.8811   48.0371   48.0371   48.7034   48.7034   49.6170   49.6170
   50.0590   50.0590   50.1980   50.1980   50.5603   50.5603   50.5624   50.5624   51.1324   51.1324
   51.7273   51.7273   51.9228   51.9228   52.6458   52.6458   52.6575   52.6575   54.2195   54.2195
   54.2990   54.2990   54.7828   54.7828   55.5167   55.5167   55.8358   55.8358   56.4240   56.4240
   56.5641   56.5641   57.1349   57.1349   58.4717   58.4717   58.6641   58.6641   58.8986   58.8986
   60.2464   60.2464   60.5445   60.5445   61.0204   61.0204   61.4235   61.4235   62.2792   62.2792
   62.5910   62.5910   62.9365   62.9365   63.3165   63.3165   63.5632   63.5632   66.3056   66.3056
   67.2612   67.2612   68.3898   68.3898   69.1435   69.1435   69.8568   69.8568   71.0310   71.0310
   71.0340   71.0340   71.8562   71.8562   71.8830   71.8830   75.9183   75.9183   87.6636   87.6636
   89.1413   89.1413   90.7793   90.7793   94.9096   94.9096   95.8424   95.8424   96.5421   96.5421
  100.4800  100.4800  102.4024  102.4024  102.8977  102.8977  104.6026  104.6026  106.2343  106.2343
  115.6437  115.6437  117.4591  117.4591  125.8626  125.8626  128.2342  128.2342  139.0392  139.0392
  145.2058  145.2058  147.1454  147.1454
siesta: Fermi energy =      -3.784743 eV

siesta: Program's energy decomposition (eV):
siesta: Ebs     =     -1134.667411
siesta: Eions   =      3585.165840
siesta: Ena     =       382.848685
siesta: Ekin    =      2914.270575
siesta: Enl     =     -2798.421317
siesta: Eso     =        -0.004343
siesta: Edftu   =         0.000000
siesta: DEna    =        48.079973
siesta: DUscf   =        13.786178
siesta: DUext   =         0.000000
siesta: Exc     =     -1123.474073
siesta: eta*DQ  =         0.000000
siesta: Emadel  =         0.000000
siesta: Emeta   =         0.000000
siesta: Emolmec =         0.000000
siesta: Ekinion =         0.000000
siesta: Eharris =     -4148.080162
siesta: Etot    =     -4148.080162
siesta: FreeEng =     -4148.080162

siesta: Final energy (eV):
siesta:  Band Struct. =   -1134.667411
siesta:       Kinetic =    2914.270575
siesta:       Hartree =    9072.868005
siesta:       Edftu   =       0.000000
siesta:       Eso     =      -0.004343
siesta:    Ext. field =       0.000000
siesta:   Exch.-corr. =   -1123.474073
siesta:  Ion-electron =  -20736.060746
siesta:       Ion-ion =    5724.320419
siesta:       Ekinion =       0.000000
siesta:         Total =   -4148.080162
siesta:         Fermi =      -3.784743

siesta: Atomic forces (eV/Ang):
siesta:      1   -1.073373   -1.645898   -0.000000
siesta:      2   -0.017772    0.001083   -0.000000
siesta:      3   -0.019867    0.002199   -0.000000
siesta:      4   -0.014033    0.003905   -0.000000
siesta:      5   -0.000720    0.000046    0.000000
siesta:      6   -0.052538   -0.036694   -0.000000
siesta:      7   -0.001529    0.005185   -0.000000
siesta:      8    0.005575   -0.005893    0.000000
siesta:      9    0.005071   -0.027465    0.000000
siesta:     10    0.016501   -0.008623   -0.000000
siesta:     11    0.001542    0.000060    0.000000
siesta:     12    0.058369    0.055609    0.000000
siesta:     13   -0.094961   -0.002835    0.000000
siesta:     14   -0.073724   -0.131070   -0.000000
siesta:     15   -0.130434    0.105706    0.000000
siesta:     16    0.052390   -0.102066   -0.000000
siesta:     17   -0.017399    0.024238   -0.000000
siesta:     18    0.003924   -0.006244    0.000000
siesta:     19    0.012457    0.029594    0.000000
siesta:     20   -0.003170    0.007305   -0.000000
siesta:     21    0.004341   -0.017346   -0.000000
siesta:     22    0.073452    0.045425    0.000000
siesta:     23   -0.021600   -0.022708   -0.000000
siesta:     24   -0.105477    0.070095    0.000000
siesta:     25   -0.008201    0.003283   -0.000000
siesta:     26    0.009220    0.025601    0.000000
siesta:     27   -0.018187   -0.054527   -0.000000
siesta:     28   -2.043187    2.046122   -0.000000
siesta:     29   -0.041923    0.038835    0.000000
siesta: ----------------------------------------
siesta:    Tot   -3.495250    0.402922    0.000000

siesta: Stress tensor (static) (eV/Ang**3):
siesta:    -0.000361   -0.000188   -0.000000
siesta:    -0.000188   -0.000696   -0.000000
siesta:    -0.000000   -0.000000   -0.000072

siesta: Cell volume =       4395.746349 Ang**3

siesta: Pressure (static):
siesta:                Solid            Molecule  Units
siesta:           0.00000410          0.00001204  Ry/Bohr**3
siesta:           0.00037627          0.00110524  eV/Ang**3
siesta:           0.60285651          1.77080835  kBar
(Free)E+ p_basis*V_orbitals  =       -4128.229745
(Free)Eharris+ p_basis*V_orbitals  =       -4128.229745
     spin moment: S , {S} =    0.00000   0.00000  -0.00000  -0.00000

siesta: Electric dipole (a.u.)  =    1.639617    0.169761    0.000000
siesta: Electric dipole (Debye) =    4.167494    0.431490    0.000000

cite: Please see "GC.bib" for an exhaustive BiBTeX file.
cite: Please clearly indicate Siesta version in published work: v4.1.5-1-g384057250
cite: This calculation has made use of the following articles
cite: which are encouraged to be cited in a published work.
        Primary SIESTA paper
          DOI: www.doi.org/10.1088/0953-8984/14/11/302
        Spin-orbit coupling (on-site approximation)
          DOI: www.doi.org/10.1088/0953-8984/19/19/489001


WARNING: alloc-realloc-dealloc name mismatch
         Name: atomlist isa
         Size:              -116. Bytes
         Node:     0
         Subsequent mismatches will not be reported
>> End of run:   4-JUL-2023   9:26:34
Job completed
