Siesta Version  : v4.1.5-1-g384057250
Architecture    : gcc
Compiler version: GNU Fortran (Ubuntu 11.3.0-1ubuntu1~22.04) 11.3.0
Compiler flags  : mpifort -O2 -fPIC -ftree-vectorize -fallow-argument-mismatch
PP flags        : -DFC_HAVE_ABORT -DMPI -DSIESTA__FLOOK -DSIESTA__METIS -DSIESTA__MUMPS -DCDF -DNCDF -DNCDF_4 -DNCDF_PARALLEL -DSIESTA__MRRR -DSIESTA__ELPA
Libraries       : libncdf.a libfdict.a  -lflookall -ldl -lnetcdff -lnetcdf -lhdf5_hl -lhdf5 -lhdf5_fortran -lz -lscalapack-openmpi -lopenblas -lmetis -lzmumps -lcmumps -ldmumps -lmumps_common -lpord -lsmumps -lesmumps -lscotch -lscotcherr -fopenmp -lelpa
PARALLEL version
NetCDF support
NetCDF-4 support
NetCDF-4 MPI-IO support
METIS ordering support
Lua support

* Running on 4 nodes in parallel
>> Start of run:  22-MAY-2023  18:00:58

                           ***********************       
                           *  WELCOME TO SIESTA  *       
                           ***********************       

reinit: Reading from standard input
reinit: Dumped input in INPUT_TMP.10995
************************** Dump of input data file ****************************
SystemLabel      GC
NumberOfAtoms    29
NumberOfSpecies  4
%block ChemicalSpeciesLabel
    1    8  O
    2    7  N
    3   14  Si
    4    1  H
%endblock ChemicalSpeciesLabel
# Single point calculation
MD.TypeOfRun                CG
MD.Steps                    0
SCF.MustConverge            F # In case it does not. There can be 2 very close atoms
AtomicCoordinatesFormat NotScaledCartesianAng
%block AtomicCoordinatesAndAtomicSpecies
0.854927710    3.902811360    0.000000000       1
-3.151486600   0.823854130    0.000000000       2
1.928518680    1.174000900    0.000000000       2
0.979899500    -1.830275890   0.000000000       2
-2.159258930   -2.028004800   0.000000000       2
3.785319770    -1.112700660   0.000000000       2
-1.345933810   0.976250250    0.000000000       3
-0.599439880   -1.096077170   0.000000000       3
0.453182890    2.350510230    0.000000000       3
2.133302030    -0.576510800   0.000000000       3
-3.516065660   -0.842056510   0.000000000       3
2.824527830    1.754723110    0.000000000       4
-4.877551690   -1.469214660   0.000000000       4
3.994952020    -2.143204000   0.000000000       4
4.620903610    -0.483666060   0.000000000       4
-2.279085180   -3.081514090   0.000000000       4
6.348840837    6.118216603    -0.000000000      3
8.217800327    7.377860233    -0.000000000      3
7.758867947    3.376478383    -0.000000000      3
9.826460667    5.883069603    -0.000000000      3
6.408370787    4.433264143    -0.000000000      2
4.718841637    6.748276833    -0.000000000      2
9.402756817    4.167568793    -0.000000000      2
8.498164027    8.848082753    -0.000000000      4
11.321872047   6.101922143    -0.000000000      4
4.474382647    7.766742783    -0.000000000      4
3.892100457    6.091428703    -0.000000000      4
7.818143707    1.794036353    -0.000000000      1
10.174412407   3.440601433    -0.000000000      4
%endblock AtomicCoordinatesAndAtomicSpecies
%include ../../../Defaults.fdf
************************** End of input data file *****************************

reinit: -----------------------------------------------------------------------
reinit: System Name: 
reinit: -----------------------------------------------------------------------
reinit: System Label: GC
reinit: -----------------------------------------------------------------------

initatom: Reading input for the pseudopotentials and atomic orbitals ----------
Species number:   1 Atomic number:    8 Label: O
Species number:   2 Atomic number:    7 Label: N
Species number:   3 Atomic number:   14 Label: Si
Species number:   4 Atomic number:    1 Label: H

Ground state valence configuration:   2s02  2p04
Reading pseudopotential information in formatted form from O.psf

Pseudopotential generated from a relativistic atomic calculation

Valence configuration for pseudopotential generation:
2s( 2.00) rc: 0.45
2p( 4.00) rc: 0.92
3d( 0.00) rc: 2.24
4f( 0.00) rc: 0.25
Ground state valence configuration:   2s02  2p03
Reading pseudopotential information in formatted form from N.psf

Pseudopotential generated from a relativistic atomic calculation

Valence configuration for pseudopotential generation:
2s( 2.00) rc: 0.94
2p( 3.00) rc: 0.59
3d( 0.00) rc: 3.46
4f( 0.00) rc: 2.47
Ground state valence configuration:   3s02  3p02
Reading pseudopotential information in formatted form from Si.psf

Pseudopotential generated from a relativistic atomic calculation

Valence configuration for pseudopotential generation:
3s( 2.00) rc: 1.67
3p( 2.00) rc: 2.04
3d( 0.00) rc: 2.89
4f( 0.00) rc: 2.49
Ground state valence configuration:   1s01
Reading pseudopotential information in formatted form from H.psf

Pseudopotential generated from a relativistic atomic calculation

Valence configuration for pseudopotential generation:
1s( 1.00) rc: 0.01
2p( 0.00) rc: 0.60
3d( 0.00) rc: 1.99
4f( 0.00) rc: 2.49
For O, standard SIESTA heuristics set lmxkb to 3
 (one more than the basis l, including polarization orbitals).
Use PS.lmax or PS.KBprojectors blocks to override.
For N, standard SIESTA heuristics set lmxkb to 3
 (one more than the basis l, including polarization orbitals).
Use PS.lmax or PS.KBprojectors blocks to override.
For Si, standard SIESTA heuristics set lmxkb to 3
 (one more than the basis l, including polarization orbitals).
Use PS.lmax or PS.KBprojectors blocks to override.
For H, standard SIESTA heuristics set lmxkb to 2
 (one more than the basis l, including polarization orbitals).
Use PS.lmax or PS.KBprojectors blocks to override.

<basis_specs>
===============================================================================
O                    Z=   8    Mass=  16.000        Charge= 0.17977+309
Lmxo=1 Lmxkb= 3    BasisType=split      Semic=F
L=0  Nsemic=0  Cnfigmx=2
          i=1  nzeta=2  polorb=0  (2s)
            splnorm:   0.28000    
               vcte:    0.0000    
               rinn:    0.0000    
               qcoe:    0.0000    
               qyuk:    0.0000    
               qwid:   0.10000E-01
                rcs:    0.0000      0.0000    
            lambdas:    1.0000      1.0000    
L=1  Nsemic=0  Cnfigmx=2
          i=1  nzeta=2  polorb=1  (2p)
            splnorm:   0.28000    
               vcte:    0.0000    
               rinn:    0.0000    
               qcoe:    0.0000    
               qyuk:    0.0000    
               qwid:   0.10000E-01
                rcs:    0.0000      0.0000    
            lambdas:    1.0000      1.0000    
-------------------------------------------------------------------------------
L=0  Nkbl=1  erefs: 0.17977+309
L=1  Nkbl=1  erefs: 0.17977+309
L=2  Nkbl=1  erefs: 0.17977+309
L=3  Nkbl=1  erefs: 0.17977+309
===============================================================================
</basis_specs>

atom: Called for O                     (Z =   8)

read_vps: Pseudopotential generation method:
read_vps: ATM4.2.7  Troullier-Martins                       
Valence charge for ps generation:    6.00000

xc_check: Exchange-correlation functional:
xc_check: GGA Perdew, Burke & Ernzerhof 1996
V l=0 = -2*Zval/r beyond r=  1.1000
V l=1 = -2*Zval/r beyond r=  1.1000
V l=2 = -2*Zval/r beyond r=  2.2154
V l=3 = -2*Zval/r beyond r=  1.1000
All V_l potentials equal beyond r=  2.2154
This should be close to max(r_c) in ps generation
All pots = -2*Zval/r beyond r=  2.2154

VLOCAL1: 99.0% of the norm of Vloc inside      8.845 Ry
VLOCAL1: 99.9% of the norm of Vloc inside     20.157 Ry
atom: Maximum radius for 4*pi*r*r*local-pseudopot. charge    2.67231
atom: Maximum radius for r*vlocal+2*Zval:    2.32897
GHOST: No ghost state for L =  0
GHOST: No ghost state for L =  1
GHOST: No ghost state for L =  2
GHOST: No ghost state for L =  3

KBgen: Kleinman-Bylander projectors: 
   l= 0   rc=  2.243238   el= -1.759686   Ekb=**********   kbcos= -0.171774
   l= 1   rc=  2.328968   el= -0.663873   Ekb=-14.506792   kbcos= -0.519897
   l= 2   rc=  2.573941   el=  0.002031   Ekb= -1.137373   kbcos= -0.019581
   l= 3   rc=  2.606321   el=  0.003153   Ekb= -1.013546   kbcos= -0.003122

KBgen: Total number of Kleinman-Bylander projectors:   16
atom: -------------------------------------------------------------------------

atom: SANKEY-TYPE ORBITALS:
atom: Selected multiple-zeta basis: split     

SPLIT: Orbitals with angular momentum L= 0

SPLIT: Basis orbitals for state 2s

SPLIT: PAO cut-off radius determined from an
SPLIT: energy shift=  0.002000 Ry

   izeta = 1
                 lambda =    1.000000
                     rc =    4.243912
                 energy =   -1.758270
                kinetic =    3.286084
    potential(screened) =   -5.044353
       potential(ionic) =  -12.921184

   izeta = 2
                 rmatch =    2.187845
              splitnorm =    0.280000
                 energy =   -0.885018
                kinetic =    8.134434
    potential(screened) =   -9.019452
       potential(ionic) =  -17.710645

SPLIT: Orbitals with angular momentum L= 1

SPLIT: Basis orbitals for state 2p

SPLIT: PAO cut-off radius determined from an
SPLIT: energy shift=  0.002000 Ry

   izeta = 1
                 lambda =    1.000000
                     rc =    5.314825
                 energy =   -0.661986
                kinetic =    4.917472
    potential(screened) =   -5.579458
       potential(ionic) =  -13.236259

   izeta = 2
                 rmatch =    2.160663
              splitnorm =    0.280000
                 energy =   -0.068760
                kinetic =    9.183374
    potential(screened) =   -9.252135
       potential(ionic) =  -18.274251

POLgen: Perturbative polarization orbital with L=  2

POLgen: Polarization orbital for state 2p

   izeta = 1
                     rc =    5.314825
                 energy =    1.970580
                kinetic =    3.886128
    potential(screened) =   -1.915547
       potential(ionic) =   -7.749584
atom: Total number of Sankey-type orbitals: 13

atm_pop: Valence configuration (for local Pseudopot. screening):
 2s( 2.00)                                                            
 2p( 4.00)                                                            
Vna: chval, zval:    6.00000   6.00000

Vna:  Cut-off radius for the neutral-atom potential:   5.314825

atom: _________________________________________________________________________

<basis_specs>
===============================================================================
N                    Z=   7    Mass=  14.010        Charge= 0.17977+309
Lmxo=1 Lmxkb= 3    BasisType=split      Semic=F
L=0  Nsemic=0  Cnfigmx=2
          i=1  nzeta=2  polorb=0  (2s)
            splnorm:   0.28000    
               vcte:    0.0000    
               rinn:    0.0000    
               qcoe:    0.0000    
               qyuk:    0.0000    
               qwid:   0.10000E-01
                rcs:    0.0000      0.0000    
            lambdas:    1.0000      1.0000    
L=1  Nsemic=0  Cnfigmx=2
          i=1  nzeta=2  polorb=1  (2p)
            splnorm:   0.28000    
               vcte:    0.0000    
               rinn:    0.0000    
               qcoe:    0.0000    
               qyuk:    0.0000    
               qwid:   0.10000E-01
                rcs:    0.0000      0.0000    
            lambdas:    1.0000      1.0000    
-------------------------------------------------------------------------------
L=0  Nkbl=1  erefs: 0.17977+309
L=1  Nkbl=1  erefs: 0.17977+309
L=2  Nkbl=1  erefs: 0.17977+309
L=3  Nkbl=1  erefs: 0.17977+309
===============================================================================
</basis_specs>

atom: Called for N                     (Z =   7)

read_vps: Pseudopotential generation method:
read_vps: ATM4.2.7  Troullier-Martins                       
Valence charge for ps generation:    5.00000

xc_check: Exchange-correlation functional:
xc_check: GGA Perdew, Burke & Ernzerhof 1996
V l=0 = -2*Zval/r beyond r=  1.2889
V l=1 = -2*Zval/r beyond r=  1.2889
V l=2 = -2*Zval/r beyond r=  3.4178
V l=3 = -2*Zval/r beyond r=  2.4084
All V_l potentials equal beyond r=  3.3753
This should be close to max(r_c) in ps generation
All pots = -2*Zval/r beyond r=  3.4178

VLOCAL1: 99.0% of the norm of Vloc inside      3.810 Ry
VLOCAL1: 99.9% of the norm of Vloc inside      8.683 Ry
atom: Maximum radius for 4*pi*r*r*local-pseudopot. charge    4.02088
atom: Maximum radius for r*vlocal+2*Zval:    3.54838
GHOST: No ghost state for L =  0
GHOST: No ghost state for L =  1
GHOST: No ghost state for L =  2
GHOST: No ghost state for L =  3

KBgen: Kleinman-Bylander projectors: 
   l= 0   rc=  3.417763   el= -1.365098   Ekb= -4.433130   kbcos= -0.707855
   l= 1   rc=  3.375302   el= -0.521201   Ekb=-13.264039   kbcos= -0.535594
   l= 2   rc=  3.872880   el=  0.001991   Ekb= -0.641094   kbcos= -0.062456
   l= 3   rc=  3.970931   el=  0.003093   Ekb= -0.474517   kbcos= -0.018236

KBgen: Total number of Kleinman-Bylander projectors:   16
atom: -------------------------------------------------------------------------

atom: SANKEY-TYPE ORBITALS:
atom: Selected multiple-zeta basis: split     

SPLIT: Orbitals with angular momentum L= 0

SPLIT: Basis orbitals for state 2s

SPLIT: PAO cut-off radius determined from an
SPLIT: energy shift=  0.002000 Ry

   izeta = 1
                 lambda =    1.000000
                     rc =    4.730425
                 energy =   -1.363399
                kinetic =    1.245246
    potential(screened) =   -2.608645
       potential(ionic) =   -8.121105

   izeta = 2
                 rmatch =    2.531849
              splitnorm =    0.280000
                 energy =   -0.959908
                kinetic =    2.409435
    potential(screened) =   -3.369343
       potential(ionic) =   -9.427975

SPLIT: Orbitals with angular momentum L= 1

SPLIT: Basis orbitals for state 2p

SPLIT: PAO cut-off radius determined from an
SPLIT: energy shift=  0.002000 Ry

   izeta = 1
                 lambda =    1.000000
                     rc =    5.924108
                 energy =   -0.519262
                kinetic =    3.672940
    potential(screened) =   -4.192202
       potential(ionic) =   -9.518354

   izeta = 2
                 rmatch =    2.531849
              splitnorm =    0.280000
                 energy =   -0.104258
                kinetic =    6.807538
    potential(screened) =   -6.911796
       potential(ionic) =  -13.149920

POLgen: Perturbative polarization orbital with L=  2

POLgen: Polarization orbital for state 2p

   izeta = 1
                     rc =    5.924108
                 energy =    1.427508
                kinetic =    2.872379
    potential(screened) =   -1.444871
       potential(ionic) =   -5.563644
atom: Total number of Sankey-type orbitals: 13

atm_pop: Valence configuration (for local Pseudopot. screening):
 2s( 2.00)                                                            
 2p( 3.00)                                                            
Vna: chval, zval:    5.00000   5.00000

Vna:  Cut-off radius for the neutral-atom potential:   5.924108

atom: _________________________________________________________________________

<basis_specs>
===============================================================================
Si                   Z=  14    Mass=  28.090        Charge= 0.17977+309
Lmxo=1 Lmxkb= 3    BasisType=split      Semic=F
L=0  Nsemic=0  Cnfigmx=3
          i=1  nzeta=2  polorb=0  (3s)
            splnorm:   0.28000    
               vcte:    0.0000    
               rinn:    0.0000    
               qcoe:    0.0000    
               qyuk:    0.0000    
               qwid:   0.10000E-01
                rcs:    0.0000      0.0000    
            lambdas:    1.0000      1.0000    
L=1  Nsemic=0  Cnfigmx=3
          i=1  nzeta=2  polorb=1  (3p)
            splnorm:   0.28000    
               vcte:    0.0000    
               rinn:    0.0000    
               qcoe:    0.0000    
               qyuk:    0.0000    
               qwid:   0.10000E-01
                rcs:    0.0000      0.0000    
            lambdas:    1.0000      1.0000    
-------------------------------------------------------------------------------
L=0  Nkbl=1  erefs: 0.17977+309
L=1  Nkbl=1  erefs: 0.17977+309
L=2  Nkbl=1  erefs: 0.17977+309
L=3  Nkbl=1  erefs: 0.17977+309
===============================================================================
</basis_specs>

atom: Called for Si                    (Z =  14)

read_vps: Pseudopotential generation method:
read_vps: ATM4.2.7  Troullier-Martins                       
Valence charge for ps generation:    4.00000

xc_check: Exchange-correlation functional:
xc_check: GGA Perdew, Burke & Ernzerhof 1996
V l=0 = -2*Zval/r beyond r=  2.7826
V l=1 = -2*Zval/r beyond r=  2.7826
V l=2 = -2*Zval/r beyond r=  2.9253
V l=3 = -2*Zval/r beyond r=  2.7826
All V_l potentials equal beyond r=  2.8530
This should be close to max(r_c) in ps generation
All pots = -2*Zval/r beyond r=  2.9253

VLOCAL1: 99.0% of the norm of Vloc inside      5.333 Ry
VLOCAL1: 99.9% of the norm of Vloc inside     12.154 Ry
atom: Maximum radius for 4*pi*r*r*local-pseudopot. charge    3.39869
atom: Maximum radius for r*vlocal+2*Zval:    2.96205
GHOST: No ghost state for L =  0
GHOST: No ghost state for L =  1
GHOST: No ghost state for L =  2
GHOST: No ghost state for L =  3

KBgen: Kleinman-Bylander projectors: 
   l= 0   rc=  3.075247   el= -0.794092   Ekb=  5.879390   kbcos=  0.167461
   l= 1   rc=  3.153101   el= -0.300068   Ekb=  2.642817   kbcos=  0.058301
   l= 2   rc=  3.273594   el=  0.001958   Ekb= -1.185135   kbcos= -0.104411
   l= 3   rc=  3.232927   el=  0.003046   Ekb= -0.497174   kbcos= -0.015889

KBgen: Total number of Kleinman-Bylander projectors:   16
atom: -------------------------------------------------------------------------

atom: SANKEY-TYPE ORBITALS:
atom: Selected multiple-zeta basis: split     

SPLIT: Orbitals with angular momentum L= 0

SPLIT: Basis orbitals for state 3s

SPLIT: PAO cut-off radius determined from an
SPLIT: energy shift=  0.002000 Ry

   izeta = 1
                 lambda =    1.000000
                     rc =    6.429618
                 energy =   -0.792283
                kinetic =    0.525293
    potential(screened) =   -1.317576
       potential(ionic) =   -3.744923

   izeta = 2
                 rmatch =    3.998416
              splitnorm =    0.280000
                 energy =   -0.583081
                kinetic =    1.069570
    potential(screened) =   -1.652651
       potential(ionic) =   -4.235185

SPLIT: Orbitals with angular momentum L= 1

SPLIT: Basis orbitals for state 3p

SPLIT: PAO cut-off radius determined from an
SPLIT: energy shift=  0.002000 Ry

   izeta = 1
                 lambda =    1.000000
                     rc =    8.464845
                 energy =   -0.298236
                kinetic =    0.785360
    potential(screened) =   -1.083596
       potential(ionic) =   -3.273779

   izeta = 2
                 rmatch =    4.587816
              splitnorm =    0.280000
                 energy =   -0.131871
                kinetic =    1.403687
    potential(screened) =   -1.535557
       potential(ionic) =   -4.015310

POLgen: Perturbative polarization orbital with L=  2

POLgen: Polarization orbital for state 3p

   izeta = 1
                     rc =    8.464845
                 energy =    0.321949
                kinetic =    1.055677
    potential(screened) =   -0.733728
       potential(ionic) =   -2.672950
atom: Total number of Sankey-type orbitals: 13

atm_pop: Valence configuration (for local Pseudopot. screening):
 3s( 2.00)                                                            
 3p( 2.00)                                                            
Vna: chval, zval:    4.00000   4.00000

Vna:  Cut-off radius for the neutral-atom potential:   8.464845

atom: _________________________________________________________________________

<basis_specs>
===============================================================================
H                    Z=   1    Mass=  1.0100        Charge= 0.17977+309
Lmxo=0 Lmxkb= 2    BasisType=split      Semic=F
L=0  Nsemic=0  Cnfigmx=1
          i=1  nzeta=2  polorb=1  (1s)
            splnorm:   0.62000    
               vcte:    0.0000    
               rinn:    0.0000    
               qcoe:    0.0000    
               qyuk:    0.0000    
               qwid:   0.10000E-01
                rcs:    0.0000      0.0000    
            lambdas:    1.0000      1.0000    
-------------------------------------------------------------------------------
L=0  Nkbl=1  erefs: 0.17977+309
L=1  Nkbl=1  erefs: 0.17977+309
L=2  Nkbl=1  erefs: 0.17977+309
===============================================================================
</basis_specs>

atom: Called for H                     (Z =   1)

read_vps: Pseudopotential generation method:
read_vps: ATM4.2.7  Troullier-Martins                       
Valence charge for ps generation:    1.00000

xc_check: Exchange-correlation functional:
xc_check: GGA Perdew, Burke & Ernzerhof 1996
V l=0 = -2*Zval/r beyond r=  0.0098
V l=1 = -2*Zval/r beyond r=  0.5817
V l=2 = -2*Zval/r beyond r=  1.9372
All V_l potentials equal beyond r=  1.9372
This should be close to max(r_c) in ps generation
All pots = -2*Zval/r beyond r=  1.9372

VLOCAL1: 99.0% of the norm of Vloc inside     11.567 Ry
VLOCAL1: 99.9% of the norm of Vloc inside     26.362 Ry
atom: Maximum radius for 4*pi*r*r*local-pseudopot. charge    2.25106
atom: Maximum radius for r*vlocal+2*Zval:    1.91306
GHOST: No ghost state for L =  0
GHOST: No ghost state for L =  1
GHOST: No ghost state for L =  2

KBgen: Kleinman-Bylander projectors: 
   l= 0   rc=  2.036604   el= -0.477180   Ekb= -6.081590   kbcos= -0.277285
   l= 1   rc=  2.195416   el=  0.001076   Ekb= -0.926943   kbcos= -0.034643
   l= 2   rc=  2.251056   el=  0.002010   Ekb= -0.130941   kbcos= -0.009788

KBgen: Total number of Kleinman-Bylander projectors:    9
atom: -------------------------------------------------------------------------

atom: SANKEY-TYPE ORBITALS:
atom: Selected multiple-zeta basis: split     

SPLIT: Orbitals with angular momentum L= 0

SPLIT: Basis orbitals for state 1s

SPLIT: PAO cut-off radius determined from an
SPLIT: energy shift=  0.002000 Ry

   izeta = 1
                 lambda =    1.000000
                     rc =    6.518340
                 energy =   -0.475305
                kinetic =    0.912139
    potential(screened) =   -1.387444
       potential(ionic) =   -1.907295

   izeta = 2
                 rmatch =    2.141150
              splitnorm =    0.620000
                 energy =    0.566467
                kinetic =    3.772856
    potential(screened) =   -3.206389
       potential(ionic) =   -3.759093

POLgen: Perturbative polarization orbital with L=  1

POLgen: Polarization orbital for state 1s

   izeta = 1
                     rc =    6.518340
                 energy =    0.533861
                kinetic =    1.121086
    potential(screened) =   -0.587225
       potential(ionic) =   -1.053027
atom: Total number of Sankey-type orbitals:  5

atm_pop: Valence configuration (for local Pseudopot. screening):
 1s( 1.00)                                                            
Vna: chval, zval:    1.00000   1.00000

Vna:  Cut-off radius for the neutral-atom potential:   6.518340

atom: _________________________________________________________________________

prinput: Basis input ----------------------------------------------------------

PAO.BasisType split     

%block ChemicalSpeciesLabel
    1    8 O                       # Species index, atomic number, species label
    2    7 N                       # Species index, atomic number, species label
    3   14 Si                      # Species index, atomic number, species label
    4    1 H                       # Species index, atomic number, species label
%endblock ChemicalSpeciesLabel

%block PAO.Basis                 # Define Basis set
O                     2                    # Species label, number of l-shells
 n=2   0   2                         # n, l, Nzeta 
   4.244      2.188   
   1.000      1.000   
 n=2   1   2 P   1                   # n, l, Nzeta, Polarization, NzetaPol
   5.315      2.161   
   1.000      1.000   
N                     2                    # Species label, number of l-shells
 n=2   0   2                         # n, l, Nzeta 
   4.730      2.532   
   1.000      1.000   
 n=2   1   2 P   1                   # n, l, Nzeta, Polarization, NzetaPol
   5.924      2.532   
   1.000      1.000   
Si                    2                    # Species label, number of l-shells
 n=3   0   2                         # n, l, Nzeta 
   6.430      3.998   
   1.000      1.000   
 n=3   1   2 P   1                   # n, l, Nzeta, Polarization, NzetaPol
   8.465      4.588   
   1.000      1.000   
H                     1                    # Species label, number of l-shells
 n=1   0   2 P   1                   # n, l, Nzeta, Polarization, NzetaPol
   6.518      2.141   
   1.000      1.000   
%endblock PAO.Basis

prinput: ----------------------------------------------------------------------

Dumping basis to NetCDF file O.ion.nc
Dumping basis to NetCDF file N.ion.nc
Dumping basis to NetCDF file Si.ion.nc
Dumping basis to NetCDF file H.ion.nc
coor:   Atomic-coordinates input format  =     Cartesian coordinates
coor:                                          (in Angstroms)

siesta: Atomic coordinates (Bohr) and species
siesta:      1.61558   7.37525   0.00000  1        1
siesta:     -5.95545   1.55686   0.00000  2        2
siesta:      3.64437   2.21854   0.00000  2        3
siesta:      1.85174  -3.45872   0.00000  2        4
siesta:     -4.08041  -3.83238   0.00000  2        5
siesta:      7.15322  -2.10270   0.00000  2        6
siesta:     -2.54345   1.84485   0.00000  3        7
siesta:     -1.13278  -2.07129   0.00000  3        8
siesta:      0.85639   4.44182   0.00000  3        9
siesta:      4.03136  -1.08945   0.00000  3       10
siesta:     -6.64440  -1.59126   0.00000  3       11
siesta:      5.33759   3.31595   0.00000  4       12
siesta:     -9.21724  -2.77641   0.00000  4       13
siesta:      7.54937  -4.05007   0.00000  4       14
siesta:      8.73225  -0.91400   0.00000  4       15
siesta:     -4.30685  -5.82322   0.00000  4       16
siesta:     11.99758  11.56176  -0.00000  3       17
siesta:     15.52940  13.94214  -0.00000  3       18
siesta:     14.66214   6.38062  -0.00000  3       19
siesta:     18.56933  11.11739  -0.00000  3       20
siesta:     12.11007   8.37766  -0.00000  2       21
siesta:      8.91732  12.75240  -0.00000  2       22
siesta:     17.76864   7.87557  -0.00000  2       23
siesta:     16.05921  16.72046  -0.00000  4       24
siesta:     21.39525  11.53097  -0.00000  4       25
siesta:      8.45536  14.67702  -0.00000  4       26
siesta:      7.35501  11.51114  -0.00000  4       27
siesta:     14.77416   3.39024  -0.00000  1       28
siesta:     19.22686   6.50180  -0.00000  4       29

siesta: Automatic unit cell vectors (Ang):
siesta:   25.407949    0.000000    0.000000
siesta:    0.000000   20.711139    0.000000
siesta:    0.000000    0.000000    9.854683

siesta: System type = molecule  

initatomlists: Number of atoms, orbitals, and projectors:     29   297   394

siesta: ******************** Simulation parameters ****************************
siesta:
siesta: The following are some of the parameters of the simulation.
siesta: A complete list of the parameters used, including default values,
siesta: can be found in file out.fdf
siesta:
redata: Spin configuration                          = spin-orbit
redata: Number of spin components                   = 8
redata: Time-Reversal Symmetry                      = F
redata: Spin spiral                                 = F
############################################################
This spin-orbit implementation uses a local approximation.
From 4.2 and onwards the full non-local approximation is implemented
You are strongly advised to use >=4.2 versions!
############################################################
redata: Long output                                 =   F
redata: Number of Atomic Species                    =        4
redata: Charge density info will appear in .RHO file
redata: Write Mulliken Pop.                         = Atomic and Orbital charges
redata: Matel table size (NRTAB)                    =     1024
redata: Mesh Cutoff                                 =   340.0000 Ry
redata: Net charge of the system                    =     0.0000 |e|
redata: Min. number of SCF Iter                     =        1
redata: Max. number of SCF Iter                     =      200
redata: SCF mix quantity                            = Hamiltonian
redata: Mix DM or H after convergence               =   F
redata: Recompute H after scf cycle                 =   F
redata: Mix DM in first SCF step                    =   T
redata: Write Pulay info on disk                    =   F
redata: New DM Occupancy tolerance                  = 0.000000000001
redata: No kicks to SCF
redata: DM Mixing Weight for Kicks                  =     0.5000
redata: Require Harris convergence for SCF          =   F
redata: Harris energy tolerance for SCF             =     0.000100 eV
redata: Require DM convergence for SCF              =   T
redata: DM tolerance for SCF                        =     0.000008
redata: Require EDM convergence for SCF             =   F
redata: EDM tolerance for SCF                       =     0.001000 eV
redata: Require H convergence for SCF               =   T
redata: Hamiltonian tolerance for SCF               =     0.000001 eV
redata: Require (free) Energy convergence for SCF   =   F
redata: (free) Energy tolerance for SCF             =     0.000100 eV
redata: Using Saved Data (generic)                  =   F
redata: Use continuation files for DM               =   F
redata: Neglect nonoverlap interactions             =   F
redata: Method of Calculation                       = Diagonalization
redata: Electronic Temperature                      =   299.9978 K
redata: Fix the spin of the system                  =   F
redata: Dynamics option                             = Single-point calculation
mix.SCF: Pulay mixing                            = Pulay
mix.SCF:    Variant                              = stable
mix.SCF:    History steps                        = 6
mix.SCF:    Linear mixing weight                 =     0.250000
mix.SCF:    Mixing weight                        =     0.250000
mix.SCF:    SVD condition                        = 0.1000E-07
mix.SCF:    Restart steps                        = 24
mix.SCF:    Restart save steps                   = 3
mix.SCF: Spin-component mixing                   all
redata: Save all siesta data in one NC              =   F
redata: ***********************************************************************

%block SCF.Mixers
  Pulay
%endblock SCF.Mixers

%block SCF.Mixer.Pulay
  # Mixing method
  method pulay
  variant stable

  # Mixing options
  weight 0.2500
  weight.linear 0.2500
  history 6
  restart 24
  restart.save 3
%endblock SCF.Mixer.Pulay

DM_history_depth set to one: no extrapolation allowed by default for geometry relaxation
Size of DM history Fstack: 1
Total number of electrons:    98.000000
Total ionic charge:    98.000000

* ProcessorY, Blocksize:    2  24


* Orbital distribution balance (max,min):    81    72


Time-reversal symmetry not used.

siesta: k-grid: Number of k-points =     1
siesta: k-grid: Cutoff (effective) =     4.927 Ang
siesta: k-grid: Supercell and displacements
siesta: k-grid:    1   0   0      0.000
siesta: k-grid:    0   1   0      0.000
siesta: k-grid:    0   0   1      0.000

diag: Algorithm                                     = ELPA-1stage
diag: Parallel over k                               =   F
diag: Use parallel 2D distribution                  =   T
diag: Parallel block-size                           = 24
diag: Parallel distribution                         =     2 x     2
diag: Used triangular part                          = Lower
diag: Absolute tolerance                            =  0.100E-15
diag: Orthogonalization factor                      =  0.100E-05
diag: Memory factor                                 =  1.0000


ts: **************************************************************
ts: Save H and S matrices                           =    F
ts: Save DM and EDM matrices                        =    F
ts: Only save the overlap matrix S                  =    F
ts: **************************************************************

************************ Begin: TS CHECKS AND WARNINGS ************************
************************ End: TS CHECKS AND WARNINGS **************************


                     ====================================
                        Single-point calculation
                     ====================================

outcoor: Atomic coordinates (Ang):                          
    0.85492771    3.90281136    0.00000000   1       1  O
   -3.15148660    0.82385413    0.00000000   2       2  N
    1.92851868    1.17400090    0.00000000   2       3  N
    0.97989950   -1.83027589    0.00000000   2       4  N
   -2.15925893   -2.02800480    0.00000000   2       5  N
    3.78531977   -1.11270066    0.00000000   2       6  N
   -1.34593381    0.97625025    0.00000000   3       7  Si
   -0.59943988   -1.09607717    0.00000000   3       8  Si
    0.45318289    2.35051023    0.00000000   3       9  Si
    2.13330203   -0.57651080    0.00000000   3      10  Si
   -3.51606566   -0.84205651    0.00000000   3      11  Si
    2.82452783    1.75472311    0.00000000   4      12  H
   -4.87755169   -1.46921466    0.00000000   4      13  H
    3.99495202   -2.14320400    0.00000000   4      14  H
    4.62090361   -0.48366606    0.00000000   4      15  H
   -2.27908518   -3.08151409    0.00000000   4      16  H
    6.34884084    6.11821660    0.00000000   3      17  Si
    8.21780033    7.37786023    0.00000000   3      18  Si
    7.75886795    3.37647838    0.00000000   3      19  Si
    9.82646067    5.88306960    0.00000000   3      20  Si
    6.40837079    4.43326414    0.00000000   2      21  N
    4.71884164    6.74827683    0.00000000   2      22  N
    9.40275682    4.16756879    0.00000000   2      23  N
    8.49816403    8.84808275    0.00000000   4      24  H
   11.32187205    6.10192214    0.00000000   4      25  H
    4.47438265    7.76674278    0.00000000   4      26  H
    3.89210046    6.09142870    0.00000000   4      27  H
    7.81814371    1.79403635    0.00000000   1      28  O
   10.17441241    3.44060143    0.00000000   4      29  H

outcell: Unit cell vectors (Ang):
       25.407949    0.000000    0.000000
        0.000000   20.711139    0.000000
        0.000000    0.000000    9.854683

outcell: Cell vector modules (Ang)   :   25.407949   20.711139    9.854683
outcell: Cell angles (23,13,12) (deg):     90.0000     90.0000     90.0000
outcell: Cell volume (Ang**3)        :   5185.8060
<dSpData1D:S at geom step 0
  <sparsity:sparsity for geom step 0
    nrows_g=297 nrows=81 sparsity=.1826 nnzs=16111, refcount: 8>
  <dData1D:(new from dSpData1D) n=16111, refcount: 1>
refcount: 1>
new_DM -- step:     1
Initializing Density Matrix...
DM filled with atomic data:
<dSpData2D:DM initialized from atoms
  <sparsity:sparsity for geom step 0
    nrows_g=297 nrows=81 sparsity=.1826 nnzs=16111, refcount: 9>
  <dData2D:DM n=16111 m=8, refcount: 1>
refcount: 1>
     spin moment: S , {S} =   56.00000   0.00000   0.00000  56.00000
No. of atoms with KB's overlaping orbs in proc 0. Max # of overlaps:      29     154

Initializing spin-orbit part of the Hamiltonian
  Adding spin-orbit effects for O 
  Adding spin-orbit effects for N 
  Adding spin-orbit effects for Si
  Adding spin-orbit effects for H 


New grid distribution:   1
           1       1:  144    1:   60    1:   30
           2       1:  144    1:   60   31:   60
           3       1:  144   61:  120    1:   30
           4       1:  144   61:  120   31:   60

InitMesh: MESH =   288 x   240 x   120 =     8294400
InitMesh: (bp) =   144 x   120 x    60 =     1036800
InitMesh: Mesh cutoff (required, used) =   340.000   355.097 Ry
ExtMesh (bp) on 0 =   248 x   164 x   142 =     5775424
New grid distribution:   2
           1      45:  144    1:   33    1:   60
           2       1:   44    1:   32    1:   60
           3      45:  144   34:  120    1:   60
           4       1:   44   33:  120    1:   60
New grid distribution:   3
           1      49:  144    1:   37    1:   60
           2       1:   48    1:   40    1:   60
           3      49:  144   38:  120    1:   60
           4       1:   48   41:  120    1:   60
Setting up quadratic distribution...
ExtMesh (bp) on 0 =   204 x   137 x   172 =     4807056
PhiOnMesh: Number of (b)points on node 0 =               198000
PhiOnMesh: nlist on node 0 =              2537246

stepf: Fermi-Dirac step function

siesta: Program's energy decomposition (eV):
siesta: Ebs     =      -615.391202
siesta: Eions   =      3585.165840
siesta: Ena     =       384.948167
siesta: Ekin    =      3376.575767
siesta: Enl     =     -3308.332665
siesta: Eso     =        -0.003376
siesta: Edftu   =         0.000000
siesta: DEna    =       154.757720
siesta: DUscf   =        82.009723
siesta: DUext   =         0.000000
siesta: Exc     =     -1205.376279
siesta: eta*DQ  =         0.000000
siesta: Emadel  =         0.000000
siesta: Emeta   =         0.000000
siesta: Emolmec =         0.000000
siesta: Ekinion =         0.000000
siesta: Eharris =     -4021.041509
siesta: Etot    =     -4100.586783
siesta: FreeEng =     -4100.588294

        iscf     Eharris(eV)        E_KS(eV)     FreeEng(eV)     dDmax    Ef(eV) dHmax(eV)
   scf:    1    -4021.041509    -4100.586783    -4100.588294  0.965024 -4.889082 21.585424
     spin moment: S , {S} =    2.00788  -0.00000   0.00000   2.00788
timer: Routine,Calls,Time,% = IterSCF        1      12.852  17.70
   scf:    2    -4148.762759    -4136.666899    -4136.671258  0.459778 -4.225315 11.405610
     spin moment: S , {S} =    1.96762  -0.00000   0.00000   1.96762
   scf:    3    -4110.427273    -4134.457634    -4134.479461  0.432250 -4.339053 11.477836
     spin moment: S , {S} =    2.03757   0.00000  -0.00000   2.03757
   scf:    4    -4149.800554    -4145.284866    -4145.284867  0.293052 -3.937459  5.964708
     spin moment: S , {S} =    0.00010  -0.00000  -0.00000   0.00010
   scf:    5    -4146.551180    -4146.025080    -4146.025080  0.038265 -3.726304  4.097673
     spin moment: S , {S} =    0.00006   0.00000  -0.00000   0.00006
   scf:    6    -4146.769345    -4146.404671    -4146.404671  0.023939 -3.561724  2.072165
     spin moment: S , {S} =    0.00003   0.00000   0.00000   0.00003
   scf:    7    -4146.762149    -4146.581187    -4146.581187  0.022170 -3.731167  0.884719
     spin moment: S , {S} =    0.00001  -0.00000  -0.00000   0.00001
   scf:    8    -4146.698607    -4146.638107    -4146.638107  0.012244 -3.650923  0.496901
     spin moment: S , {S} =    0.00000   0.00000  -0.00000   0.00000
   scf:    9    -4146.678534    -4146.657583    -4146.657583  0.006973 -3.787660  0.344717
     spin moment: S , {S} =    0.00000   0.00000  -0.00000   0.00000
   scf:   10    -4146.707602    -4146.677251    -4146.677251  0.019968 -3.810092  0.208944
     spin moment: S , {S} =    0.00000  -0.00000   0.00000  -0.00000
   scf:   11    -4146.680731    -4146.678918    -4146.678918  0.005896 -3.798850  0.053631
     spin moment: S , {S} =    0.00000  -0.00000  -0.00000  -0.00000
   scf:   12    -4146.679808    -4146.679376    -4146.679376  0.001161 -3.795146  0.025139
     spin moment: S , {S} =    0.00000  -0.00000  -0.00000   0.00000
   scf:   13    -4146.679776    -4146.679571    -4146.679571  0.001454 -3.791154  0.017282
     spin moment: S , {S} =    0.00000  -0.00000  -0.00000   0.00000
   scf:   14    -4146.679819    -4146.679688    -4146.679688  0.001341 -3.788926  0.013927
     spin moment: S , {S} =    0.00000  -0.00000   0.00000   0.00000
   scf:   15    -4146.679820    -4146.679748    -4146.679748  0.001186 -3.788779  0.010350
     spin moment: S , {S} =    0.00000  -0.00000   0.00000   0.00000
   scf:   16    -4146.679842    -4146.679789    -4146.679789  0.001224 -3.788872  0.006787
     spin moment: S , {S} =    0.00000  -0.00000  -0.00000   0.00000
   scf:   17    -4146.679821    -4146.679803    -4146.679803  0.000745 -3.788898  0.004574
     spin moment: S , {S} =    0.00000  -0.00000  -0.00000   0.00000
   scf:   18    -4146.679815    -4146.679808    -4146.679808  0.000463 -3.788899  0.002525
     spin moment: S , {S} =    0.00000  -0.00000  -0.00000   0.00000
   scf:   19    -4146.679813    -4146.679810    -4146.679810  0.000304 -3.788921  0.001394
     spin moment: S , {S} =    0.00000  -0.00000  -0.00000   0.00000
   scf:   20    -4146.679812    -4146.679811    -4146.679811  0.000159 -3.788918  0.000796
     spin moment: S , {S} =    0.00000  -0.00000  -0.00000   0.00000
   scf:   21    -4146.679812    -4146.679811    -4146.679811  0.000141 -3.788933  0.000381
     spin moment: S , {S} =    0.00000  -0.00000  -0.00000   0.00000
   scf:   22    -4146.679812    -4146.679811    -4146.679811  0.000063 -3.788938  0.000197
     spin moment: S , {S} =    0.00000  -0.00000  -0.00000   0.00000
   scf:   23    -4146.679811    -4146.679811    -4146.679811  0.000016 -3.788945  0.000145
     spin moment: S , {S} =    0.00000  -0.00000  -0.00000   0.00000
   scf:   24    -4146.679812    -4146.679811    -4146.679811  0.000006 -3.788950  0.000106
     spin moment: S , {S} =    0.00000  -0.00000   0.00000   0.00000
mix: Pulay -- resetting history
   scf:   25    -4146.679812    -4146.679811    -4146.679811  0.000005 -3.788951  0.000071
     spin moment: S , {S} =    0.00000  -0.00000   0.00000   0.00000
   scf:   26    -4146.679812    -4146.679812    -4146.679812  0.000007 -3.788949  0.000044
     spin moment: S , {S} =    0.00000  -0.00000  -0.00000   0.00000
   scf:   27    -4146.679812    -4146.679812    -4146.679812  0.000003 -3.788948  0.000034
     spin moment: S , {S} =    0.00000  -0.00000  -0.00000   0.00000
   scf:   28    -4146.679812    -4146.679812    -4146.679812  0.000005 -3.788947  0.000015
     spin moment: S , {S} =    0.00000  -0.00000  -0.00000   0.00000
   scf:   29    -4146.679812    -4146.679812    -4146.679812  0.000001 -3.788947  0.000009
     spin moment: S , {S} =    0.00000  -0.00000   0.00000   0.00000
   scf:   30    -4146.679812    -4146.679812    -4146.679812  0.000001 -3.788947  0.000004
     spin moment: S , {S} =    0.00000  -0.00000   0.00000   0.00000
   scf:   31    -4146.679812    -4146.679812    -4146.679812  0.000001 -3.788947  0.000001
     spin moment: S , {S} =    0.00000  -0.00000   0.00000   0.00000
   scf:   32    -4146.679812    -4146.679812    -4146.679812  0.000000 -3.788947  0.000001
     spin moment: S , {S} =    0.00000  -0.00000  -0.00000   0.00000

SCF Convergence by DM+H criterion
max |DM_out - DM_in|         :     0.0000002628
max |H_out - H_in|      (eV) :     0.0000009859
SCF cycle converged after 32 iterations

Using DM_out to compute the final energy and forces
No. of atoms with KB's overlaping orbs in proc 0. Max # of overlaps:      29     154

siesta: E_KS(eV) =            -4146.6798

siesta: E_KS - E_eggbox =     -4146.6798
     spin moment: S , {S} =    0.00000  -0.00000  -0.00000   0.00000

siesta: Atomic forces (eV/Ang):
     1    2.835926   -3.376093   -0.000000
     2   -0.010065   -0.009425    0.000000
     3   -0.126040    0.071388    0.000000
     4   -0.106565   -0.068870    0.000000
     5   -0.008583   -0.014784   -0.000000
     6   -0.172667    0.044693    0.000000
     7   -0.007934    0.017324   -0.000000
     8    0.081937    0.004957    0.000000
     9    0.099763   -0.108811   -0.000000
    10    0.253022    0.014180   -0.000000
    11   -0.025173    0.029681    0.000000
    12   -0.091335   -0.117323   -0.000000
    13    0.103066    0.103723   -0.000000
    14   -0.054715   -0.017890    0.000000
    15    0.227420    0.129177   -0.000000
    16   -0.002054    0.091875   -0.000000
    17   -0.190836    0.088923    0.000000
    18    0.028680   -0.026433    0.000000
    19   -0.003909    0.181316   -0.000000
    20   -0.019548    0.045116    0.000000
    21    0.064232   -0.147439   -0.000000
    22    0.154530   -0.010724   -0.000000
    23   -0.022421   -0.059318   -0.000000
    24   -0.061509    0.102397   -0.000000
    25   -0.133435    0.043260   -0.000000
    26    0.036437    0.146420   -0.000000
    27   -0.025070    0.011185    0.000000
    28    1.980439    3.043146    0.000000
    29    0.009489    0.065781    0.000000
----------------------------------------
   Tot    4.813083    0.277433   -0.000000
----------------------------------------
   Max    3.376093
   Res    0.616888    sqrt( Sum f_i^2 / 3N )
----------------------------------------
   Max    3.376093    constrained

Stress tensor Voigt[x,y,z,yz,xz,xy] (kbar):        0.53        0.11       -0.08        0.00       -0.00        0.45
(Free)E + p*V (eV/cell)    -4147.2858
Target enthalpy (eV/cell)    -4146.6798

mulliken: Atomic and Orbital Populations:

Species: O                   

Atom      Orb        Charge      Spin       Svec
----------------------------------------------------------------
    1  1 2s         1.74449   0.00000     -0.000  -0.000   0.000
    1  2 2s         0.06668   0.00000      0.000   0.000   0.000
    1  3 2py        1.43456   0.00000      0.000   0.000   0.000
    1  4 2pz        1.54717   0.00000      0.000  -0.000   0.000
    1  5 2px        1.61905   0.00000     -0.000  -0.000  -0.000
    1  6 2py        0.03862   0.00000     -0.000  -0.000   0.000
    1  7 2pz       -0.00465   0.00000     -0.000   0.000   0.000
    1  8 2px        0.00655   0.00000      0.000   0.000   0.000
    1  9 3Pdxy      0.00731   0.00000      0.000   0.000   0.000
    1 10 3Pdyz      0.00931   0.00000      0.000  -0.000  -0.000
    1 11 3Pdz2      0.00166   0.00000      0.000  -0.000   0.000
    1 12 3Pdxz      0.00040   0.00000      0.000  -0.000   0.000
    1 13 3Pdx2-y2   0.00703   0.00000      0.000  -0.000  -0.000
    1     Total     6.47817   0.00000     -0.000  -0.000   0.000

   28  1 2s         1.73529   0.00000      0.000   0.000   0.000
   28  2 2s         0.07011   0.00000     -0.000  -0.000  -0.000
   28  3 2py        1.42678   0.00000     -0.000  -0.000   0.000
   28  4 2pz        1.54227   0.00000     -0.000   0.000   0.000
   28  5 2px        1.63418   0.00000      0.000   0.000  -0.000
   28  6 2py        0.04208   0.00000     -0.000  -0.000   0.000
   28  7 2pz       -0.00258   0.00000     -0.000  -0.000   0.000
   28  8 2px        0.01400   0.00000     -0.000   0.000   0.000
   28  9 3Pdxy      0.00697   0.00000     -0.000  -0.000   0.000
   28 10 3Pdyz      0.01025   0.00000     -0.000   0.000  -0.000
   28 11 3Pdz2      0.00125   0.00000      0.000  -0.000  -0.000
   28 12 3Pdxz     -0.00017   0.00000     -0.000  -0.000  -0.000
   28 13 3Pdx2-y2   0.00772   0.00000      0.000   0.000   0.000
   28     Total     6.48815   0.00000     -0.000  -0.000   0.000

----------------------------------------------------------------
Total              12.96632   0.00000     -0.000  -0.000   0.000


Species: N                   

Atom      Orb        Charge      Spin       Svec
----------------------------------------------------------------
    2  1 2s         1.54954   0.00000      0.000  -0.000  -0.000
    2  2 2s         0.08439   0.00000     -0.000   0.000   0.000
    2  3 2py        1.03202   0.00000     -0.000   0.000  -0.000
    2  4 2pz        1.22393   0.00000      0.000  -0.000  -0.000
    2  5 2px        1.00588   0.00000     -0.000  -0.000  -0.000
    2  6 2py        0.19268   0.00000      0.000  -0.000   0.000
    2  7 2pz        0.05457   0.00000     -0.000   0.000   0.000
    2  8 2px        0.19065   0.00000      0.000   0.000   0.000
    2  9 3Pdxy      0.00841   0.00000      0.000  -0.000   0.000
    2 10 3Pdyz      0.01082   0.00000      0.000  -0.000   0.000
    2 11 3Pdz2      0.00195   0.00000     -0.000   0.000   0.000
    2 12 3Pdxz      0.00754   0.00000     -0.000  -0.000   0.000
    2 13 3Pdx2-y2   0.00891   0.00000      0.000  -0.000  -0.000
    2     Total     5.37131   0.00000     -0.000  -0.000  -0.000

    3  1 2s         1.40610   0.00000     -0.000   0.000  -0.000
    3  2 2s         0.11491   0.00000      0.000  -0.000   0.000
    3  3 2py        0.94019   0.00000     -0.000  -0.000  -0.000
    3  4 2pz        1.53879   0.00000      0.000  -0.000  -0.000
    3  5 2px        1.09881   0.00000      0.000  -0.000   0.000
    3  6 2py        0.24805   0.00000      0.000   0.000   0.000
    3  7 2pz        0.00838   0.00000     -0.000   0.000   0.000
    3  8 2px        0.16875   0.00000     -0.000   0.000   0.000
    3  9 3Pdxy      0.00424   0.00000     -0.000   0.000   0.000
    3 10 3Pdyz      0.00412   0.00000      0.000   0.000  -0.000
    3 11 3Pdz2      0.00081   0.00000     -0.000   0.000   0.000
    3 12 3Pdxz      0.00264   0.00000     -0.000  -0.000  -0.000
    3 13 3Pdx2-y2   0.00300   0.00000     -0.000  -0.000  -0.000
    3     Total     5.53880   0.00000     -0.000   0.000  -0.000

    4  1 2s         1.46886   0.00000      0.000   0.000   0.000
    4  2 2s         0.11673   0.00000     -0.000  -0.000   0.000
    4  3 2py        1.10473   0.00000     -0.000  -0.000   0.000
    4  4 2pz        1.29276   0.00000     -0.000  -0.000   0.000
    4  5 2px        0.84192   0.00000      0.000  -0.000  -0.000
    4  6 2py        0.15575   0.00000      0.000   0.000   0.000
    4  7 2pz        0.05358   0.00000      0.000   0.000   0.000
    4  8 2px        0.28651   0.00000      0.000   0.000   0.000
    4  9 3Pdxy      0.00855   0.00000     -0.000   0.000  -0.000
    4 10 3Pdyz      0.01079   0.00000      0.000  -0.000  -0.000
    4 11 3Pdz2      0.00132   0.00000     -0.000  -0.000  -0.000
    4 12 3Pdxz      0.00492   0.00000      0.000   0.000  -0.000
    4 13 3Pdx2-y2   0.00852   0.00000     -0.000   0.000  -0.000
    4     Total     5.35495   0.00000      0.000  -0.000   0.000

    5  1 2s         1.37369   0.00000      0.000   0.000  -0.000
    5  2 2s         0.12890   0.00000     -0.000  -0.000   0.000
    5  3 2py        1.02732   0.00000     -0.000  -0.000  -0.000
    5  4 2pz        1.50097   0.00000     -0.000  -0.000  -0.000
    5  5 2px        1.05899   0.00000     -0.000   0.000  -0.000
    5  6 2py        0.20316   0.00000      0.000   0.000   0.000
    5  7 2pz        0.01356   0.00000      0.000  -0.000   0.000
    5  8 2px        0.20246   0.00000      0.000  -0.000   0.000
    5  9 3Pdxy      0.00369   0.00000      0.000   0.000  -0.000
    5 10 3Pdyz      0.00249   0.00000     -0.000   0.000   0.000
    5 11 3Pdz2      0.00138   0.00000      0.000  -0.000   0.000
    5 12 3Pdxz      0.00684   0.00000     -0.000  -0.000   0.000
    5 13 3Pdx2-y2   0.00572   0.00000     -0.000   0.000   0.000
    5     Total     5.52915   0.00000     -0.000  -0.000  -0.000

    6  1 2s         1.26648   0.00000     -0.000  -0.000  -0.000
    6  2 2s         0.18021   0.00000     -0.000   0.000   0.000
    6  3 2py        1.08230   0.00000     -0.000  -0.000  -0.000
    6  4 2pz        1.57351   0.00000      0.000   0.000  -0.000
    6  5 2px        0.97350   0.00000     -0.000   0.000  -0.000
    6  6 2py        0.18701   0.00000     -0.000   0.000   0.000
    6  7 2pz        0.02929   0.00000     -0.000  -0.000   0.000
    6  8 2px        0.25242   0.00000      0.000  -0.000   0.000
    6  9 3Pdxy      0.00253   0.00000      0.000   0.000   0.000
    6 10 3Pdyz      0.00012   0.00000     -0.000   0.000  -0.000
    6 11 3Pdz2      0.00163   0.00000     -0.000  -0.000   0.000
    6 12 3Pdxz      0.00292   0.00000     -0.000  -0.000  -0.000
    6 13 3Pdx2-y2   0.00304   0.00000     -0.000   0.000  -0.000
    6     Total     5.55496   0.00000     -0.000   0.000  -0.000

   21  1 2s         1.40954   0.00000      0.000   0.000  -0.000
   21  2 2s         0.13313   0.00000     -0.000  -0.000   0.000
   21  3 2py        0.87231   0.00000      0.000   0.000  -0.000
   21  4 2pz        1.29535   0.00000      0.000   0.000   0.000
   21  5 2px        1.15729   0.00000      0.000   0.000  -0.000
   21  6 2py        0.28062   0.00000     -0.000  -0.000   0.000
   21  7 2pz        0.04980   0.00000      0.000   0.000   0.000
   21  8 2px        0.16454   0.00000     -0.000  -0.000   0.000
   21  9 3Pdxy      0.00645   0.00000      0.000  -0.000   0.000
   21 10 3Pdyz      0.00514   0.00000      0.000   0.000  -0.000
   21 11 3Pdz2     -0.00004   0.00000      0.000  -0.000   0.000
   21 12 3Pdxz      0.00582   0.00000     -0.000   0.000  -0.000
   21 13 3Pdx2-y2   0.00558   0.00000     -0.000  -0.000  -0.000
   21     Total     5.38553   0.00000      0.000   0.000   0.000

   22  1 2s         1.28604   0.00000      0.000  -0.000   0.000
   22  2 2s         0.17162   0.00000     -0.000   0.000  -0.000
   22  3 2py        1.07147   0.00000     -0.000   0.000  -0.000
   22  4 2pz        1.55609   0.00000     -0.000  -0.000  -0.000
   22  5 2px        1.00465   0.00000      0.000  -0.000  -0.000
   22  6 2py        0.19305   0.00000      0.000  -0.000   0.000
   22  7 2pz        0.02786   0.00000      0.000   0.000   0.000
   22  8 2px        0.23229   0.00000     -0.000   0.000   0.000
   22  9 3Pdxy      0.00343   0.00000     -0.000  -0.000   0.000
   22 10 3Pdyz      0.00012   0.00000      0.000  -0.000  -0.000
   22 11 3Pdz2      0.00254   0.00000     -0.000   0.000   0.000
   22 12 3Pdxz      0.00284   0.00000     -0.000   0.000  -0.000
   22 13 3Pdx2-y2   0.00335   0.00000      0.000   0.000  -0.000
   22     Total     5.55535   0.00000      0.000  -0.000  -0.000

   23  1 2s         1.39723   0.00000     -0.000  -0.000  -0.000
   23  2 2s         0.11758   0.00000      0.000   0.000  -0.000
   23  3 2py        0.99643   0.00000      0.000   0.000  -0.000
   23  4 2pz        1.52015   0.00000      0.000  -0.000  -0.000
   23  5 2px        1.07455   0.00000     -0.000   0.000  -0.000
   23  6 2py        0.22133   0.00000     -0.000  -0.000   0.000
   23  7 2pz        0.00540   0.00000     -0.000   0.000   0.000
   23  8 2px        0.19231   0.00000     -0.000  -0.000   0.000
   23  9 3Pdxy      0.00525   0.00000      0.000  -0.000   0.000
   23 10 3Pdyz      0.00451   0.00000      0.000   0.000  -0.000
   23 11 3Pdz2      0.00054   0.00000      0.000   0.000   0.000
   23 12 3Pdxz      0.00230   0.00000      0.000   0.000  -0.000
   23 13 3Pdx2-y2   0.00118   0.00000     -0.000   0.000  -0.000
   23     Total     5.53876   0.00000      0.000  -0.000  -0.000

----------------------------------------------------------------
Total              56.79514   0.00000      0.000   0.000  -0.000


Species: Si                  

Atom      Orb        Charge      Spin       Svec
----------------------------------------------------------------
    7  1 3s         0.68910   0.00000     -0.000  -0.000   0.000
    7  2 3s         0.35765   0.00000      0.000   0.000   0.000
    7  3 3py        0.47606   0.00000     -0.000  -0.000   0.000
    7  4 3pz        0.70203   0.00000     -0.000  -0.000   0.000
    7  5 3px        0.13689   0.00000     -0.000   0.000   0.000
    7  6 3py        0.27072   0.00000      0.000   0.000   0.000
    7  7 3pz        0.25759   0.00000     -0.000   0.000   0.000
    7  8 3px        0.42175   0.00000     -0.000   0.000   0.000
    7  9 3Pdxy      0.24266   0.00000      0.000  -0.000   0.000
    7 10 3Pdyz      0.03028   0.00000      0.000   0.000   0.000
    7 11 3Pdz2      0.01206   0.00000      0.000   0.000   0.000
    7 12 3Pdxz      0.13843   0.00000      0.000  -0.000  -0.000
    7 13 3Pdx2-y2   0.11313   0.00000      0.000  -0.000   0.000
    7     Total     3.84836   0.00000     -0.000  -0.000   0.000

    8  1 3s         0.64805   0.00000      0.000   0.000  -0.000
    8  2 3s         0.37135   0.00000     -0.000  -0.000   0.000
    8  3 3py        0.38717   0.00000     -0.000   0.000  -0.000
    8  4 3pz        0.52410   0.00000      0.000   0.000  -0.000
    8  5 3px       -0.03124   0.00000      0.000   0.000   0.000
    8  6 3py        0.30454   0.00000     -0.000  -0.000   0.000
    8  7 3pz        0.20263   0.00000     -0.000  -0.000   0.000
    8  8 3px        0.52021   0.00000     -0.000  -0.000   0.000
    8  9 3Pdxy      0.25897   0.00000     -0.000   0.000   0.000
    8 10 3Pdyz      0.11046   0.00000     -0.000   0.000  -0.000
    8 11 3Pdz2      0.01326   0.00000      0.000  -0.000   0.000
    8 12 3Pdxz      0.15615   0.00000     -0.000  -0.000   0.000
    8 13 3Pdx2-y2   0.18810   0.00000      0.000   0.000   0.000
    8     Total     3.65375   0.00000      0.000   0.000   0.000

    9  1 3s         0.62992   0.00000      0.000  -0.000  -0.000
    9  2 3s         0.35577   0.00000     -0.000   0.000  -0.000
    9  3 3py        0.08539   0.00000      0.000  -0.000   0.000
    9  4 3pz        0.48334   0.00000     -0.000   0.000  -0.000
    9  5 3px        0.37267   0.00000     -0.000   0.000   0.000
    9  6 3py        0.43893   0.00000     -0.000   0.000  -0.000
    9  7 3pz        0.18384   0.00000      0.000  -0.000  -0.000
    9  8 3px        0.26743   0.00000      0.000   0.000  -0.000
    9  9 3Pdxy      0.31348   0.00000      0.000   0.000   0.000
    9 10 3Pdyz      0.19227   0.00000     -0.000  -0.000  -0.000
    9 11 3Pdz2      0.01613   0.00000      0.000   0.000   0.000
    9 12 3Pdxz      0.08871   0.00000     -0.000  -0.000  -0.000
    9 13 3Pdx2-y2   0.15543   0.00000      0.000   0.000  -0.000
    9     Total     3.58330   0.00000      0.000   0.000  -0.000

   10  1 3s         0.48251   0.00000     -0.000   0.000   0.000
   10  2 3s         0.38019   0.00000      0.000  -0.000   0.000
   10  3 3py        0.23880   0.00000      0.000  -0.000   0.000
   10  4 3pz        0.40901   0.00000     -0.000  -0.000   0.000
   10  5 3px        0.10267   0.00000     -0.000   0.000  -0.000
   10  6 3py        0.33596   0.00000     -0.000   0.000   0.000
   10  7 3pz        0.22094   0.00000      0.000   0.000   0.000
   10  8 3px        0.42282   0.00000      0.000  -0.000   0.000
   10  9 3Pdxy      0.16303   0.00000      0.000  -0.000  -0.000
   10 10 3Pdyz      0.14841   0.00000      0.000  -0.000   0.000
   10 11 3Pdz2      0.01124   0.00000     -0.000  -0.000  -0.000
   10 12 3Pdxz      0.17022   0.00000     -0.000  -0.000   0.000
   10 13 3Pdx2-y2   0.32118   0.00000     -0.000   0.000  -0.000
   10     Total     3.40700   0.00000      0.000  -0.000   0.000

   11  1 3s         0.55844   0.00000     -0.000   0.000   0.000
   11  2 3s         0.38196   0.00000      0.000   0.000  -0.000
   11  3 3py        0.30444   0.00000     -0.000   0.000   0.000
   11  4 3pz        0.54409   0.00000     -0.000  -0.000   0.000
   11  5 3px        0.13884   0.00000     -0.000  -0.000   0.000
   11  6 3py        0.30285   0.00000      0.000  -0.000   0.000
   11  7 3pz        0.17669   0.00000      0.000   0.000   0.000
   11  8 3px        0.43165   0.00000      0.000  -0.000   0.000
   11  9 3Pdxy      0.24379   0.00000     -0.000   0.000   0.000
   11 10 3Pdyz      0.12484   0.00000     -0.000   0.000   0.000
   11 11 3Pdz2      0.00939   0.00000      0.000   0.000   0.000
   11 12 3Pdxz      0.05274   0.00000     -0.000  -0.000   0.000
   11 13 3Pdx2-y2   0.18385   0.00000      0.000   0.000   0.000
   11     Total     3.45358   0.00000     -0.000   0.000   0.000

   17  1 3s         0.64774   0.00000      0.000   0.000   0.000
   17  2 3s         0.35827   0.00000     -0.000  -0.000  -0.000
   17  3 3py        0.24879   0.00000     -0.000  -0.000   0.000
   17  4 3pz        0.42564   0.00000      0.000  -0.000   0.000
   17  5 3px        0.22819   0.00000     -0.000   0.000   0.000
   17  6 3py        0.37047   0.00000     -0.000  -0.000  -0.000
   17  7 3pz        0.21335   0.00000     -0.000   0.000   0.000
   17  8 3px        0.37711   0.00000     -0.000  -0.000  -0.000
   17  9 3Pdxy      0.29519   0.00000     -0.000   0.000  -0.000
   17 10 3Pdyz      0.13922   0.00000     -0.000  -0.000   0.000
   17 11 3Pdz2      0.00972   0.00000      0.000  -0.000   0.000
   17 12 3Pdxz      0.14775   0.00000      0.000   0.000   0.000
   17 13 3Pdx2-y2   0.16983   0.00000     -0.000  -0.000  -0.000
   17     Total     3.63127   0.00000     -0.000  -0.000   0.000

   18  1 3s         0.74628   0.00000     -0.000  -0.000   0.000
   18  2 3s         0.33828   0.00000      0.000   0.000   0.000
   18  3 3py        0.08805   0.00000     -0.000   0.000   0.000
   18  4 3pz        0.82951   0.00000      0.000  -0.000   0.000
   18  5 3px        0.54552   0.00000     -0.000  -0.000   0.000
   18  6 3py        0.51417   0.00000     -0.000  -0.000   0.000
   18  7 3pz        0.19743   0.00000     -0.000  -0.000   0.000
   18  8 3px        0.25233   0.00000      0.000   0.000   0.000
   18  9 3Pdxy      0.10882   0.00000      0.000   0.000  -0.000
   18 10 3Pdyz      0.02773   0.00000     -0.000  -0.000  -0.000
   18 11 3Pdz2      0.00936   0.00000     -0.000  -0.000  -0.000
   18 12 3Pdxz      0.02925   0.00000      0.000  -0.000  -0.000
   18 13 3Pdx2-y2   0.10635   0.00000     -0.000  -0.000   0.000
   18     Total     3.79308   0.00000     -0.000  -0.000   0.000

   19  1 3s         0.45521   0.00000     -0.000  -0.000   0.000
   19  2 3s         0.36491   0.00000      0.000   0.000  -0.000
   19  3 3py        0.08031   0.00000     -0.000  -0.000   0.000
   19  4 3pz        0.41948   0.00000      0.000   0.000  -0.000
   19  5 3px        0.34939   0.00000     -0.000  -0.000  -0.000
   19  6 3py        0.46999   0.00000      0.000   0.000  -0.000
   19  7 3pz        0.18672   0.00000     -0.000  -0.000  -0.000
   19  8 3px        0.24194   0.00000      0.000   0.000  -0.000
   19  9 3Pdxy      0.34860   0.00000     -0.000   0.000   0.000
   19 10 3Pdyz      0.19048   0.00000     -0.000   0.000  -0.000
   19 11 3Pdz2      0.01585   0.00000     -0.000   0.000  -0.000
   19 12 3Pdxz      0.08538   0.00000      0.000   0.000  -0.000
   19 13 3Pdx2-y2   0.22980   0.00000     -0.000  -0.000   0.000
   19     Total     3.43807   0.00000      0.000   0.000  -0.000

   20  1 3s         0.67325   0.00000     -0.000  -0.000   0.000
   20  2 3s         0.37978   0.00000      0.000   0.000  -0.000
   20  3 3py        0.33755   0.00000     -0.000   0.000  -0.000
   20  4 3pz        0.58108   0.00000      0.000   0.000  -0.000
   20  5 3px        0.13836   0.00000      0.000  -0.000   0.000
   20  6 3py        0.29023   0.00000      0.000  -0.000   0.000
   20  7 3pz        0.16328   0.00000     -0.000  -0.000  -0.000
   20  8 3px        0.49931   0.00000     -0.000   0.000   0.000
   20  9 3Pdxy      0.10266   0.00000     -0.000   0.000  -0.000
   20 10 3Pdyz      0.13485   0.00000     -0.000   0.000  -0.000
   20 11 3Pdz2      0.00732   0.00000      0.000   0.000   0.000
   20 12 3Pdxz      0.02686   0.00000      0.000   0.000  -0.000
   20 13 3Pdx2-y2   0.17092   0.00000      0.000   0.000   0.000
   20     Total     3.50544   0.00000     -0.000   0.000  -0.000

----------------------------------------------------------------
Total              89.10898   0.00000     -0.000  -0.000   0.000


Species: H                   

Atom      Orb        Charge      Spin       Svec
----------------------------------------------------------------
   12  1 1s         0.48823   0.00000      0.000  -0.000  -0.000
   12  2 1s         0.18617   0.00000     -0.000   0.000   0.000
   12  3 2Ppy       0.02869   0.00000     -0.000   0.000  -0.000
   12  4 2Ppz       0.03497   0.00000     -0.000   0.000  -0.000
   12  5 2Ppx       0.02331   0.00000     -0.000  -0.000  -0.000
   12     Total     0.76136   0.00000     -0.000   0.000  -0.000

   13  1 1s         1.02057   0.00000      0.000  -0.000  -0.000
   13  2 1s         0.09466   0.00000     -0.000   0.000   0.000
   13  3 2Ppy       0.01983   0.00000      0.000  -0.000  -0.000
   13  4 2Ppz       0.02017   0.00000     -0.000   0.000   0.000
   13  5 2Ppx       0.03320   0.00000      0.000  -0.000   0.000
   13     Total     1.18843   0.00000      0.000  -0.000  -0.000

   14  1 1s         0.46462   0.00000      0.000  -0.000  -0.000
   14  2 1s         0.19978   0.00000     -0.000  -0.000   0.000
   14  3 2Ppy       0.01833   0.00000      0.000  -0.000  -0.000
   14  4 2Ppz       0.04713   0.00000     -0.000   0.000  -0.000
   14  5 2Ppx       0.01735   0.00000     -0.000   0.000  -0.000
   14     Total     0.74721   0.00000      0.000  -0.000  -0.000

   15  1 1s         0.46098   0.00000      0.000   0.000  -0.000
   15  2 1s         0.20008   0.00000     -0.000   0.000   0.000
   15  3 2Ppy       0.00527   0.00000     -0.000   0.000   0.000
   15  4 2Ppz       0.04662   0.00000     -0.000  -0.000  -0.000
   15  5 2Ppx       0.02840   0.00000      0.000   0.000  -0.000
   15     Total     0.74134   0.00000      0.000  -0.000  -0.000

   16  1 1s         0.50776   0.00000      0.000   0.000  -0.000
   16  2 1s         0.18760   0.00000     -0.000  -0.000   0.000
   16  3 2Ppy       0.03004   0.00000     -0.000   0.000  -0.000
   16  4 2Ppz       0.03953   0.00000      0.000  -0.000  -0.000
   16  5 2Ppx       0.02321   0.00000     -0.000  -0.000  -0.000
   16     Total     0.78813   0.00000      0.000   0.000  -0.000

   24  1 1s         1.05773   0.00000     -0.000   0.000  -0.000
   24  2 1s         0.07612   0.00000      0.000  -0.000   0.000
   24  3 2Ppy       0.03150   0.00000      0.000  -0.000   0.000
   24  4 2Ppz       0.03133   0.00000     -0.000  -0.000   0.000
   24  5 2Ppx       0.01753   0.00000      0.000   0.000  -0.000
   24     Total     1.21422   0.00000     -0.000   0.000  -0.000

   25  1 1s         1.04788   0.00000      0.000   0.000  -0.000
   25  2 1s         0.08398   0.00000     -0.000  -0.000   0.000
   25  3 2Ppy       0.01170   0.00000     -0.000   0.000  -0.000
   25  4 2Ppz       0.01790   0.00000     -0.000  -0.000  -0.000
   25  5 2Ppx       0.03643   0.00000      0.000   0.000   0.000
   25     Total     1.19789   0.00000      0.000   0.000  -0.000

   26  1 1s         0.47604   0.00000      0.000   0.000  -0.000
   26  2 1s         0.19891   0.00000     -0.000  -0.000   0.000
   26  3 2Ppy       0.01880   0.00000      0.000   0.000   0.000
   26  4 2Ppz       0.05142   0.00000     -0.000   0.000   0.000
   26  5 2Ppx       0.01610   0.00000     -0.000  -0.000  -0.000
   26     Total     0.76127   0.00000      0.000   0.000  -0.000

   27  1 1s         0.46070   0.00000      0.000   0.000   0.000
   27  2 1s         0.19750   0.00000     -0.000   0.000   0.000
   27  3 2Ppy       0.00627   0.00000     -0.000  -0.000   0.000
   27  4 2Ppz       0.04194   0.00000      0.000   0.000  -0.000
   27  5 2Ppx       0.02957   0.00000      0.000  -0.000  -0.000
   27     Total     0.73598   0.00000      0.000   0.000   0.000

   29  1 1s         0.48361   0.00000     -0.000   0.000  -0.000
   29  2 1s         0.18830   0.00000      0.000  -0.000   0.000
   29  3 2Ppy       0.02517   0.00000      0.000  -0.000  -0.000
   29  4 2Ppz       0.03425   0.00000     -0.000   0.000  -0.000
   29  5 2Ppx       0.02386   0.00000      0.000  -0.000  -0.000
   29     Total     0.75520   0.00000     -0.000   0.000  -0.000

----------------------------------------------------------------
Total              98.00000   0.00000     -0.000  -0.000   0.000


siesta: Eigenvalues (eV):
ik =     1
  -22.0793  -22.0793  -21.8970  -21.8970  -21.6262  -21.6262  -21.4352  -21.4352  -21.2930  -21.2930
  -21.1020  -21.1020  -20.7465  -20.7465  -19.8124  -19.8124  -19.5038  -19.5038  -19.3641  -19.3641
  -14.7239  -14.7239  -13.8676  -13.8676  -13.2934  -13.2934  -13.1500  -13.1500  -13.0512  -13.0512
  -12.7819  -12.7819  -12.7188  -12.7188  -12.4035  -12.4035  -12.3143  -12.3143  -11.9590  -11.9590
  -11.3623  -11.3623  -10.7774  -10.7774  -10.7126  -10.7126  -10.6266  -10.6266  -10.0889  -10.0889
   -9.5766   -9.5766   -9.1472   -9.1472   -8.9587   -8.9587   -8.7487   -8.7487   -8.6279   -8.6279
   -8.5725   -8.5725   -8.4204   -8.4204   -8.1592   -8.1592   -7.7705   -7.7705   -7.7680   -7.7680
   -7.6775   -7.6775   -7.4248   -7.4248   -7.2257   -7.2257   -6.8056   -6.8056   -6.7646   -6.7646
   -6.5691   -6.5691   -6.5322   -6.5322   -6.2666   -6.2666   -6.1917   -6.1917   -6.1798   -6.1798
   -6.0128   -6.0128   -5.9001   -5.9001   -5.4649   -5.4649   -4.3649   -4.3649   -3.2183   -3.2183
   -2.3891   -2.3891   -2.2846   -2.2846   -2.2508   -2.2508   -1.9613   -1.9613   -1.8737   -1.8737
   -1.8252   -1.8252   -1.7759   -1.7759   -1.5986   -1.5986   -1.4437   -1.4437   -1.2371   -1.2371
   -0.9788   -0.9788   -0.7535   -0.7535   -0.4451   -0.4451   -0.2142   -0.2142    0.2862    0.2862
    0.3418    0.3418    0.3759    0.3759    0.6802    0.6802    0.7311    0.7311    0.8994    0.8994
    1.1892    1.1892    1.3132    1.3132    1.4032    1.4032    1.4476    1.4476    1.5490    1.5490
    1.7626    1.7626    1.9293    1.9293    2.2611    2.2611    2.4909    2.4909    2.6489    2.6489
    2.7101    2.7101    2.9562    2.9562    3.0187    3.0187    3.2037    3.2037    3.3341    3.3341
    3.4514    3.4514    3.7694    3.7694    3.9346    3.9346    4.1278    4.1278    4.3590    4.3590
    4.4984    4.4984    4.5071    4.5071    4.5870    4.5870    4.7404    4.7404    4.8166    4.8166
    4.8293    4.8293    5.1829    5.1829    5.2569    5.2569    5.5670    5.5670    5.6178    5.6178
    5.6483    5.6483    5.7706    5.7706    5.9571    5.9571    6.0557    6.0557    6.1989    6.1989
    6.2260    6.2260    6.3460    6.3460    6.5797    6.5797    6.6365    6.6365    6.8502    6.8502
    7.1451    7.1451    7.1570    7.1570    7.2931    7.2931    7.5596    7.5596    7.7236    7.7236
    7.8496    7.8496    8.0463    8.0463    8.1046    8.1046    8.2185    8.2185    8.3287    8.3287
    8.5969    8.5969    8.7083    8.7083    8.7591    8.7591    8.9421    8.9421    9.1900    9.1900
    9.2088    9.2088    9.3323    9.3323    9.7237    9.7237    9.7614    9.7614    9.7754    9.7754
    9.8469    9.8469   10.1766   10.1766   10.3638   10.3638   10.8300   10.8300   10.9049   10.9049
   10.9679   10.9679   11.0422   11.0422   11.2584   11.2584   11.7464   11.7464   12.0126   12.0126
   12.0616   12.0616   12.0846   12.0846   12.1446   12.1446   12.3581   12.3581   12.4790   12.4790
   12.7699   12.7699   12.8285   12.8285   13.4385   13.4385   13.5878   13.5878   13.7878   13.7878
   13.9066   13.9066   14.0195   14.0195   14.1353   14.1353   14.2433   14.2433   14.6885   14.6885
   15.0048   15.0048   15.5155   15.5155   15.8443   15.8443   16.2119   16.2119   16.7525   16.7525
   16.9396   16.9396   17.3565   17.3565   18.0443   18.0443   18.3014   18.3014   18.4539   18.4539
   18.4923   18.4923   19.2699   19.2699   19.4867   19.4867   20.1479   20.1479   20.2046   20.2046
   21.0053   21.0053   21.1859   21.1859   21.8243   21.8243   22.3142   22.3142   22.5682   22.5682
   23.0240   23.0240   23.2108   23.2108   23.5784   23.5784   23.8703   23.8703   23.9662   23.9662
   24.7607   24.7607   24.8380   24.8380   26.2183   26.2183   26.9319   26.9319   28.6345   28.6345
   28.8755   28.8755   29.1321   29.1321   29.4944   29.4944   30.0508   30.0508   30.0642   30.0642
   30.2969   30.2969   30.3470   30.3470   30.6018   30.6018   30.9864   30.9864   31.0099   31.0099
   31.1798   31.1798   31.4911   31.4911   31.6544   31.6544   31.9956   31.9956   32.2696   32.2696
   33.2548   33.2548   34.2373   34.2373   34.2977   34.2977   34.5001   34.5001   34.7328   34.7328
   35.0093   35.0093   35.1946   35.1946   35.2987   35.2987   35.4700   35.4700   35.8386   35.8386
   36.7089   36.7089   36.9285   36.9285   37.3379   37.3379   37.4712   37.4712   37.9246   37.9246
   38.0489   38.0489   38.5241   38.5241   39.2556   39.2556   39.3808   39.3808   39.9979   39.9979
   40.1624   40.1624   40.7408   40.7408   40.7498   40.7498   40.8504   40.8504   41.3378   41.3378
   41.4873   41.4873   41.9179   41.9179   42.8744   42.8744   42.9503   42.9503   43.2467   43.2467
   43.4030   43.4030   43.7570   43.7570   43.9851   43.9851   44.0911   44.0911   44.2269   44.2269
   44.7229   44.7229   44.8018   44.8018   44.9831   44.9831   45.4462   45.4462   46.1974   46.1974
   46.6555   46.6555   47.0422   47.0422   47.4052   47.4052   49.0018   49.0018   49.2441   49.2441
   49.7034   49.7034   50.4247   50.4247   50.9793   50.9793   51.0774   51.0774   51.2283   51.2283
   51.5076   51.5076   51.7135   51.7135   52.4583   52.4583   53.2456   53.2456   54.5765   54.5765
   54.7801   54.7801   55.2340   55.2340   55.3423   55.3423   55.7950   55.7950   55.9690   55.9690
   56.2464   56.2464   56.7847   56.7847   56.9086   56.9086   58.2821   58.2821   58.9906   58.9906
   59.6514   59.6514   60.3036   60.3036   60.4074   60.4074   61.1853   61.1853   61.6482   61.6482
   61.9576   61.9576   62.3898   62.3898   62.7405   62.7405   64.4013   64.4013   66.3882   66.3882
   67.2564   67.2564   67.4451   67.4451   68.9130   68.9130   68.9580   68.9580   70.7018   70.7018
   73.5697   73.5697   81.2515   81.2515   90.2305   90.2305   91.7020   91.7020   93.4679   93.4679
   98.3203   98.3203   99.6098   99.6098  100.6631  100.6631  103.3647  103.3647  103.6543  103.6543
  110.5289  110.5289  111.6672  111.6672  123.8970  123.8970  126.2275  126.2275  131.0916  131.0916
  139.9647  139.9647  141.3668  141.3668
siesta: Fermi energy =      -3.788947 eV

siesta: Program's energy decomposition (eV):
siesta: Ebs     =     -1135.642202
siesta: Eions   =      3585.165840
siesta: Ena     =       384.948167
siesta: Ekin    =      2907.595381
siesta: Enl     =     -2795.144371
siesta: Eso     =        -0.004254
siesta: Edftu   =         0.000000
siesta: DEna    =        47.517975
siesta: DUscf   =        14.302747
siesta: DUext   =         0.000000
siesta: Exc     =     -1120.729616
siesta: eta*DQ  =         0.000000
siesta: Emadel  =         0.000000
siesta: Emeta   =         0.000000
siesta: Emolmec =         0.000000
siesta: Ekinion =         0.000000
siesta: Eharris =     -4146.679812
siesta: Etot    =     -4146.679812
siesta: FreeEng =     -4146.679812

siesta: Final energy (eV):
siesta:  Band Struct. =   -1135.642202
siesta:       Kinetic =    2907.595381
siesta:       Hartree =    8354.828511
siesta:       Edftu   =       0.000000
siesta:       Eso     =      -0.004254
siesta:    Ext. field =       0.000000
siesta:   Exch.-corr. =   -1120.729616
siesta:  Ion-electron =  -19298.054153
siesta:       Ion-ion =    5009.684320
siesta:       Ekinion =       0.000000
siesta:         Total =   -4146.679812
siesta:         Fermi =      -3.788947

siesta: Atomic forces (eV/Ang):
siesta:      1    2.835926   -3.376093   -0.000000
siesta:      2   -0.010065   -0.009425    0.000000
siesta:      3   -0.126040    0.071388    0.000000
siesta:      4   -0.106565   -0.068870    0.000000
siesta:      5   -0.008583   -0.014784   -0.000000
siesta:      6   -0.172667    0.044693    0.000000
siesta:      7   -0.007934    0.017324   -0.000000
siesta:      8    0.081937    0.004957    0.000000
siesta:      9    0.099763   -0.108811   -0.000000
siesta:     10    0.253022    0.014180   -0.000000
siesta:     11   -0.025173    0.029681    0.000000
siesta:     12   -0.091335   -0.117323   -0.000000
siesta:     13    0.103066    0.103723   -0.000000
siesta:     14   -0.054715   -0.017890    0.000000
siesta:     15    0.227420    0.129177   -0.000000
siesta:     16   -0.002054    0.091875   -0.000000
siesta:     17   -0.190836    0.088923    0.000000
siesta:     18    0.028680   -0.026433    0.000000
siesta:     19   -0.003909    0.181316   -0.000000
siesta:     20   -0.019548    0.045116    0.000000
siesta:     21    0.064232   -0.147439   -0.000000
siesta:     22    0.154530   -0.010724   -0.000000
siesta:     23   -0.022421   -0.059318   -0.000000
siesta:     24   -0.061509    0.102397   -0.000000
siesta:     25   -0.133435    0.043260   -0.000000
siesta:     26    0.036437    0.146420   -0.000000
siesta:     27   -0.025070    0.011185    0.000000
siesta:     28    1.980439    3.043146    0.000000
siesta:     29    0.009489    0.065781    0.000000
siesta: ----------------------------------------
siesta:    Tot    4.813083    0.277433   -0.000000

siesta: Stress tensor (static) (eV/Ang**3):
siesta:     0.000330    0.000282    0.000000
siesta:     0.000282    0.000071    0.000000
siesta:    -0.000000    0.000000   -0.000051

siesta: Cell volume =       5185.806033 Ang**3

siesta: Pressure (static):
siesta:                Solid            Molecule  Units
siesta:          -0.00000127          0.00000416  Ry/Bohr**3
siesta:          -0.00011685          0.00038206  eV/Ang**3
siesta:          -0.18721544          0.61212622  kBar
(Free)E+ p_basis*V_orbitals  =       -4126.829394
(Free)Eharris+ p_basis*V_orbitals  =       -4126.829394
     spin moment: S , {S} =    0.00000  -0.00000  -0.00000   0.00000

siesta: Electric dipole (a.u.)  =    1.443331    0.035676   -0.000000
siesta: Electric dipole (Debye) =    3.668584    0.090680   -0.000000

cite: Please see "GC.bib" for an exhaustive BiBTeX file.
cite: Please clearly indicate Siesta version in published work: v4.1.5-1-g384057250
cite: This calculation has made use of the following articles
cite: which are encouraged to be cited in a published work.
        Primary SIESTA paper
          DOI: www.doi.org/10.1088/0953-8984/14/11/302
        Spin-orbit coupling (on-site approximation)
          DOI: www.doi.org/10.1088/0953-8984/19/19/489001


WARNING: alloc-realloc-dealloc name mismatch
         Name: atomlist isa
         Size:              -116. Bytes
         Node:     0
         Subsequent mismatches will not be reported
>> End of run:  22-MAY-2023  18:05:50
Job completed
