Siesta Version  : v4.1.5-1-g384057250
Architecture    : gcc
Compiler version: GNU Fortran (Debian 12.2.0-14) 12.2.0
Compiler flags  : mpifort -O2 -fPIC -ftree-vectorize -fallow-argument-mismatch
PP flags        : -DFC_HAVE_ABORT -DMPI -DSIESTA__FLOOK -DSIESTA__METIS -DSIESTA__MUMPS -DCDF -DNCDF -DNCDF_4 -DNCDF_PARALLEL -DSIESTA__MRRR -DSIESTA__ELPA
Libraries       : libncdf.a libfdict.a  -lflookall -ldl -lnetcdff -lnetcdf -lz -lscalapack-openmpi -lopenblas -lmetis -lzmumps -lcmumps -ldmumps -lmumps_common -lpord -lsmumps -lesmumps -lscotch -lscotcherr -fopenmp -lelpa
PARALLEL version
NetCDF support
NetCDF-4 support
NetCDF-4 MPI-IO support
METIS ordering support
Lua support

* Running on 32 nodes in parallel
>> Start of run:  14-OCT-2023  13:27:59

                           ***********************       
                           *  WELCOME TO SIESTA  *       
                           ***********************       

reinit: Reading from standard input
reinit: Dumped input in INPUT_TMP.90547
************************** Dump of input data file ****************************
# mpirun -np 4 siesta-4.1.5 < Cytosine.fdf > Cytosine.out
SystemLabel      Cytosine
NumberOfAtoms    13
NumberOfSpecies  4
%block ChemicalSpeciesLabel
    1    1  H
    2    7  N
    3    14 Si
    4    8  O
%endblock ChemicalSpeciesLabel
###################################
# This overrides Defaults.fdf conf
###################################
MD.TypeOfRun                Verlet # CG, Verlet
MD.Steps                    300
MD.Quench                   True
AtomicCoordinatesFormat NotScaledCartesianAng
%block AtomicCoordinatesAndAtomicSpecies
0.781589 3.367805 0.000000 1
0.166424 2.514760 0.000000 2
-1.253920 2.596368 0.000000 3
-1.655664 3.620498 0.000000 1
-2.026004 1.457622 0.000000 3
-3.103053 1.554890 0.000000 1
-1.411338 0.161355 0.000000 3
-2.139543 -1.076382 0.000000 2
-1.590480 -2.054207 0.000000 1
-3.176690 -1.025405 0.000000 1
-0.000004 0.000028 0.000000 2
0.854180 1.185790 0.000000 3
2.065422 1.151352 0.000000 4
%endblock AtomicCoordinatesAndAtomicSpecies
#############
# Unit Cell
#############
LatticeConstant 1.0 Ang
%block LatticeVectors
    14.828907   0.000000    0.000000
    0.000000    14.495518   0.000000
    0.000000    0.000000    9.854683
%endblock LatticeVectors
%include ../../../../Defaults.fdf
************************** End of input data file *****************************

reinit: -----------------------------------------------------------------------
reinit: System Name: 
reinit: -----------------------------------------------------------------------
reinit: System Label: Cytosine
reinit: -----------------------------------------------------------------------

initatom: Reading input for the pseudopotentials and atomic orbitals ----------
Species number:   1 Atomic number:    1 Label: H
Species number:   2 Atomic number:    7 Label: N
Species number:   3 Atomic number:   14 Label: Si
Species number:   4 Atomic number:    8 Label: O

Ground state valence configuration:   1s01
Reading pseudopotential information in formatted form from H.psf

Pseudopotential generated from a relativistic atomic calculation

Valence configuration for pseudopotential generation:
1s( 1.00) rc: 0.01
2p( 0.00) rc: 0.60
3d( 0.00) rc: 1.99
4f( 0.00) rc: 2.49
Ground state valence configuration:   2s02  2p03
Reading pseudopotential information in formatted form from N.psf

Pseudopotential generated from a relativistic atomic calculation

Valence configuration for pseudopotential generation:
2s( 2.00) rc: 0.94
2p( 3.00) rc: 0.59
3d( 0.00) rc: 3.46
4f( 0.00) rc: 2.47
Ground state valence configuration:   3s02  3p02
Reading pseudopotential information in formatted form from Si.psf

Pseudopotential generated from a relativistic atomic calculation

Valence configuration for pseudopotential generation:
3s( 2.00) rc: 1.67
3p( 2.00) rc: 2.04
3d( 0.00) rc: 2.89
4f( 0.00) rc: 2.49
Ground state valence configuration:   2s02  2p04
Reading pseudopotential information in formatted form from O.psf

Pseudopotential generated from a relativistic atomic calculation

Valence configuration for pseudopotential generation:
2s( 2.00) rc: 0.45
2p( 4.00) rc: 0.92
3d( 0.00) rc: 2.24
4f( 0.00) rc: 0.25
For H, standard SIESTA heuristics set lmxkb to 2
 (one more than the basis l, including polarization orbitals).
Use PS.lmax or PS.KBprojectors blocks to override.
For N, standard SIESTA heuristics set lmxkb to 3
 (one more than the basis l, including polarization orbitals).
Use PS.lmax or PS.KBprojectors blocks to override.
For Si, standard SIESTA heuristics set lmxkb to 3
 (one more than the basis l, including polarization orbitals).
Use PS.lmax or PS.KBprojectors blocks to override.
For O, standard SIESTA heuristics set lmxkb to 3
 (one more than the basis l, including polarization orbitals).
Use PS.lmax or PS.KBprojectors blocks to override.

<basis_specs>
===============================================================================
H                    Z=   1    Mass=  1.0100        Charge= 0.17977+309
Lmxo=0 Lmxkb= 2    BasisType=split      Semic=F
L=0  Nsemic=0  Cnfigmx=1
          i=1  nzeta=2  polorb=1  (1s)
            splnorm:   0.62000    
               vcte:    0.0000    
               rinn:    0.0000    
               qcoe:    0.0000    
               qyuk:    0.0000    
               qwid:   0.10000E-01
                rcs:    0.0000      0.0000    
            lambdas:    1.0000      1.0000    
-------------------------------------------------------------------------------
L=0  Nkbl=1  erefs: 0.17977+309
L=1  Nkbl=1  erefs: 0.17977+309
L=2  Nkbl=1  erefs: 0.17977+309
===============================================================================
</basis_specs>

atom: Called for H                     (Z =   1)

read_vps: Pseudopotential generation method:
read_vps: ATM4.2.7  Troullier-Martins                       
Valence charge for ps generation:    1.00000

xc_check: Exchange-correlation functional:
xc_check: GGA Perdew, Burke & Ernzerhof 1996
V l=0 = -2*Zval/r beyond r=  0.0098
V l=1 = -2*Zval/r beyond r=  0.5817
V l=2 = -2*Zval/r beyond r=  1.9372
All V_l potentials equal beyond r=  1.9372
This should be close to max(r_c) in ps generation
All pots = -2*Zval/r beyond r=  1.9372

VLOCAL1: 99.0% of the norm of Vloc inside     11.567 Ry
VLOCAL1: 99.9% of the norm of Vloc inside     26.362 Ry
atom: Maximum radius for 4*pi*r*r*local-pseudopot. charge    2.25106
atom: Maximum radius for r*vlocal+2*Zval:    1.91306
GHOST: No ghost state for L =  0
GHOST: No ghost state for L =  1
GHOST: No ghost state for L =  2

KBgen: Kleinman-Bylander projectors: 
   l= 0   rc=  2.036604   el= -0.477180   Ekb= -6.081590   kbcos= -0.277285
   l= 1   rc=  2.195416   el=  0.001076   Ekb= -0.926943   kbcos= -0.034643
   l= 2   rc=  2.251056   el=  0.002010   Ekb= -0.130941   kbcos= -0.009788

KBgen: Total number of Kleinman-Bylander projectors:    9
atom: -------------------------------------------------------------------------

atom: SANKEY-TYPE ORBITALS:
atom: Selected multiple-zeta basis: split     

SPLIT: Orbitals with angular momentum L= 0

SPLIT: Basis orbitals for state 1s

SPLIT: PAO cut-off radius determined from an
SPLIT: energy shift=  0.002000 Ry

   izeta = 1
                 lambda =    1.000000
                     rc =    6.518340
                 energy =   -0.475305
                kinetic =    0.912139
    potential(screened) =   -1.387444
       potential(ionic) =   -1.907295

   izeta = 2
                 rmatch =    2.141150
              splitnorm =    0.620000
                 energy =    0.566467
                kinetic =    3.772856
    potential(screened) =   -3.206389
       potential(ionic) =   -3.759093

POLgen: Perturbative polarization orbital with L=  1

POLgen: Polarization orbital for state 1s

   izeta = 1
                     rc =    6.518340
                 energy =    0.533861
                kinetic =    1.121086
    potential(screened) =   -0.587225
       potential(ionic) =   -1.053027
atom: Total number of Sankey-type orbitals:  5

atm_pop: Valence configuration (for local Pseudopot. screening):
 1s( 1.00)                                                            
Vna: chval, zval:    1.00000   1.00000

Vna:  Cut-off radius for the neutral-atom potential:   6.518340

atom: _________________________________________________________________________

<basis_specs>
===============================================================================
N                    Z=   7    Mass=  14.010        Charge= 0.17977+309
Lmxo=1 Lmxkb= 3    BasisType=split      Semic=F
L=0  Nsemic=0  Cnfigmx=2
          i=1  nzeta=2  polorb=0  (2s)
            splnorm:   0.28000    
               vcte:    0.0000    
               rinn:    0.0000    
               qcoe:    0.0000    
               qyuk:    0.0000    
               qwid:   0.10000E-01
                rcs:    0.0000      0.0000    
            lambdas:    1.0000      1.0000    
L=1  Nsemic=0  Cnfigmx=2
          i=1  nzeta=2  polorb=1  (2p)
            splnorm:   0.28000    
               vcte:    0.0000    
               rinn:    0.0000    
               qcoe:    0.0000    
               qyuk:    0.0000    
               qwid:   0.10000E-01
                rcs:    0.0000      0.0000    
            lambdas:    1.0000      1.0000    
-------------------------------------------------------------------------------
L=0  Nkbl=1  erefs: 0.17977+309
L=1  Nkbl=1  erefs: 0.17977+309
L=2  Nkbl=1  erefs: 0.17977+309
L=3  Nkbl=1  erefs: 0.17977+309
===============================================================================
</basis_specs>

atom: Called for N                     (Z =   7)

read_vps: Pseudopotential generation method:
read_vps: ATM4.2.7  Troullier-Martins                       
Valence charge for ps generation:    5.00000

xc_check: Exchange-correlation functional:
xc_check: GGA Perdew, Burke & Ernzerhof 1996
V l=0 = -2*Zval/r beyond r=  1.2889
V l=1 = -2*Zval/r beyond r=  1.2889
V l=2 = -2*Zval/r beyond r=  3.4178
V l=3 = -2*Zval/r beyond r=  2.4084
All V_l potentials equal beyond r=  3.3753
This should be close to max(r_c) in ps generation
All pots = -2*Zval/r beyond r=  3.4178

VLOCAL1: 99.0% of the norm of Vloc inside      3.810 Ry
VLOCAL1: 99.9% of the norm of Vloc inside      8.683 Ry
atom: Maximum radius for 4*pi*r*r*local-pseudopot. charge    4.02088
atom: Maximum radius for r*vlocal+2*Zval:    3.54838
GHOST: No ghost state for L =  0
GHOST: No ghost state for L =  1
GHOST: No ghost state for L =  2
GHOST: No ghost state for L =  3

KBgen: Kleinman-Bylander projectors: 
   l= 0   rc=  3.417763   el= -1.365098   Ekb= -4.433130   kbcos= -0.707855
   l= 1   rc=  3.375302   el= -0.521201   Ekb=-13.264039   kbcos= -0.535594
   l= 2   rc=  3.872880   el=  0.001991   Ekb= -0.641094   kbcos= -0.062456
   l= 3   rc=  3.970931   el=  0.003093   Ekb= -0.474517   kbcos= -0.018236

KBgen: Total number of Kleinman-Bylander projectors:   16
atom: -------------------------------------------------------------------------

atom: SANKEY-TYPE ORBITALS:
atom: Selected multiple-zeta basis: split     

SPLIT: Orbitals with angular momentum L= 0

SPLIT: Basis orbitals for state 2s

SPLIT: PAO cut-off radius determined from an
SPLIT: energy shift=  0.002000 Ry

   izeta = 1
                 lambda =    1.000000
                     rc =    4.730425
                 energy =   -1.363399
                kinetic =    1.245246
    potential(screened) =   -2.608645
       potential(ionic) =   -8.121105

   izeta = 2
                 rmatch =    2.531849
              splitnorm =    0.280000
                 energy =   -0.959908
                kinetic =    2.409435
    potential(screened) =   -3.369343
       potential(ionic) =   -9.427975

SPLIT: Orbitals with angular momentum L= 1

SPLIT: Basis orbitals for state 2p

SPLIT: PAO cut-off radius determined from an
SPLIT: energy shift=  0.002000 Ry

   izeta = 1
                 lambda =    1.000000
                     rc =    5.924108
                 energy =   -0.519262
                kinetic =    3.672940
    potential(screened) =   -4.192202
       potential(ionic) =   -9.518354

   izeta = 2
                 rmatch =    2.531849
              splitnorm =    0.280000
                 energy =   -0.104258
                kinetic =    6.807538
    potential(screened) =   -6.911796
       potential(ionic) =  -13.149920

POLgen: Perturbative polarization orbital with L=  2

POLgen: Polarization orbital for state 2p

   izeta = 1
                     rc =    5.924108
                 energy =    1.427508
                kinetic =    2.872379
    potential(screened) =   -1.444871
       potential(ionic) =   -5.563644
atom: Total number of Sankey-type orbitals: 13

atm_pop: Valence configuration (for local Pseudopot. screening):
 2s( 2.00)                                                            
 2p( 3.00)                                                            
Vna: chval, zval:    5.00000   5.00000

Vna:  Cut-off radius for the neutral-atom potential:   5.924108

atom: _________________________________________________________________________

<basis_specs>
===============================================================================
Si                   Z=  14    Mass=  28.090        Charge= 0.17977+309
Lmxo=1 Lmxkb= 3    BasisType=split      Semic=F
L=0  Nsemic=0  Cnfigmx=3
          i=1  nzeta=2  polorb=0  (3s)
            splnorm:   0.28000    
               vcte:    0.0000    
               rinn:    0.0000    
               qcoe:    0.0000    
               qyuk:    0.0000    
               qwid:   0.10000E-01
                rcs:    0.0000      0.0000    
            lambdas:    1.0000      1.0000    
L=1  Nsemic=0  Cnfigmx=3
          i=1  nzeta=2  polorb=1  (3p)
            splnorm:   0.28000    
               vcte:    0.0000    
               rinn:    0.0000    
               qcoe:    0.0000    
               qyuk:    0.0000    
               qwid:   0.10000E-01
                rcs:    0.0000      0.0000    
            lambdas:    1.0000      1.0000    
-------------------------------------------------------------------------------
L=0  Nkbl=1  erefs: 0.17977+309
L=1  Nkbl=1  erefs: 0.17977+309
L=2  Nkbl=1  erefs: 0.17977+309
L=3  Nkbl=1  erefs: 0.17977+309
===============================================================================
</basis_specs>

atom: Called for Si                    (Z =  14)

read_vps: Pseudopotential generation method:
read_vps: ATM4.2.7  Troullier-Martins                       
Valence charge for ps generation:    4.00000

xc_check: Exchange-correlation functional:
xc_check: GGA Perdew, Burke & Ernzerhof 1996
V l=0 = -2*Zval/r beyond r=  2.7826
V l=1 = -2*Zval/r beyond r=  2.7826
V l=2 = -2*Zval/r beyond r=  2.9253
V l=3 = -2*Zval/r beyond r=  2.7826
All V_l potentials equal beyond r=  2.8530
This should be close to max(r_c) in ps generation
All pots = -2*Zval/r beyond r=  2.9253

VLOCAL1: 99.0% of the norm of Vloc inside      5.333 Ry
VLOCAL1: 99.9% of the norm of Vloc inside     12.154 Ry
atom: Maximum radius for 4*pi*r*r*local-pseudopot. charge    3.39869
atom: Maximum radius for r*vlocal+2*Zval:    2.96205
GHOST: No ghost state for L =  0
GHOST: No ghost state for L =  1
GHOST: No ghost state for L =  2
GHOST: No ghost state for L =  3

KBgen: Kleinman-Bylander projectors: 
   l= 0   rc=  3.075247   el= -0.794092   Ekb=  5.879390   kbcos=  0.167461
   l= 1   rc=  3.153101   el= -0.300068   Ekb=  2.642817   kbcos=  0.058301
   l= 2   rc=  3.273594   el=  0.001958   Ekb= -1.185135   kbcos= -0.104411
   l= 3   rc=  3.232927   el=  0.003046   Ekb= -0.497174   kbcos= -0.015889

KBgen: Total number of Kleinman-Bylander projectors:   16
atom: -------------------------------------------------------------------------

atom: SANKEY-TYPE ORBITALS:
atom: Selected multiple-zeta basis: split     

SPLIT: Orbitals with angular momentum L= 0

SPLIT: Basis orbitals for state 3s

SPLIT: PAO cut-off radius determined from an
SPLIT: energy shift=  0.002000 Ry

   izeta = 1
                 lambda =    1.000000
                     rc =    6.429618
                 energy =   -0.792283
                kinetic =    0.525293
    potential(screened) =   -1.317576
       potential(ionic) =   -3.744923

   izeta = 2
                 rmatch =    3.998416
              splitnorm =    0.280000
                 energy =   -0.583081
                kinetic =    1.069570
    potential(screened) =   -1.652651
       potential(ionic) =   -4.235185

SPLIT: Orbitals with angular momentum L= 1

SPLIT: Basis orbitals for state 3p

SPLIT: PAO cut-off radius determined from an
SPLIT: energy shift=  0.002000 Ry

   izeta = 1
                 lambda =    1.000000
                     rc =    8.464845
                 energy =   -0.298236
                kinetic =    0.785360
    potential(screened) =   -1.083596
       potential(ionic) =   -3.273779

   izeta = 2
                 rmatch =    4.587816
              splitnorm =    0.280000
                 energy =   -0.131871
                kinetic =    1.403687
    potential(screened) =   -1.535557
       potential(ionic) =   -4.015310

POLgen: Perturbative polarization orbital with L=  2

POLgen: Polarization orbital for state 3p

   izeta = 1
                     rc =    8.464845
                 energy =    0.321949
                kinetic =    1.055677
    potential(screened) =   -0.733728
       potential(ionic) =   -2.672950
atom: Total number of Sankey-type orbitals: 13

atm_pop: Valence configuration (for local Pseudopot. screening):
 3s( 2.00)                                                            
 3p( 2.00)                                                            
Vna: chval, zval:    4.00000   4.00000

Vna:  Cut-off radius for the neutral-atom potential:   8.464845

atom: _________________________________________________________________________

<basis_specs>
===============================================================================
O                    Z=   8    Mass=  16.000        Charge= 0.17977+309
Lmxo=1 Lmxkb= 3    BasisType=split      Semic=F
L=0  Nsemic=0  Cnfigmx=2
          i=1  nzeta=2  polorb=0  (2s)
            splnorm:   0.28000    
               vcte:    0.0000    
               rinn:    0.0000    
               qcoe:    0.0000    
               qyuk:    0.0000    
               qwid:   0.10000E-01
                rcs:    0.0000      0.0000    
            lambdas:    1.0000      1.0000    
L=1  Nsemic=0  Cnfigmx=2
          i=1  nzeta=2  polorb=1  (2p)
            splnorm:   0.28000    
               vcte:    0.0000    
               rinn:    0.0000    
               qcoe:    0.0000    
               qyuk:    0.0000    
               qwid:   0.10000E-01
                rcs:    0.0000      0.0000    
            lambdas:    1.0000      1.0000    
-------------------------------------------------------------------------------
L=0  Nkbl=1  erefs: 0.17977+309
L=1  Nkbl=1  erefs: 0.17977+309
L=2  Nkbl=1  erefs: 0.17977+309
L=3  Nkbl=1  erefs: 0.17977+309
===============================================================================
</basis_specs>

atom: Called for O                     (Z =   8)

read_vps: Pseudopotential generation method:
read_vps: ATM4.2.7  Troullier-Martins                       
Valence charge for ps generation:    6.00000

xc_check: Exchange-correlation functional:
xc_check: GGA Perdew, Burke & Ernzerhof 1996
V l=0 = -2*Zval/r beyond r=  1.1000
V l=1 = -2*Zval/r beyond r=  1.1000
V l=2 = -2*Zval/r beyond r=  2.2154
V l=3 = -2*Zval/r beyond r=  1.1000
All V_l potentials equal beyond r=  2.2154
This should be close to max(r_c) in ps generation
All pots = -2*Zval/r beyond r=  2.2154

VLOCAL1: 99.0% of the norm of Vloc inside      8.845 Ry
VLOCAL1: 99.9% of the norm of Vloc inside     20.157 Ry
atom: Maximum radius for 4*pi*r*r*local-pseudopot. charge    2.67231
atom: Maximum radius for r*vlocal+2*Zval:    2.32897
GHOST: No ghost state for L =  0
GHOST: No ghost state for L =  1
GHOST: No ghost state for L =  2
GHOST: No ghost state for L =  3

KBgen: Kleinman-Bylander projectors: 
   l= 0   rc=  2.243238   el= -1.759686   Ekb=**********   kbcos= -0.171774
   l= 1   rc=  2.328968   el= -0.663873   Ekb=-14.506792   kbcos= -0.519897
   l= 2   rc=  2.573941   el=  0.002031   Ekb= -1.137373   kbcos= -0.019581
   l= 3   rc=  2.606321   el=  0.003153   Ekb= -1.013546   kbcos= -0.003122

KBgen: Total number of Kleinman-Bylander projectors:   16
atom: -------------------------------------------------------------------------

atom: SANKEY-TYPE ORBITALS:
atom: Selected multiple-zeta basis: split     

SPLIT: Orbitals with angular momentum L= 0

SPLIT: Basis orbitals for state 2s

SPLIT: PAO cut-off radius determined from an
SPLIT: energy shift=  0.002000 Ry

   izeta = 1
                 lambda =    1.000000
                     rc =    4.243912
                 energy =   -1.758270
                kinetic =    3.286084
    potential(screened) =   -5.044353
       potential(ionic) =  -12.921184

   izeta = 2
                 rmatch =    2.187845
              splitnorm =    0.280000
                 energy =   -0.885018
                kinetic =    8.134434
    potential(screened) =   -9.019452
       potential(ionic) =  -17.710645

SPLIT: Orbitals with angular momentum L= 1

SPLIT: Basis orbitals for state 2p

SPLIT: PAO cut-off radius determined from an
SPLIT: energy shift=  0.002000 Ry

   izeta = 1
                 lambda =    1.000000
                     rc =    5.314825
                 energy =   -0.661986
                kinetic =    4.917472
    potential(screened) =   -5.579458
       potential(ionic) =  -13.236259

   izeta = 2
                 rmatch =    2.160663
              splitnorm =    0.280000
                 energy =   -0.068760
                kinetic =    9.183374
    potential(screened) =   -9.252135
       potential(ionic) =  -18.274251

POLgen: Perturbative polarization orbital with L=  2

POLgen: Polarization orbital for state 2p

   izeta = 1
                     rc =    5.314825
                 energy =    1.970580
                kinetic =    3.886128
    potential(screened) =   -1.915547
       potential(ionic) =   -7.749584
atom: Total number of Sankey-type orbitals: 13

atm_pop: Valence configuration (for local Pseudopot. screening):
 2s( 2.00)                                                            
 2p( 4.00)                                                            
Vna: chval, zval:    6.00000   6.00000

Vna:  Cut-off radius for the neutral-atom potential:   5.314825

atom: _________________________________________________________________________

prinput: Basis input ----------------------------------------------------------

PAO.BasisType split     

%block ChemicalSpeciesLabel
    1    1 H                       # Species index, atomic number, species label
    2    7 N                       # Species index, atomic number, species label
    3   14 Si                      # Species index, atomic number, species label
    4    8 O                       # Species index, atomic number, species label
%endblock ChemicalSpeciesLabel

%block PAO.Basis                 # Define Basis set
H                     1                    # Species label, number of l-shells
 n=1   0   2 P   1                   # n, l, Nzeta, Polarization, NzetaPol
   6.518      2.141   
   1.000      1.000   
N                     2                    # Species label, number of l-shells
 n=2   0   2                         # n, l, Nzeta 
   4.730      2.532   
   1.000      1.000   
 n=2   1   2 P   1                   # n, l, Nzeta, Polarization, NzetaPol
   5.924      2.532   
   1.000      1.000   
Si                    2                    # Species label, number of l-shells
 n=3   0   2                         # n, l, Nzeta 
   6.430      3.998   
   1.000      1.000   
 n=3   1   2 P   1                   # n, l, Nzeta, Polarization, NzetaPol
   8.465      4.588   
   1.000      1.000   
O                     2                    # Species label, number of l-shells
 n=2   0   2                         # n, l, Nzeta 
   4.244      2.188   
   1.000      1.000   
 n=2   1   2 P   1                   # n, l, Nzeta, Polarization, NzetaPol
   5.315      2.161   
   1.000      1.000   
%endblock PAO.Basis

prinput: ----------------------------------------------------------------------

Dumping basis to NetCDF file H.ion.nc
Dumping basis to NetCDF file N.ion.nc
Dumping basis to NetCDF file Si.ion.nc
Dumping basis to NetCDF file O.ion.nc
coor:   Atomic-coordinates input format  =     Cartesian coordinates
coor:                                          (in Angstroms)

siesta: Atomic coordinates (Bohr) and species
siesta:      1.47699   6.36423   0.00000  1        1
siesta:      0.31450   4.75221   0.00000  2        2
siesta:     -2.36957   4.90643   0.00000  3        3
siesta:     -3.12875   6.84175   0.00000  1        4
siesta:     -3.82859   2.75451   0.00000  3        5
siesta:     -5.86392   2.93832   0.00000  1        6
siesta:     -2.66704   0.30492   0.00000  3        7
siesta:     -4.04315  -2.03407   0.00000  2        8
siesta:     -3.00557  -3.88189   0.00000  1        9
siesta:     -6.00308  -1.93774   0.00000  1       10
siesta:     -0.00001   0.00005   0.00000  2       11
siesta:      1.61417   2.24082   0.00000  3       12
siesta:      3.90308   2.17574   0.00000  4       13

siesta: System type = molecule  

initatomlists: Number of atoms, orbitals, and projectors:     13   129   173

siesta: ******************** Simulation parameters ****************************
siesta:
siesta: The following are some of the parameters of the simulation.
siesta: A complete list of the parameters used, including default values,
siesta: can be found in file out.fdf
siesta:
redata: Spin configuration                          = spin-orbit
redata: Number of spin components                   = 8
redata: Time-Reversal Symmetry                      = F
redata: Spin spiral                                 = F
############################################################
This spin-orbit implementation uses a local approximation.
From 4.2 and onwards the full non-local approximation is implemented
You are strongly advised to use >=4.2 versions!
############################################################
redata: Long output                                 =   F
redata: Number of Atomic Species                    =        4
redata: Charge density info will appear in .RHO file
redata: Write Mulliken Pop.                         = NO
redata: Matel table size (NRTAB)                    =     1024
redata: Mesh Cutoff                                 =   340.0000 Ry
redata: Net charge of the system                    =     0.0000 |e|
redata: Min. number of SCF Iter                     =        1
redata: Max. number of SCF Iter                     =      200
redata: SCF convergence failure will abort job
redata: SCF mix quantity                            = Hamiltonian
redata: Mix DM or H after convergence               =   F
redata: Recompute H after scf cycle                 =   F
redata: Mix DM in first SCF step                    =   T
redata: Write Pulay info on disk                    =   F
redata: New DM Occupancy tolerance                  = 0.000000000001
redata: No kicks to SCF
redata: DM Mixing Weight for Kicks                  =     0.5000
redata: Require Harris convergence for SCF          =   F
redata: Harris energy tolerance for SCF             =     0.000100 eV
redata: Require DM convergence for SCF              =   T
redata: DM tolerance for SCF                        =     0.000008
redata: Require EDM convergence for SCF             =   F
redata: EDM tolerance for SCF                       =     0.001000 eV
redata: Require H convergence for SCF               =   T
redata: Hamiltonian tolerance for SCF               =     0.000001 eV
redata: Require (free) Energy convergence for SCF   =   F
redata: (free) Energy tolerance for SCF             =     0.000100 eV
redata: Using Saved Data (generic)                  =   F
redata: Use continuation files for DM               =   T
redata: Neglect nonoverlap interactions             =   F
redata: Method of Calculation                       = Diagonalization
redata: Electronic Temperature                      =   299.9978 K
redata: Fix the spin of the system                  =   F
redata: Dynamics option                             = Verlet MD run
redata: Initial MD time step                        =        1
redata:   Final MD time step                        =      300
redata: Length of MD time step                      =     0.5000 fs
redata: Initial Temperature of MD run               =   100.0000 K
redata: Perform a MD quench                         =   T
mix.SCF: Pulay mixing                            = Pulay
mix.SCF:    Variant                              = stable
mix.SCF:    History steps                        = 6
mix.SCF:    Linear mixing weight                 =     0.250000
mix.SCF:    Mixing weight                        =     0.250000
mix.SCF:    SVD condition                        = 0.1000E-07
mix.SCF:    Restart steps                        = 24
mix.SCF:    Restart save steps                   = 3
mix.SCF: Spin-component mixing                   all
redata: Save all siesta data in one NC              =   F
redata: ***********************************************************************

%block SCF.Mixers
  Pulay
%endblock SCF.Mixers

%block SCF.Mixer.Pulay
  # Mixing method
  method pulay
  variant stable

  # Mixing options
  weight 0.2500
  weight.linear 0.2500
  history 6
  restart 24
  restart.save 3
%endblock SCF.Mixer.Pulay

Size of DM history Fstack: 3
Total number of electrons:    42.000000
Total ionic charge:    42.000000

* ProcessorY, Blocksize:    4   4


* Orbital distribution balance (max,min):     5     4


Time-reversal symmetry not used.

siesta: k-grid: Number of k-points =     1
siesta: k-grid: Cutoff (effective) =     4.927 Ang
siesta: k-grid: Supercell and displacements
siesta: k-grid:    1   0   0      0.000
siesta: k-grid:    0   1   0      0.000
siesta: k-grid:    0   0   1      0.000

diag: Algorithm                                     = ELPA-1stage
diag: Parallel over k                               =   F
diag: Use parallel 2D distribution                  =   T
diag: Parallel block-size                           = 4
diag: Parallel distribution                         =     4 x     8
diag: Used triangular part                          = Lower
diag: Absolute tolerance                            =  0.100E-15
diag: Orthogonalization factor                      =  0.100E-05
diag: Memory factor                                 =  1.0000


ts: **************************************************************
ts: Save H and S matrices                           =    F
ts: Save DM and EDM matrices                        =    F
ts: Only save the overlap matrix S                  =    F
ts: **************************************************************

************************ Begin: TS CHECKS AND WARNINGS ************************
************************ End: TS CHECKS AND WARNINGS **************************


                     ====================================
                        Begin MD quenched step =      1
                     ====================================

outcoor: Atomic coordinates (Ang):                          
    0.78158900    3.36780500    0.00000000   1       1  H
    0.16642400    2.51476000    0.00000000   2       2  N
   -1.25392000    2.59636800    0.00000000   3       3  Si
   -1.65566400    3.62049800    0.00000000   1       4  H
   -2.02600400    1.45762200    0.00000000   3       5  Si
   -3.10305300    1.55489000    0.00000000   1       6  H
   -1.41133800    0.16135500    0.00000000   3       7  Si
   -2.13954300   -1.07638200    0.00000000   2       8  N
   -1.59048000   -2.05420700    0.00000000   1       9  H
   -3.17669000   -1.02540500    0.00000000   1      10  H
   -0.00000400    0.00002800    0.00000000   2      11  N
    0.85418000    1.18579000    0.00000000   3      12  Si
    2.06542200    1.15135200    0.00000000   4      13  O

outcell: Unit cell vectors (Ang):
       14.828907    0.000000    0.000000
        0.000000   14.495518    0.000000
        0.000000    0.000000    9.854683

outcell: Cell vector modules (Ang)   :   14.828907   14.495518    9.854683
outcell: Cell angles (23,13,12) (deg):     90.0000     90.0000     90.0000
outcell: Cell volume (Ang**3)        :   2118.2906
<dSpData1D:S at geom step 1
  <sparsity:sparsity for geom step 1
    nrows_g=129 nrows=5 sparsity=.0384 nnzs=639, refcount: 8>
  <dData1D:(new from dSpData1D) n=639, refcount: 1>
refcount: 1>
new_DM -- step:     1
Initializing Density Matrix...

Attempting to read DM from file... Failed...
DM filled with atomic data:
<dSpData2D:DM initialized from atoms
  <sparsity:sparsity for geom step 1
    nrows_g=129 nrows=5 sparsity=.0384 nnzs=639, refcount: 9>
  <dData2D:DM n=639 m=8, refcount: 1>
refcount: 1>
     spin moment: S , {S} =   24.00000   0.00000   0.00000  24.00000
No. of atoms with KB's overlaping orbs in proc 0. Max # of overlaps:      11     125

Initializing spin-orbit part of the Hamiltonian
  Adding spin-orbit effects for H 
  Adding spin-orbit effects for N 
  Adding spin-orbit effects for Si
  Adding spin-orbit effects for O 


New grid distribution:   1
           1       1:   90    1:   21    1:    8
           2       1:   90    1:   21    9:   16
           3       1:   90    1:   21   17:   24
           4       1:   90    1:   21   25:   32
           5       1:   90    1:   21   33:   39
           6       1:   90    1:   21   40:   46
           7       1:   90    1:   21   47:   53
           8       1:   90    1:   21   54:   60
           9       1:   90   22:   41    1:    8
          10       1:   90   22:   41    9:   16
          11       1:   90   22:   41   17:   24
          12       1:   90   22:   41   25:   32
          13       1:   90   22:   41   33:   39
          14       1:   90   22:   41   40:   46
          15       1:   90   22:   41   47:   53
          16       1:   90   22:   41   54:   60
          17       1:   90   42:   61    1:    8
          18       1:   90   42:   61    9:   16
          19       1:   90   42:   61   17:   24
          20       1:   90   42:   61   25:   32
          21       1:   90   42:   61   33:   39
          22       1:   90   42:   61   40:   46
          23       1:   90   42:   61   47:   53
          24       1:   90   42:   61   54:   60
          25       1:   90   62:   81    1:    8
          26       1:   90   62:   81    9:   16
          27       1:   90   62:   81   17:   24
          28       1:   90   62:   81   25:   32
          29       1:   90   62:   81   33:   39
          30       1:   90   62:   81   40:   46
          31       1:   90   62:   81   47:   53
          32       1:   90   62:   81   54:   60

InitMesh: MESH =   180 x   162 x   120 =     3499200
InitMesh: (bp) =    90 x    81 x    60 =      437400
InitMesh: Mesh cutoff (required, used) =   340.000   345.195 Ry
ExtMesh (bp) on 0 =   202 x   125 x   120 =     3030000
New grid distribution:   2
           1      12:   74    1:    7    1:   21
           2       1:   11   15:   28    1:   20
           3      75:   83    8:   16    1:   23
           4      12:   74    1:    7   22:   60
           5      12:   74    8:   14   22:   60
           6      12:   74    8:   14    1:   21
           7       1:   11    1:    7   22:   60
           8      84:   90    1:    7   24:   60
           9      75:   82   17:   71    1:   20
          10       1:   11    8:   14   22:   60
          11       1:   11    8:   14    1:   21
          12      12:   74   15:   68   21:   60
          13      75:   82   17:   70   21:   60
          14      83:   90   17:   69    1:   20
          15      75:   83    8:   16   24:   60
          16       1:   11    1:    7    1:   21
          17      12:   74   15:   68    1:   20
          18       1:   11   29:   81    1:   20
          19      84:   90    8:   16   24:   60
          20      84:   90    8:   16    1:   23
          21       1:   11   29:   81   21:   60
          22       1:   11   15:   28   21:   60
          23      75:   83    1:    7   24:   60
          24      75:   83    1:    7    1:   23
          25      12:   74   69:   81    1:   20
          26      83:   90   70:   81    1:   20
          27      75:   82   72:   81    1:   20
          28      12:   74   69:   81   21:   60
          29      83:   90   17:   69   21:   60
          30      83:   90   70:   81   21:   60
          31      75:   82   71:   81   21:   60
          32      84:   90    1:    7    1:   23
New grid distribution:   3
           1      19:   64   11:   21    1:   26
           2      79:   90   66:   81   26:   60
           3      65:   77   14:   28    1:   27
           4      18:   64    1:   10   27:   60
           5      18:   64   11:   21   27:   60
           6      19:   64    1:   10    1:   26
           7       1:   17   11:   21   27:   60
           8       1:   18   11:   21    1:   26
           9       1:   14   22:   63    1:   23
          10      65:   78    1:   13   28:   60
          11      79:   90   65:   81    1:   25
          12      14:   64   22:   71   24:   60
          13       1:   13   22:   64   24:   60
          14      79:   90   29:   64    1:   25
          15       1:   17    1:   10   27:   60
          16      78:   90   15:   28    1:   27
          17      15:   64   22:   71    1:   23
          18      65:   78   29:   66    1:   25
          19      79:   90   15:   28   28:   60
          20      78:   90    1:   14    1:   27
          21      65:   78   29:   67   26:   60
          22      65:   78   14:   28   28:   60
          23      79:   90    1:   14   28:   60
          24       1:   18    1:   10    1:   26
          25      15:   64   72:   81    1:   23
          26       1:   14   64:   81    1:   23
          27      65:   78   67:   81    1:   25
          28      14:   64   72:   81   24:   60
          29      79:   90   29:   65   26:   60
          30       1:   13   65:   81   24:   60
          31      65:   78   68:   81   26:   60
          32      65:   77    1:   13    1:   27
Setting up quadratic distribution...
ExtMesh (bp) on 0 =   175 x   111 x   133 =     2583525
PhiOnMesh: Number of (b)points on node 0 =                 9261
PhiOnMesh: nlist on node 0 =               169178

stepf: Fermi-Dirac step function

siesta: Program's energy decomposition (eV):
siesta: Ebs     =      -233.289123
siesta: Eions   =      1544.210757
siesta: Ena     =       223.085512
siesta: Ekin    =      1629.337512
siesta: Enl     =     -1501.829332
siesta: Eso     =        -0.005810
siesta: Edftu   =         0.000000
siesta: DEna    =        27.661228
siesta: DUscf   =        53.585096
siesta: DUext   =         0.000000
siesta: Exc     =      -561.029856
siesta: eta*DQ  =         0.000000
siesta: Emadel  =         0.000000
siesta: Emeta   =         0.000000
siesta: Emolmec =         0.000000
siesta: Ekinion =         0.000000
siesta: Eharris =     -1598.369773
siesta: Etot    =     -1673.406408
siesta: FreeEng =     -1673.406408

        iscf     Eharris(eV)        E_KS(eV)     FreeEng(eV)     dDmax    Ef(eV) dHmax(eV)
   scf:    1    -1598.369773    -1673.406408    -1673.406408  0.937041 -8.177731 26.562391
     spin moment: S , {S} =    0.00004   0.00000   0.00000   0.00004
timer: Routine,Calls,Time,% = IterSCF        1       1.135   4.63
   scf:    2    -1704.817757    -1691.373912    -1691.373912  0.110278 -6.204976 12.244119
     spin moment: S , {S} =    0.00003   0.00000  -0.00000   0.00003
   scf:    3    -1697.511875    -1695.906829    -1695.906829  0.121206 -3.992620  6.250889
     spin moment: S , {S} =    0.00002  -0.00000  -0.00000   0.00002
   scf:    4    -1696.136547    -1696.212548    -1696.212548  0.057817 -4.643902  3.007504
     spin moment: S , {S} =    0.00001  -0.00000  -0.00000   0.00001
   scf:    5    -1696.398717    -1696.361085    -1696.361085  0.031315 -4.177297  2.378878
     spin moment: S , {S} =    0.00001   0.00000  -0.00000   0.00001
   scf:    6    -1696.474448    -1696.422430    -1696.422430  0.022808 -4.122469  0.558547
     spin moment: S , {S} =    0.00000  -0.00000   0.00000   0.00000
   scf:    7    -1696.442912    -1696.434649    -1696.434649  0.007965 -5.354243  0.236541
     spin moment: S , {S} =    0.00000  -0.00000   0.00000   0.00000
   scf:    8    -1696.438148    -1696.436799    -1696.436799  0.003460 -5.398125  0.079877
     spin moment: S , {S} =    0.00000  -0.00000   0.00000   0.00000
   scf:    9    -1696.439111    -1696.437930    -1696.437930  0.002610 -5.394653  0.033311
     spin moment: S , {S} =    0.00000  -0.00000   0.00000   0.00000
   scf:   10    -1696.438272    -1696.438095    -1696.438095  0.000861 -5.395892  0.019389
     spin moment: S , {S} =    0.00000  -0.00000   0.00000   0.00000
   scf:   11    -1696.438368    -1696.438217    -1696.438217  0.001298 -5.395304  0.006288
     spin moment: S , {S} =    0.00000  -0.00000   0.00000   0.00000
   scf:   12    -1696.438236    -1696.438226    -1696.438226  0.000375 -5.394987  0.002380
     spin moment: S , {S} =    0.00000  -0.00000   0.00000   0.00000
   scf:   13    -1696.438227    -1696.438227    -1696.438227  0.000105 -5.394557  0.001260
     spin moment: S , {S} =    0.00000  -0.00000   0.00000  -0.00000
   scf:   14    -1696.438227    -1696.438227    -1696.438227  0.000045 -5.394518  0.000878
     spin moment: S , {S} =    0.00000  -0.00000   0.00000  -0.00000
   scf:   15    -1696.438227    -1696.438227    -1696.438227  0.000052 -5.394494  0.000473
     spin moment: S , {S} =    0.00000  -0.00000   0.00000  -0.00000
   scf:   16    -1696.438227    -1696.438227    -1696.438227  0.000020 -5.394439  0.000156
     spin moment: S , {S} =    0.00000  -0.00000   0.00000  -0.00000
   scf:   17    -1696.438227    -1696.438227    -1696.438227  0.000005 -5.394424  0.000051
     spin moment: S , {S} =    0.00000  -0.00000   0.00000   0.00000
   scf:   18    -1696.438227    -1696.438227    -1696.438227  0.000001 -5.394430  0.000022
     spin moment: S , {S} =    0.00000  -0.00000   0.00000   0.00000
   scf:   19    -1696.438227    -1696.438227    -1696.438227  0.000001 -5.394434  0.000013
     spin moment: S , {S} =    0.00000  -0.00000   0.00000   0.00000
   scf:   20    -1696.438227    -1696.438227    -1696.438227  0.000001 -5.394434  0.000004
     spin moment: S , {S} =    0.00000  -0.00000   0.00000   0.00000
   scf:   21    -1696.438227    -1696.438227    -1696.438227  0.000000 -5.394434  0.000002
     spin moment: S , {S} =    0.00000  -0.00000   0.00000   0.00000
   scf:   22    -1696.438227    -1696.438227    -1696.438227  0.000000 -5.394434  0.000002
     spin moment: S , {S} =    0.00000  -0.00000   0.00000   0.00000
   scf:   23    -1696.438227    -1696.438227    -1696.438227  0.000000 -5.394434  0.000001
     spin moment: S , {S} =    0.00000  -0.00000   0.00000   0.00000

SCF Convergence by DM+H criterion
max |DM_out - DM_in|         :     0.0000000528
max |H_out - H_in|      (eV) :     0.0000008779
SCF cycle converged after 23 iterations

Using DM_out to compute the final energy and forces
No. of atoms with KB's overlaping orbs in proc 0. Max # of overlaps:      11     125

siesta: E_KS(eV) =            -1696.4382

siesta: E_KS - E_eggbox =     -1696.4382
     spin moment: S , {S} =    0.00000  -0.00000   0.00000   0.00000

siesta: Atomic forces (eV/Ang):
     1    0.386283   -0.011145    0.000000
     2   12.031464   10.882627   -0.000000
     3   25.196242   41.338832    0.000000
     4   -5.692103   15.907715   -0.000000
     5  -46.359735   -5.830113    0.000000
     6  -18.278348    1.983224   -0.000000
     7   16.677341  -37.231936   -0.000000
     8   -7.112769  -15.654038   -0.000000
     9   -1.548074    1.388965    0.000000
    10   -0.729931   -1.145516   -0.000000
    11    7.851002   -9.794351   -0.000000
    12  -28.249887   -1.293806   -0.000000
    13   45.056576    1.750398    0.000000
----------------------------------------
   Tot   -0.771938    2.290856    0.000000
----------------------------------------
   Max   46.359735
   Res   16.306682    sqrt( Sum f_i^2 / 3N )
----------------------------------------
   Max   46.359735    constrained

Stress tensor Voigt[x,y,z,yz,xz,xy] (kbar):     -149.64     -146.65       -0.26       -0.03        0.00      -10.56
(Free)E + p*V (eV/cell)    -1565.7501
Target enthalpy (eV/cell)    -1696.4382

siesta: Stress tensor (static) (eV/Ang**3):
        -0.093367   -0.006606    0.000000
        -0.006606   -0.091485    0.000000
        -0.000000   -0.000000   -0.000088

siesta: Pressure (static):         98.76981631  kBar

siesta: Stress tensor (total) (eV/Ang**3):
        -0.093394   -0.006591    0.000001
        -0.006591   -0.091531   -0.000020
         0.000001   -0.000020   -0.000160

siesta: Pressure (total):         98.84746312  kBar

siesta: Temp_ion =      39.203 K

                     ====================================
                        Begin MD quenched step =      2
                     ====================================

outcoor: Atomic coordinates (Ang):                          
    0.78700502    3.35883868    0.00261249   1       1  H
    0.16745228    2.51609012   -0.00000000   2       2  N
   -1.25248103    2.59813013    0.00000000   3       3  Si
   -1.66375428    3.64320030   -0.00000000   1       4  H
   -2.02871950    1.45737348    0.00000000   3       5  Si
   -3.12965997    1.56187274   -0.00000000   1       6  H
   -1.41044262    0.15976793   -0.00000000   3       7  Si
   -2.14136033   -1.07913660   -0.00141396   2       8  N
   -1.59231528   -2.05256035    0.00000000   1       9  H
   -3.17755535   -1.02676304   -0.00000000   1      10  H
    0.00104318   -0.00080908   -0.00000000   2      11  N
    0.85297580    1.18502942   -0.00000000   3      12  Si
    2.06879386    1.15162241    0.00014485   4      13  O

outcell: Unit cell vectors (Ang):
       14.828907    0.000000    0.000000
        0.000000   14.495518    0.000000
        0.000000    0.000000    9.854683

outcell: Cell vector modules (Ang)   :   14.828907   14.495518    9.854683
outcell: Cell angles (23,13,12) (deg):     90.0000     90.0000     90.0000
outcell: Cell volume (Ang**3)        :   2118.2906
<dSpData1D:S at geom step 2
  <sparsity:sparsity for geom step 2
    nrows_g=129 nrows=5 sparsity=.0384 nnzs=639, refcount: 8>
  <dData1D:(new from dSpData1D) n=639, refcount: 1>
refcount: 1>
new_DM -- step:     2
Re-using DM from previous geometries...
Number of DMs in history: 1
 DM extrapolation coefficients: 
1   1.00000
New DM after history re-use:
<dSpData2D:SpM extrapolated using coords
  <sparsity:sparsity for geom step 2
    nrows_g=129 nrows=5 sparsity=.0384 nnzs=639, refcount: 10>
  <dData2D:(temp array for extrapolation) n=639 m=8, refcount: 1>
refcount: 1>
     spin moment: S , {S} =    0.00000   0.00000  -0.00000   0.00000
No. of atoms with KB's overlaping orbs in proc 0. Max # of overlaps:      11     125
New grid distribution:   1
           1       1:   90    1:   21    1:    8
           2       1:   90    1:   21    9:   16
           3       1:   90    1:   21   17:   24
           4       1:   90    1:   21   25:   32
           5       1:   90    1:   21   33:   39
           6       1:   90    1:   21   40:   46
           7       1:   90    1:   21   47:   53
           8       1:   90    1:   21   54:   60
           9       1:   90   22:   41    1:    8
          10       1:   90   22:   41    9:   16
          11       1:   90   22:   41   17:   24
          12       1:   90   22:   41   25:   32
          13       1:   90   22:   41   33:   39
          14       1:   90   22:   41   40:   46
          15       1:   90   22:   41   47:   53
          16       1:   90   22:   41   54:   60
          17       1:   90   42:   61    1:    8
          18       1:   90   42:   61    9:   16
          19       1:   90   42:   61   17:   24
          20       1:   90   42:   61   25:   32
          21       1:   90   42:   61   33:   39
          22       1:   90   42:   61   40:   46
          23       1:   90   42:   61   47:   53
          24       1:   90   42:   61   54:   60
          25       1:   90   62:   81    1:    8
          26       1:   90   62:   81    9:   16
          27       1:   90   62:   81   17:   24
          28       1:   90   62:   81   25:   32
          29       1:   90   62:   81   33:   39
          30       1:   90   62:   81   40:   46
          31       1:   90   62:   81   47:   53
          32       1:   90   62:   81   54:   60

InitMesh: MESH =   180 x   162 x   120 =     3499200
InitMesh: (bp) =    90 x    81 x    60 =      437400
InitMesh: Mesh cutoff (required, used) =   340.000   345.195 Ry
ExtMesh (bp) on 0 =   202 x   125 x   120 =     3030000
New grid distribution:   2
           1      12:   74    1:    7    1:   21
           2       1:   11   15:   28    1:   20
           3      75:   83    8:   16    1:   23
           4      12:   74    1:    7   22:   60
           5      12:   74    8:   14   22:   60
           6      12:   74    8:   14    1:   21
           7       1:   11    1:    7   22:   60
           8      84:   90    1:    7   24:   60
           9      75:   82   17:   71    1:   20
          10       1:   11    8:   14   22:   60
          11       1:   11    8:   14    1:   21
          12      12:   74   15:   68   21:   60
          13      75:   82   17:   70   21:   60
          14      83:   90   17:   69    1:   20
          15      75:   83    8:   16   24:   60
          16       1:   11    1:    7    1:   21
          17      12:   74   15:   68    1:   20
          18       1:   11   29:   81    1:   20
          19      84:   90    8:   16   24:   60
          20      84:   90    8:   16    1:   23
          21       1:   11   29:   81   21:   60
          22       1:   11   15:   28   21:   60
          23      75:   83    1:    7   24:   60
          24      75:   83    1:    7    1:   23
          25      12:   74   69:   81    1:   20
          26      83:   90   70:   81    1:   20
          27      75:   82   72:   81    1:   20
          28      12:   74   69:   81   21:   60
          29      83:   90   17:   69   21:   60
          30      83:   90   70:   81   21:   60
          31      75:   82   71:   81   21:   60
          32      84:   90    1:    7    1:   23
New grid distribution:   3
           1      19:   64   11:   21    1:   26
           2      79:   90   66:   81   26:   60
           3      65:   77   14:   28    1:   27
           4      18:   64    1:   10   27:   60
           5      18:   64   11:   21   27:   60
           6      19:   64    1:   10    1:   26
           7       1:   17   11:   21   27:   60
           8       1:   18   11:   21    1:   26
           9       1:   14   22:   63    1:   23
          10      65:   78    1:   13   28:   60
          11      79:   90   65:   81    1:   25
          12      14:   64   22:   71   24:   60
          13       1:   13   22:   64   24:   60
          14      79:   90   29:   64    1:   25
          15       1:   17    1:   10   27:   60
          16      78:   90   15:   28    1:   27
          17      15:   64   22:   71    1:   23
          18      65:   78   29:   66    1:   25
          19      79:   90   15:   28   28:   60
          20      78:   90    1:   14    1:   27
          21      65:   78   29:   67   26:   60
          22      65:   78   14:   28   28:   60
          23      79:   90    1:   14   28:   60
          24       1:   18    1:   10    1:   26
          25      15:   64   72:   81    1:   23
          26       1:   14   64:   81    1:   23
          27      65:   78   67:   81    1:   25
          28      14:   64   72:   81   24:   60
          29      79:   90   29:   65   26:   60
          30       1:   13   65:   81   24:   60
          31      65:   78   68:   81   26:   60
          32      65:   77    1:   13    1:   27
Setting up quadratic distribution...
ExtMesh (bp) on 0 =   175 x   111 x   133 =     2583525
PhiOnMesh: Number of (b)points on node 0 =                 9261
PhiOnMesh: nlist on node 0 =               169260

        iscf     Eharris(eV)        E_KS(eV)     FreeEng(eV)     dDmax    Ef(eV) dHmax(eV)
   scf:    1    -1698.017289    -1697.884061    -1697.884061  0.030849 -5.441309  0.588263
     spin moment: S , {S} =    0.00000   0.00000   0.00000  -0.00000
   scf:    2    -1697.650246    -1697.821385    -1697.821385  0.023296 -3.908972  1.478197
     spin moment: S , {S} =    0.00000  -0.00000   0.00000   0.00000
   scf:    3    -1697.919016    -1697.898369    -1697.898369  0.017620 -5.390753  0.090935
     spin moment: S , {S} =    0.00000   0.00000   0.00000   0.00000
   scf:    4    -1697.898617    -1697.898520    -1697.898520  0.001065 -5.390300  0.024081
     spin moment: S , {S} =    0.00000   0.00000   0.00000   0.00000
   scf:    5    -1697.898552    -1697.898538    -1697.898538  0.000254 -5.392732  0.010810
     spin moment: S , {S} =    0.00000   0.00000   0.00000   0.00000
   scf:    6    -1697.898543    -1697.898541    -1697.898541  0.000130 -5.392797  0.003481
     spin moment: S , {S} =    0.00000   0.00000   0.00000   0.00000
   scf:    7    -1697.898542    -1697.898541    -1697.898541  0.000079 -5.392571  0.000284
     spin moment: S , {S} =    0.00000   0.00000   0.00000   0.00000
   scf:    8    -1697.898541    -1697.898541    -1697.898541  0.000010 -5.392504  0.000141
     spin moment: S , {S} =    0.00000   0.00000   0.00000   0.00000
   scf:    9    -1697.898541    -1697.898541    -1697.898541  0.000004 -5.392471  0.000045
     spin moment: S , {S} =    0.00000   0.00000   0.00000   0.00000
   scf:   10    -1697.898541    -1697.898541    -1697.898541  0.000001 -5.392463  0.000016
     spin moment: S , {S} =    0.00000   0.00000   0.00000   0.00000
   scf:   11    -1697.898541    -1697.898541    -1697.898541  0.000001 -5.392460  0.000010
     spin moment: S , {S} =    0.00000   0.00000   0.00000   0.00000
   scf:   12    -1697.898541    -1697.898541    -1697.898541  0.000001 -5.392456  0.000002
     spin moment: S , {S} =    0.00000   0.00000   0.00000   0.00000
   scf:   13    -1697.898541    -1697.898541    -1697.898541  0.000000 -5.392456  0.000001
     spin moment: S , {S} =    0.00000   0.00000   0.00000   0.00000

SCF Convergence by DM+H criterion
max |DM_out - DM_in|         :     0.0000001012
max |H_out - H_in|      (eV) :     0.0000007944
SCF cycle converged after 13 iterations

Using DM_out to compute the final energy and forces
No. of atoms with KB's overlaping orbs in proc 0. Max # of overlaps:      11     125

siesta: E_KS(eV) =            -1697.8985
     spin moment: S , {S} =    0.00000   0.00000   0.00000   0.00000

siesta: Atomic forces (eV/Ang):
     1    0.502424    0.164675   -0.005362
     2   11.938930   10.645509    0.004315
     3   24.178232   42.325938   -0.000356
     4   -4.998208   14.287606    0.000395
     5  -47.927833   -5.448684    0.001624
     6  -16.126178    1.860634   -0.000630
     7   16.412700  -36.919824    0.008904
     8   -6.975062  -15.336110   -0.014356
     9   -1.525043    1.290322   -0.003847
    10   -0.762226   -1.147799   -0.000701
    11    7.780141   -9.874994    0.001123
    12  -26.951240   -1.259539   -0.005126
    13   43.403037    1.819107   -0.019505
----------------------------------------
   Tot   -1.050327    2.406841   -0.033523
----------------------------------------
   Max   47.927833
   Res   16.130030    sqrt( Sum f_i^2 / 3N )
----------------------------------------
   Max   47.927833    constrained

Stress tensor Voigt[x,y,z,yz,xz,xy] (kbar):     -146.79     -144.56       -0.15       -0.02       -0.02      -11.01
(Free)E + p*V (eV/cell)    -1569.4351
Target enthalpy (eV/cell)    -1697.8985

siesta: Stress tensor (static) (eV/Ang**3):
        -0.091597   -0.006880   -0.000008
        -0.006880   -0.090194   -0.000010
        -0.000008   -0.000010   -0.000086

siesta: Pressure (static):         97.13439808  kBar

siesta: Stress tensor (total) (eV/Ang**3):
        -0.091616   -0.006870   -0.000015
        -0.006870   -0.090226   -0.000011
        -0.000015   -0.000011   -0.000093

siesta: Pressure (total):         97.16483793  kBar

siesta: Temp_ion =     942.996 K

                     ====================================
                        Begin MD quenched step =      3
                     ====================================

outcoor: Atomic coordinates (Ang):                          
    0.79361230    3.35903390    0.00260613   1       1  H
    0.17052131    2.51923990    0.00000074   2       2  N
   -1.24898078    2.60350068   -0.00000003   3       3  Si
   -1.68369556    3.69977921    0.00000094   1       4  H
   -2.03552100    1.45666045    0.00000014   3       5  Si
   -3.19450291    1.57326714   -0.00000149   1       6  H
   -1.40814801    0.15503333    0.00000076   3       7  Si
   -2.14436993   -1.08451264   -0.00283038   2       8  N
   -1.59776651   -2.04785428   -0.00000912   1       9  H
   -3.18022798   -1.03084256   -0.00000166   1      10  H
    0.00342023   -0.00333412    0.00000019   2      11  N
    0.84947393    1.18416147   -0.00000044   3      12  Si
    2.07866197    1.15216510    0.00014339   4      13  O

outcell: Unit cell vectors (Ang):
       14.828907    0.000000    0.000000
        0.000000   14.495518    0.000000
        0.000000    0.000000    9.854683

outcell: Cell vector modules (Ang)   :   14.828907   14.495518    9.854683
outcell: Cell angles (23,13,12) (deg):     90.0000     90.0000     90.0000
outcell: Cell volume (Ang**3)        :   2118.2906
<dSpData1D:S at geom step 3
  <sparsity:sparsity for geom step 3
    nrows_g=129 nrows=5 sparsity=.0384 nnzs=639, refcount: 8>
  <dData1D:(new from dSpData1D) n=639, refcount: 1>
refcount: 1>
new_DM -- step:     3
Re-using DM from previous geometries...
Number of DMs in history: 2
  Estimated Rank of xi*xj matrix:            2
 matrix rank:            3
Singular values: 
  1.4584      1.3716     0.26953E-02
 DM extrapolation coefficients: 
1  -2.26900
2   3.26900
New DM after history re-use:
<dSpData2D:SpM extrapolated using coords
  <sparsity:sparsity for geom step 3
    nrows_g=129 nrows=5 sparsity=.0384 nnzs=639, refcount: 11>
  <dData2D:(temp array for extrapolation) n=639 m=8, refcount: 1>
refcount: 1>
     spin moment: S , {S} =    0.00000   0.00000  -0.00000   0.00000
No. of atoms with KB's overlaping orbs in proc 0. Max # of overlaps:      11     125
New grid distribution:   1
           1       1:   90    1:   21    1:    8
           2       1:   90    1:   21    9:   16
           3       1:   90    1:   21   17:   24
           4       1:   90    1:   21   25:   32
           5       1:   90    1:   21   33:   39
           6       1:   90    1:   21   40:   46
           7       1:   90    1:   21   47:   53
           8       1:   90    1:   21   54:   60
           9       1:   90   22:   41    1:    8
          10       1:   90   22:   41    9:   16
          11       1:   90   22:   41   17:   24
          12       1:   90   22:   41   25:   32
          13       1:   90   22:   41   33:   39
          14       1:   90   22:   41   40:   46
          15       1:   90   22:   41   47:   53
          16       1:   90   22:   41   54:   60
          17       1:   90   42:   61    1:    8
          18       1:   90   42:   61    9:   16
          19       1:   90   42:   61   17:   24
          20       1:   90   42:   61   25:   32
          21       1:   90   42:   61   33:   39
          22       1:   90   42:   61   40:   46
          23       1:   90   42:   61   47:   53
          24       1:   90   42:   61   54:   60
          25       1:   90   62:   81    1:    8
          26       1:   90   62:   81    9:   16
          27       1:   90   62:   81   17:   24
          28       1:   90   62:   81   25:   32
          29       1:   90   62:   81   33:   39
          30       1:   90   62:   81   40:   46
          31       1:   90   62:   81   47:   53
          32       1:   90   62:   81   54:   60

InitMesh: MESH =   180 x   162 x   120 =     3499200
InitMesh: (bp) =    90 x    81 x    60 =      437400
InitMesh: Mesh cutoff (required, used) =   340.000   345.195 Ry
ExtMesh (bp) on 0 =   202 x   125 x   120 =     3030000
New grid distribution:   2
           1      12:   74    1:    7    1:   21
           2       1:   11   15:   28    1:   20
           3      75:   83    8:   16    1:   23
           4      12:   74    1:    7   22:   60
           5      12:   74    8:   14   22:   60
           6      12:   74    8:   14    1:   21
           7       1:   11    1:    7   22:   60
           8      84:   90    1:    7   24:   60
           9      75:   82   17:   71    1:   20
          10       1:   11    8:   14   22:   60
          11       1:   11    8:   14    1:   21
          12      12:   74   15:   67   21:   60
          13      75:   82   17:   70   21:   60
          14      83:   90   17:   69    1:   20
          15      75:   83    8:   16   24:   60
          16       1:   11    1:    7    1:   21
          17      12:   74   15:   68    1:   20
          18       1:   11   29:   81    1:   20
          19      84:   90    8:   16   24:   60
          20      84:   90    8:   16    1:   23
          21       1:   11   29:   81   21:   60
          22       1:   11   15:   28   21:   60
          23      75:   83    1:    7   24:   60
          24      75:   83    1:    7    1:   23
          25      12:   74   69:   81    1:   20
          26      83:   90   70:   81    1:   20
          27      75:   82   72:   81    1:   20
          28      12:   74   68:   81   21:   60
          29      83:   90   17:   69   21:   60
          30      83:   90   70:   81   21:   60
          31      75:   82   71:   81   21:   60
          32      84:   90    1:    7    1:   23
New grid distribution:   3
           1      19:   64   11:   21    1:   26
           2      79:   90   66:   81   26:   60
           3      65:   77   14:   28    1:   27
           4      18:   64    1:   10   27:   60
           5      18:   64   11:   21   27:   60
           6      19:   64    1:   10    1:   26
           7       1:   17   11:   21   27:   60
           8       1:   18   11:   21    1:   26
           9       1:   14   22:   63    1:   23
          10      65:   78    1:   13   28:   60
          11      79:   90   65:   81    1:   25
          12      14:   64   22:   71   24:   60
          13       1:   13   22:   64   24:   60
          14      79:   90   29:   64    1:   25
          15       1:   17    1:   10   27:   60
          16      78:   90   15:   28    1:   27
          17      15:   64   22:   71    1:   23
          18      65:   78   29:   66    1:   25
          19      79:   90   15:   28   28:   60
          20      78:   90    1:   14    1:   27
          21      65:   78   29:   67   26:   60
          22      65:   78   14:   28   28:   60
          23      79:   90    1:   14   28:   60
          24       1:   18    1:   10    1:   26
          25      15:   64   72:   81    1:   23
          26       1:   14   64:   81    1:   23
          27      65:   78   67:   81    1:   25
          28      14:   64   72:   81   24:   60
          29      79:   90   29:   65   26:   60
          30       1:   13   65:   81   24:   60
          31      65:   78   68:   81   26:   60
          32      65:   77    1:   13    1:   27
Setting up quadratic distribution...
ExtMesh (bp) on 0 =   175 x   111 x   133 =     2583525
PhiOnMesh: Number of (b)points on node 0 =                 9261
PhiOnMesh: nlist on node 0 =               169489

        iscf     Eharris(eV)        E_KS(eV)     FreeEng(eV)     dDmax    Ef(eV) dHmax(eV)
   scf:    1    -1701.148544    -1701.184795    -1701.184795  0.013611 -3.944058  0.581939
     spin moment: S , {S} =    0.00000   0.00000  -0.00000  -0.00000
   scf:    2    -1700.912236    -1701.111935    -1701.111935  0.024773 -5.538524  1.603016
     spin moment: S , {S} =    0.00000   0.00000   0.00000  -0.00000
   scf:    3    -1701.227576    -1701.201052    -1701.201052  0.018090 -5.383579  0.026509
     spin moment: S , {S} =    0.00000   0.00000  -0.00000  -0.00000
   scf:    4    -1701.201138    -1701.201105    -1701.201105  0.000395 -5.385298  0.013963
     spin moment: S , {S} =    0.00000   0.00000  -0.00000  -0.00000
   scf:    5    -1701.201121    -1701.201114    -1701.201114  0.000171 -5.385752  0.004338
     spin moment: S , {S} =    0.00000   0.00000  -0.00000  -0.00000
   scf:    6    -1701.201117    -1701.201115    -1701.201115  0.000073 -5.385548  0.001137
     spin moment: S , {S} =    0.00000   0.00000  -0.00000  -0.00000
   scf:    7    -1701.201116    -1701.201116    -1701.201116  0.000019 -5.385606  0.000353
     spin moment: S , {S} =    0.00000   0.00000   0.00000  -0.00000
   scf:    8    -1701.201116    -1701.201116    -1701.201116  0.000012 -5.385691  0.000112
     spin moment: S , {S} =    0.00000   0.00000   0.00000  -0.00000
   scf:    9    -1701.201116    -1701.201116    -1701.201116  0.000002 -5.385700  0.000073
     spin moment: S , {S} =    0.00000   0.00000   0.00000  -0.00000
   scf:   10    -1701.201116    -1701.201116    -1701.201116  0.000003 -5.385708  0.000026
     spin moment: S , {S} =    0.00000   0.00000  -0.00000  -0.00000
   scf:   11    -1701.201116    -1701.201116    -1701.201116  0.000000 -5.385708  0.000011
     spin moment: S , {S} =    0.00000   0.00000   0.00000  -0.00000
   scf:   12    -1701.201116    -1701.201116    -1701.201116  0.000000 -5.385706  0.000003
     spin moment: S , {S} =    0.00000   0.00000   0.00000  -0.00000
   scf:   13    -1701.201116    -1701.201116    -1701.201116  0.000000 -5.385706  0.000002
     spin moment: S , {S} =    0.00000   0.00000   0.00000  -0.00000
   scf:   14    -1701.201116    -1701.201116    -1701.201116  0.000000 -5.385706  0.000001
     spin moment: S , {S} =    0.00000   0.00000   0.00000  -0.00000

SCF Convergence by DM+H criterion
max |DM_out - DM_in|         :     0.0000000428
max |H_out - H_in|      (eV) :     0.0000006323
SCF cycle converged after 14 iterations

Using DM_out to compute the final energy and forces
No. of atoms with KB's overlaping orbs in proc 0. Max # of overlaps:      11     125

siesta: E_KS(eV) =            -1701.2011
     spin moment: S , {S} =    0.00000   0.00000   0.00000  -0.00000

siesta: Atomic forces (eV/Ang):
     1    0.518766    0.158899   -0.005606
     2   11.869584   10.592263    0.004182
     3   21.804805   43.902176   -0.000036
     4   -3.677491   10.602065    0.000159
     5  -50.596589   -4.446351    0.003433
     6  -11.935265    1.545137   -0.000672
     7   15.788512  -35.843941    0.017481
     8   -6.872614  -14.787786   -0.018617
     9   -1.446648    1.036013   -0.007134
    10   -0.759637   -1.146936   -0.001296
    11    7.710174  -10.029718    0.002888
    12  -23.292865   -1.232341   -0.004360
    13   39.340665    2.066530   -0.022059
----------------------------------------
   Tot   -1.548602    2.416009   -0.031638
----------------------------------------
   Max   50.596589
   Res   15.663032    sqrt( Sum f_i^2 / 3N )
----------------------------------------
   Max   50.596589    constrained

Stress tensor Voigt[x,y,z,yz,xz,xy] (kbar):     -141.16     -140.34       -0.14       -0.06       -0.04      -11.58
(Free)E + p*V (eV/cell)    -1577.0806
Target enthalpy (eV/cell)    -1701.2011

siesta: Stress tensor (static) (eV/Ang**3):
        -0.087266   -0.007339   -0.000013
        -0.007339   -0.087065   -0.000020
        -0.000013   -0.000020   -0.000083

siesta: Pressure (static):         93.14779204  kBar

siesta: Stress tensor (total) (eV/Ang**3):
        -0.088103   -0.007229   -0.000022
        -0.007229   -0.087592   -0.000036
        -0.000022   -0.000036   -0.000088

siesta: Pressure (total):         93.87999814  kBar

siesta: Temp_ion =    3034.691 K

                     ====================================
                        Begin MD quenched step =      4
                     ====================================

outcoor: Atomic coordinates (Ang):                          
    0.80144961    3.35960589    0.00258648   1       1  H
    0.17561923    2.52420025    0.00000219   2       2  N
   -1.24362161    2.61261403   -0.00000006   3       3  Si
   -1.71235635    3.78149613    0.00000225   1       4  H
   -2.04663602    1.45556835    0.00000057   3       5  Si
   -3.28764494    1.58832514   -0.00000458   1       6  H
   -1.40450737    0.14724293    0.00000301   3       7  Si
   -2.14855427   -1.09241638   -0.00424997   2       8  N
   -1.60664781   -2.04069177   -0.00003516   1       9  H
   -3.18470174   -1.03764153   -0.00000640   1      10  H
    0.00711520   -0.00757356    0.00000088   2      11  N
    0.84398627    1.18318845   -0.00000125   3      12  Si
    2.09441829    1.15301708    0.00013863   4      13  O

outcell: Unit cell vectors (Ang):
       14.828907    0.000000    0.000000
        0.000000   14.495518    0.000000
        0.000000    0.000000    9.854683

outcell: Cell vector modules (Ang)   :   14.828907   14.495518    9.854683
outcell: Cell angles (23,13,12) (deg):     90.0000     90.0000     90.0000
outcell: Cell volume (Ang**3)        :   2118.2906
<dSpData1D:S at geom step 4
  <sparsity:sparsity for geom step 4
    nrows_g=129 nrows=5 sparsity=.0384 nnzs=639, refcount: 8>
  <dData1D:(new from dSpData1D) n=639, refcount: 1>
refcount: 1>
new_DM -- step:     4
Re-using DM from previous geometries...
Number of DMs in history: 3
  Estimated Rank of xi*xj matrix:            3
 matrix rank:            4
Singular values: 
  1.9767      1.5248     0.31363E-01 0.11766E-03
 DM extrapolation coefficients: 
1   0.13859
2  -1.63889
3   2.50030
New DM after history re-use:
<dSpData2D:SpM extrapolated using coords
  <sparsity:sparsity for geom step 4
    nrows_g=129 nrows=5 sparsity=.0384 nnzs=639, refcount: 12>
  <dData2D:(temp array for extrapolation) n=639 m=8, refcount: 1>
refcount: 1>
     spin moment: S , {S} =    0.00000   0.00000  -0.00000  -0.00000
Note: For starting DM, Qtot, Tr[D*S] =         42.00000000         41.91838649
No. of atoms with KB's overlaping orbs in proc 0. Max # of overlaps:      11     125
New grid distribution:   1
           1       1:   90    1:   21    1:    8
           2       1:   90    1:   21    9:   16
           3       1:   90    1:   21   17:   24
           4       1:   90    1:   21   25:   32
           5       1:   90    1:   21   33:   39
           6       1:   90    1:   21   40:   46
           7       1:   90    1:   21   47:   53
           8       1:   90    1:   21   54:   60
           9       1:   90   22:   41    1:    8
          10       1:   90   22:   41    9:   16
          11       1:   90   22:   41   17:   24
          12       1:   90   22:   41   25:   32
          13       1:   90   22:   41   33:   39
          14       1:   90   22:   41   40:   46
          15       1:   90   22:   41   47:   53
          16       1:   90   22:   41   54:   60
          17       1:   90   42:   61    1:    8
          18       1:   90   42:   61    9:   16
          19       1:   90   42:   61   17:   24
          20       1:   90   42:   61   25:   32
          21       1:   90   42:   61   33:   39
          22       1:   90   42:   61   40:   46
          23       1:   90   42:   61   47:   53
          24       1:   90   42:   61   54:   60
          25       1:   90   62:   81    1:    8
          26       1:   90   62:   81    9:   16
          27       1:   90   62:   81   17:   24
          28       1:   90   62:   81   25:   32
          29       1:   90   62:   81   33:   39
          30       1:   90   62:   81   40:   46
          31       1:   90   62:   81   47:   53
          32       1:   90   62:   81   54:   60

InitMesh: MESH =   180 x   162 x   120 =     3499200
InitMesh: (bp) =    90 x    81 x    60 =      437400
InitMesh: Mesh cutoff (required, used) =   340.000   345.195 Ry
ExtMesh (bp) on 0 =   202 x   125 x   120 =     3030000
New grid distribution:   2
           1      11:   73   68:   81    1:   20
           2      11:   73    1:    7    1:   21
           3      74:   82    8:   16    1:   23
           4      74:   82    8:   16   24:   60
           5      11:   73    8:   14   22:   60
           6      11:   73    8:   14    1:   21
           7       1:   10    1:    7   22:   60
           8      74:   82   72:   81    1:   20
           9      74:   82   17:   71    1:   20
          10       1:   10   15:   28    1:   20
          11      83:   90    8:   16    1:   23
          12      11:   73   15:   67   21:   60
          13      74:   82   17:   71   21:   60
          14      83:   90   17:   69    1:   20
          15       1:   10    8:   14   22:   60
          16       1:   10    8:   14    1:   21
          17      11:   73   15:   67    1:   20
          18      83:   90    8:   16   24:   60
          19       1:   10    1:    7    1:   21
          20      83:   90   17:   69   21:   60
          21       1:   10   29:   81   21:   60
          22       1:   10   15:   28   21:   60
          23      74:   82    1:    7   24:   60
          24      74:   82    1:    7    1:   23
          25       1:   10   29:   81    1:   20
          26      83:   90    1:    7   24:   60
          27      83:   90   70:   81    1:   20
          28      11:   73   68:   81   21:   60
          29      11:   73    1:    7   22:   60
          30      83:   90   70:   81   21:   60
          31      74:   82   72:   81   21:   60
          32      83:   90    1:    7    1:   23
New grid distribution:   3
           1      19:   64   11:   21    1:   26
           2       1:   17   11:   21   27:   60
           3      78:   90   15:   29    1:   27
           4      18:   64    1:   10   27:   60
           5      18:   64   11:   21   27:   60
           6      19:   64    1:   10    1:   26
           7      65:   78    1:   14   28:   60
           8       1:   18   11:   21    1:   26
           9       1:   14   22:   63    1:   23
          10      79:   90   67:   81   26:   60
          11      65:   77   15:   29    1:   27
          12      14:   64   22:   71   24:   60
          13       1:   13   22:   64   24:   60
          14      79:   90   30:   65    1:   25
          15      79:   90   15:   29   28:   60
          16      78:   90    1:   14    1:   27
          17      15:   64   22:   71    1:   23
          18      65:   78   30:   67    1:   25
          19       1:   17    1:   10   27:   60
          20      65:   77    1:   14    1:   27
          21      65:   78   30:   67   26:   60
          22      65:   78   15:   29   28:   60
          23      79:   90    1:   14   28:   60
          24      79:   90   66:   81    1:   25
          25      15:   64   72:   81    1:   23
          26       1:   14   64:   81    1:   23
          27      65:   78   68:   81    1:   25
          28      14:   64   72:   81   24:   60
          29      79:   90   30:   66   26:   60
          30       1:   13   65:   81   24:   60
          31      65:   78   68:   81   26:   60
          32       1:   18    1:   10    1:   26
Setting up quadratic distribution...
ExtMesh (bp) on 0 =   175 x   118 x   132 =     2725800
PhiOnMesh: Number of (b)points on node 0 =                17640
PhiOnMesh: nlist on node 0 =               207502

        iscf     Eharris(eV)        E_KS(eV)     FreeEng(eV)     dDmax    Ef(eV) dHmax(eV)
   scf:    1    -1704.861958    -1705.286267    -1705.286267  0.044191 -3.855338  1.287157
     spin moment: S , {S} =    0.00000   0.00000  -0.00000  -0.00000
   scf:    2    -1703.836641    -1704.906881    -1704.906881  0.057325 -3.043779  3.661455
     spin moment: S , {S} =    0.00000   0.00000  -0.00000   0.00000
   scf:    3    -1705.535125    -1705.382885    -1705.382885  0.041319 -4.024833  0.135855
     spin moment: S , {S} =    0.00000   0.00000  -0.00000  -0.00000
   scf:    4    -1705.383535    -1705.383413    -1705.383413  0.002140 -4.020453  0.057759
     spin moment: S , {S} =    0.00000   0.00000  -0.00000  -0.00000
   scf:    5    -1705.383543    -1705.383494    -1705.383494  0.000530 -4.022812  0.023189
     spin moment: S , {S} =    0.00000   0.00000  -0.00000  -0.00000
   scf:    6    -1705.383522    -1705.383509    -1705.383509  0.000411 -4.022449  0.005577
     spin moment: S , {S} =    0.00000   0.00000  -0.00000  -0.00000
   scf:    7    -1705.383513    -1705.383511    -1705.383511  0.000139 -4.022669  0.001698
     spin moment: S , {S} =    0.00000   0.00000  -0.00000  -0.00000
   scf:    8    -1705.383512    -1705.383512    -1705.383512  0.000049 -4.022961  0.000331
     spin moment: S , {S} =    0.00000   0.00000  -0.00000  -0.00000
   scf:    9    -1705.383512    -1705.383512    -1705.383512  0.000004 -4.023021  0.000173
     spin moment: S , {S} =    0.00000   0.00000  -0.00000  -0.00000
   scf:   10    -1705.383512    -1705.383512    -1705.383512  0.000005 -4.023063  0.000060
     spin moment: S , {S} =    0.00000   0.00000  -0.00000  -0.00000
   scf:   11    -1705.383512    -1705.383512    -1705.383512  0.000002 -4.023080  0.000010
     spin moment: S , {S} =    0.00000   0.00000  -0.00000  -0.00000
   scf:   12    -1705.383512    -1705.383512    -1705.383512  0.000001 -4.023079  0.000004
     spin moment: S , {S} =    0.00000   0.00000  -0.00000  -0.00000
   scf:   13    -1705.383512    -1705.383512    -1705.383512  0.000001 -4.023078  0.000002
     spin moment: S , {S} =    0.00000   0.00000  -0.00000  -0.00000
   scf:   14    -1705.383512    -1705.383512    -1705.383512  0.000000 -4.023078  0.000001
     spin moment: S , {S} =    0.00000   0.00000  -0.00000  -0.00000

SCF Convergence by DM+H criterion
max |DM_out - DM_in|         :     0.0000001747
max |H_out - H_in|      (eV) :     0.0000009781
SCF cycle converged after 14 iterations

Using DM_out to compute the final energy and forces
No. of atoms with KB's overlaping orbs in proc 0. Max # of overlaps:      11     125

siesta: E_KS(eV) =            -1705.3835
     spin moment: S , {S} =    0.00000   0.00000  -0.00000  -0.00000

siesta: Atomic forces (eV/Ang):
     1    0.581581    0.194320   -0.005868
     2   11.701229   10.494589    0.003906
     3   18.702102   44.581626    0.000286
     4   -2.286215    6.786660   -0.000082
     5  -52.463796   -3.032974    0.005175
     6   -7.552838    1.167063   -0.000664
     7   14.807159  -34.044508    0.025226
     8   -6.835473  -14.036272   -0.023882
     9   -1.296496    0.618420   -0.009221
    10   -0.724463   -1.143582   -0.001971
    11    7.570127  -10.180823    0.004555
    12  -18.052036   -1.203108   -0.003376
    13   35.183104    2.432847   -0.026166
----------------------------------------
   Tot   -0.666014    2.634259   -0.032083
----------------------------------------
   Max   52.463796
   Res   15.033323    sqrt( Sum f_i^2 / 3N )
----------------------------------------
   Max   52.463796    constrained

Stress tensor Voigt[x,y,z,yz,xz,xy] (kbar):     -135.03     -135.44       -0.15       -0.09       -0.05      -11.96
(Free)E + p*V (eV/cell)    -1586.1217
Target enthalpy (eV/cell)    -1705.3835

siesta: Stress tensor (static) (eV/Ang**3):
        -0.081577   -0.007755   -0.000017
        -0.007755   -0.082828   -0.000029
        -0.000017   -0.000029   -0.000086

siesta: Pressure (static):         87.84870487  kBar

[...]
SCF cycle converged after 10 iterations

Using DM_out to compute the final energy and forces
No. of atoms with KB's overlaping orbs in proc 0. Max # of overlaps:       9     125

siesta: E_KS(eV) =            -1750.3756
     spin moment: S , {S} =    0.00000  -0.00000  -0.00000   0.00000

siesta: Atomic forces (eV/Ang):
     1   -0.012809   -0.014467   -0.000978
     2   -0.025096   -0.067710    0.009771
     3   -0.239985    0.003581   -0.013338
     4   -0.000922    0.003467   -0.000066
     5   -0.048430   -0.028663    0.076637
     6    0.001064   -0.000279   -0.000962
     7   -0.038185   -0.037069   -0.004234
     8   -0.038379   -0.034017   -0.006083
     9   -0.000186    0.007318   -0.000101
    10    0.004726   -0.010212   -0.000692
    11   -0.124588    0.019439   -0.000583
    12   -0.035622   -0.017334    0.002782
    13   -0.000210    0.000668   -0.000457
----------------------------------------
   Tot   -0.558622   -0.175277    0.061697
----------------------------------------
   Max    0.239985
   Res    0.049536    sqrt( Sum f_i^2 / 3N )
----------------------------------------
   Max    0.239985    constrained

Stress tensor Voigt[x,y,z,yz,xz,xy] (kbar):       -2.08       -0.30       -0.16        0.00       -0.00        0.08
(Free)E + p*V (eV/cell)    -1749.2543
Target enthalpy (eV/cell)    -1750.3756

siesta: Stress tensor (static) (eV/Ang**3):
        -0.001297    0.000048   -0.000001
         0.000048   -0.000188    0.000001
        -0.000001    0.000001   -0.000098

siesta: Pressure (static):          0.84495464  kBar

siesta: Stress tensor (total) (eV/Ang**3):
        -0.001300    0.000047   -0.000001
         0.000047   -0.000189    0.000001
        -0.000001    0.000001   -0.000099

siesta: Pressure (total):          0.84810610  kBar

siesta: Temp_ion =       4.212 K

                     ====================================
                        Begin MD quenched step =    300
                     ====================================

outcoor: Atomic coordinates (Ang):                          
    1.07734600    3.50223892    0.00064292   1       1  H
    0.31947192    2.76322186    0.00530383   2       2  N
   -1.36896550    3.24829211   -0.01294099   3       3  Si
   -1.56514225    4.74213492   -0.00005062   1       4  H
   -2.88975231    1.67218581    0.04833514   3       5  Si
   -4.36828301    1.88013893   -0.00067695   1       6  H
   -1.68253237   -0.22232552   -0.00432998   3       7  Si
   -2.45591714   -1.79122426   -0.00626999   2       8  N
   -1.89470358   -2.68365996   -0.00004633   1       9  H
   -3.49890006   -1.92599771   -0.00332588   1      10  H
    0.00802617   -0.25713341    0.00300205   2      11  N
    1.06209498    1.09794507    0.00054554   3      12  Si
    2.63880718    1.16303814   -0.00000145   4      13  O

outcell: Unit cell vectors (Ang):
       14.828907    0.000000    0.000000
        0.000000   14.495518    0.000000
        0.000000    0.000000    9.854683

outcell: Cell vector modules (Ang)   :   14.828907   14.495518    9.854683
outcell: Cell angles (23,13,12) (deg):     90.0000     90.0000     90.0000
outcell: Cell volume (Ang**3)        :   2118.2906
<dSpData1D:S at geom step 300
  <sparsity:sparsity for geom step 300
    nrows_g=129 nrows=5 sparsity=.0380 nnzs=632, refcount: 8>
  <dData1D:(new from dSpData1D) n=632, refcount: 1>
refcount: 1>
new_DM -- step:   300
Re-using DM from previous geometries...
Number of DMs in history: 3
  Estimated Rank of xi*xj matrix:            3
 matrix rank:            3
Singular values: 
  1.7321      1.7320     0.18645E-04 0.74581E-06
 DM extrapolation coefficients: 
1  -0.61637
2   0.41177
3   1.20460
New DM after history re-use:
<dSpData2D:SpM extrapolated using coords
  <sparsity:sparsity for geom step 300
    nrows_g=129 nrows=5 sparsity=.0380 nnzs=632, refcount: 12>
  <dData2D:(temp array for extrapolation) n=632 m=8, refcount: 1>
refcount: 1>
     spin moment: S , {S} =    0.00000  -0.00000  -0.00000   0.00000
No. of atoms with KB's overlaping orbs in proc 0. Max # of overlaps:       9     125
New grid distribution:   1
           1       1:   90    1:   21    1:    8
           2       1:   90    1:   21    9:   16
           3       1:   90    1:   21   17:   24
           4       1:   90    1:   21   25:   32
           5       1:   90    1:   21   33:   39
           6       1:   90    1:   21   40:   46
           7       1:   90    1:   21   47:   53
           8       1:   90    1:   21   54:   60
           9       1:   90   22:   41    1:    8
          10       1:   90   22:   41    9:   16
          11       1:   90   22:   41   17:   24
          12       1:   90   22:   41   25:   32
          13       1:   90   22:   41   33:   39
          14       1:   90   22:   41   40:   46
          15       1:   90   22:   41   47:   53
          16       1:   90   22:   41   54:   60
          17       1:   90   42:   61    1:    8
          18       1:   90   42:   61    9:   16
          19       1:   90   42:   61   17:   24
          20       1:   90   42:   61   25:   32
          21       1:   90   42:   61   33:   39
          22       1:   90   42:   61   40:   46
          23       1:   90   42:   61   47:   53
          24       1:   90   42:   61   54:   60
          25       1:   90   62:   81    1:    8
          26       1:   90   62:   81    9:   16
          27       1:   90   62:   81   17:   24
          28       1:   90   62:   81   25:   32
          29       1:   90   62:   81   33:   39
          30       1:   90   62:   81   40:   46
          31       1:   90   62:   81   47:   53
          32       1:   90   62:   81   54:   60

InitMesh: MESH =   180 x   162 x   120 =     3499200
InitMesh: (bp) =    90 x    81 x    60 =      437400
InitMesh: Mesh cutoff (required, used) =   340.000   345.195 Ry
ExtMesh (bp) on 0 =   202 x   125 x   120 =     3030000
New grid distribution:   2
           1      11:   72    1:    8    1:   20
           2      73:   82    9:   18    1:   22
           3       1:   11    9:   16   21:   60
           4      12:   72    1:    8   21:   60
           5      12:   72    9:   16   21:   60
           6      11:   72    9:   16    1:   20
           7      73:   82    9:   18   23:   60
           8      73:   81   71:   81    1:   20
           9      73:   81   19:   70    1:   20
          10       1:   14   17:   31    1:   20
          11      73:   82    1:    8    1:   22
          12      15:   72   17:   67   21:   60
          13      73:   81   19:   70   21:   60
          14      82:   90   19:   69    1:   20
          15       1:   11    1:    8   21:   60
          16       1:   10    9:   16    1:   20
          17      15:   72   17:   67    1:   20
          18       1:   14   32:   81    1:   20
          19      73:   82    1:    8   23:   60
          20       1:   10    1:    8    1:   20
          21       1:   14   32:   81   21:   60
          22       1:   14   17:   31   21:   60
          23      83:   90   10:   18   23:   60
          24      83:   90   10:   18    1:   22
          25      15:   72   68:   81    1:   20
          26      83:   90    1:    9   23:   60
          27      82:   90   70:   81    1:   20
          28      15:   72   68:   81   21:   60
          29      82:   90   19:   69   21:   60
          30      82:   90   70:   81   21:   60
          31      73:   81   71:   81   21:   60
          32      83:   90    1:    9    1:   22
New grid distribution:   3
           1      22:   62   11:   22    1:   26
           2      77:   90    1:   16   28:   60
           3      77:   90   17:   32    1:   27
           4      21:   62    1:   10   27:   60
           5      21:   62   11:   22   27:   60
           6      22:   62    1:   10    1:   26
           7       1:   20   11:   22   27:   60
           8      77:   90    1:   16    1:   27
           9      16:   62   23:   69    1:   23
          10      63:   77   33:   65    1:   25
          11      63:   76   16:   32    1:   27
          12      77:   90   17:   32   28:   60
          13      63:   77   33:   65   26:   60
          14      78:   90   33:   62    1:   25
          15      63:   76   16:   32   28:   60
          16       1:   21   12:   22    1:   26
          17       1:   15   23:   62    1:   23
          18      63:   76    1:   15   28:   60
          19       1:   21    1:   11    1:   26
          20      16:   62   23:   69   24:   60
          21       1:   15   23:   64   24:   60
          22      63:   77   66:   81   26:   60
          23       1:   20    1:   10   27:   60
          24      63:   77   66:   81    1:   25
          25      16:   62   70:   81    1:   23
          26       1:   15   63:   81    1:   23
          27      78:   90   63:   81    1:   25
          28      16:   62   70:   81   24:   60
          29      78:   90   33:   63   26:   60
          30       1:   15   65:   81   24:   60
          31      78:   90   64:   81   26:   60
          32      63:   76    1:   15    1:   27
Setting up quadratic distribution...
ExtMesh (bp) on 0 =   174 x   112 x   132 =     2572416
PhiOnMesh: Number of (b)points on node 0 =                 9920
PhiOnMesh: nlist on node 0 =               181939

        iscf     Eharris(eV)        E_KS(eV)     FreeEng(eV)     dDmax    Ef(eV) dHmax(eV)
   scf:    1    -1750.377668    -1750.375797    -1750.375797  0.000349 -4.396124  0.013080
     spin moment: S , {S} =    0.00000  -0.00000  -0.00000   0.00000
   scf:    2    -1750.375684    -1750.375765    -1750.375765  0.000706 -4.395033  0.030732
     spin moment: S , {S} =    0.00000  -0.00000  -0.00000   0.00000
   scf:    3    -1750.375809    -1750.375801    -1750.375801  0.000528 -4.395807  0.002773
     spin moment: S , {S} =    0.00000  -0.00000  -0.00000   0.00000
   scf:    4    -1750.375801    -1750.375801    -1750.375801  0.000019 -4.395789  0.000635
     spin moment: S , {S} =    0.00000  -0.00000  -0.00000   0.00000
   scf:    5    -1750.375801    -1750.375801    -1750.375801  0.000004 -4.395775  0.000118
     spin moment: S , {S} =    0.00000  -0.00000  -0.00000   0.00000
   scf:    6    -1750.375801    -1750.375801    -1750.375801  0.000002 -4.395778  0.000026
     spin moment: S , {S} =    0.00000  -0.00000  -0.00000   0.00000
   scf:    7    -1750.375801    -1750.375801    -1750.375801  0.000001 -4.395779  0.000015
     spin moment: S , {S} =    0.00000  -0.00000  -0.00000   0.00000
   scf:    8    -1750.375801    -1750.375801    -1750.375801  0.000000 -4.395780  0.000008
     spin moment: S , {S} =    0.00000  -0.00000  -0.00000   0.00000
   scf:    9    -1750.375801    -1750.375801    -1750.375801  0.000000 -4.395780  0.000002
     spin moment: S , {S} =    0.00000  -0.00000  -0.00000   0.00000
   scf:   10    -1750.375801    -1750.375801    -1750.375801  0.000000 -4.395781  0.000001
     spin moment: S , {S} =    0.00000  -0.00000  -0.00000   0.00000

SCF Convergence by DM+H criterion
max |DM_out - DM_in|         :     0.0000000951
max |H_out - H_in|      (eV) :     0.0000007343
SCF cycle converged after 10 iterations

Using DM_out to compute the final energy and forces
No. of atoms with KB's overlaping orbs in proc 0. Max # of overlaps:       9     125

siesta: E_KS(eV) =            -1750.3758
     spin moment: S , {S} =    0.00000  -0.00000  -0.00000   0.00000

siesta: Atomic forces (eV/Ang):
     1   -0.030218   -0.029418   -0.000706
     2    0.006874   -0.050988    0.007181
     3   -0.248043    0.004196   -0.013388
     4   -0.000923    0.002685   -0.000142
     5   -0.052617   -0.024161    0.077562
     6    0.001113    0.000113   -0.000843
     7   -0.037180   -0.037907   -0.004577
     8   -0.033929   -0.040523   -0.006518
     9    0.000815    0.005541   -0.000097
    10    0.000134   -0.009419   -0.000691
    11   -0.121683    0.021299   -0.000857
    12   -0.037681   -0.019765    0.002970
    13    0.000160    0.001309   -0.000434
----------------------------------------
   Tot   -0.553177   -0.177038    0.059459
----------------------------------------
   Max    0.248043
   Res    0.050245    sqrt( Sum f_i^2 / 3N )
----------------------------------------
   Max    0.248043    constrained

Stress tensor Voigt[x,y,z,yz,xz,xy] (kbar):       -2.08       -0.30       -0.16        0.00       -0.00        0.09
(Free)E + p*V (eV/cell)    -1749.2562
Target enthalpy (eV/cell)    -1750.3758

siesta: Stress tensor (static) (eV/Ang**3):
        -0.001296    0.000058   -0.000001
         0.000058   -0.000185    0.000000
        -0.000001    0.000000   -0.000098

siesta: Pressure (static):          0.84358209  kBar

siesta: Stress tensor (total) (eV/Ang**3):
        -0.001300    0.000058   -0.000000
         0.000058   -0.000186    0.000001
        -0.000000    0.000001   -0.000100

siesta: Pressure (total):          0.84685242  kBar

siesta: Temp_ion =       3.280 K

outcoor: Final (unrelaxed) atomic coordinates (Ang):        
    1.07734600    3.50223892    0.00064292   1       1  H
    0.31947192    2.76322186    0.00530383   2       2  N
   -1.36896550    3.24829211   -0.01294099   3       3  Si
   -1.56514225    4.74213492   -0.00005062   1       4  H
   -2.88975231    1.67218581    0.04833514   3       5  Si
   -4.36828301    1.88013893   -0.00067695   1       6  H
   -1.68253237   -0.22232552   -0.00432998   3       7  Si
   -2.45591714   -1.79122426   -0.00626999   2       8  N
   -1.89470358   -2.68365996   -0.00004633   1       9  H
   -3.49890006   -1.92599771   -0.00332588   1      10  H
    0.00802617   -0.25713341    0.00300205   2      11  N
    1.06209498    1.09794507    0.00054554   3      12  Si
    2.63880718    1.16303814   -0.00000145   4      13  O

siesta: Eigenvalues (eV):
ik =     1
  -21.9817  -21.9817  -21.5742  -21.5742  -21.0644  -21.0644  -19.5296  -19.5296  -14.7127  -14.7127
  -13.3210  -13.3210  -12.8217  -12.8217  -12.4115  -12.4115  -11.9567  -11.9567  -10.7833  -10.7833
  -10.0849  -10.0849   -9.5205   -9.5205   -8.6297   -8.6297   -8.4106   -8.4106   -7.7419   -7.7419
   -7.5962   -7.5962   -6.7893   -6.7893   -6.5841   -6.5841   -6.1542   -6.1542   -5.8223   -5.8223
   -5.4072   -5.4072   -3.1959   -3.1959   -2.2120   -2.2120   -1.7575   -1.7575   -1.7272   -1.7272
   -1.5133   -1.5133   -0.9530   -0.9530   -0.1788   -0.1788    0.2333    0.2333    0.7789    0.7789
    1.1691    1.1691    1.4092    1.4092    1.4903    1.4903    1.9128    1.9128    2.1458    2.1458
    2.9335    2.9335    3.0564    3.0564    3.4276    3.4276    4.1534    4.1534    4.5419    4.5419
    4.5678    4.5678    4.6944    4.6944    4.8884    4.8884    5.6441    5.6441    5.8260    5.8260
    5.9427    5.9427    6.2750    6.2750    6.6136    6.6136    6.8662    6.8662    7.1382    7.1382
    7.8203    7.8203    8.0736    8.0736    8.1687    8.1687    8.3060    8.3060    9.0859    9.0859
    9.2838    9.2838    9.7764    9.7764    9.8907    9.8907   10.2601   10.2601   10.8693   10.8693
   11.1228   11.1228   11.8486   11.8486   11.9505   11.9505   12.7989   12.7989   12.8853   12.8853
   13.6251   13.6251   14.0851   14.0851   14.2922   14.2922   15.0947   15.0947   15.6078   15.6078
   16.7606   16.7606   17.4949   17.4949   17.9674   17.9674   19.4233   19.4233   20.3181   20.3181
   21.0843   21.0843   21.5923   21.5923   22.1638   22.1638   23.1896   23.1896   23.9582   23.9582
   24.6310   24.6310   26.4524   26.4524   28.8553   28.8553   29.3644   29.3644   30.1876   30.1876
   31.0351   31.0351   31.1477   31.1477   31.5233   31.5233   31.7193   31.7193   32.9457   32.9457
   34.6458   34.6458   35.0665   35.0665   35.2570   35.2570   36.1336   36.1336   37.1636   37.1636
   37.9795   37.9795   39.1110   39.1110   40.1578   40.1578   40.8617   40.8617   41.0237   41.0237
   42.3388   42.3388   43.6121   43.6121   44.0220   44.0220   44.2185   44.2185   44.9864   44.9864
   46.1872   46.1872   49.0541   49.0541   50.8029   50.8029   51.2516   51.2516   51.9843   51.9843
   52.9768   52.9768   55.3229   55.3229   55.5598   55.5598   55.6132   55.6132   56.6132   56.6132
   56.6687   56.6687   59.1328   59.1328   60.5247   60.5247   61.8681   61.8681   61.9782   61.9782
   66.4397   66.4397   69.5060   69.5060   79.3645   79.3645   91.9920   91.9920   99.4955   99.4955
  101.1945  101.1945  111.0335  111.0335  126.5106  126.5106  139.7742  139.7742
siesta: Fermi energy =      -4.395781 eV

siesta: Program's energy decomposition (eV):
siesta: Ebs     =      -485.795001
siesta: Eions   =      1544.210757
siesta: Ena     =       161.789459
siesta: Ekin    =      1229.458157
siesta: Enl     =     -1144.121987
siesta: Eso     =        -0.001887
siesta: Edftu   =         0.000000
siesta: DEna    =        16.587091
siesta: DUscf   =         6.387662
siesta: DUext   =         0.000000
siesta: Exc     =      -476.263541
siesta: eta*DQ  =         0.000000
siesta: Emadel  =         0.000000
siesta: Emeta   =         0.000000
siesta: Emolmec =         0.000000
siesta: Ekinion =         0.005087
siesta: Eharris =     -1750.370714
siesta: Etot    =     -1750.370714
siesta: FreeEng =     -1750.370714

siesta: Final energy (eV):
siesta:  Band Struct. =    -485.795001
siesta:       Kinetic =    1229.458157
siesta:       Hartree =    2669.077094
siesta:       Edftu   =       0.000000
siesta:       Eso     =      -0.001887
siesta:    Ext. field =       0.000000
siesta:   Exch.-corr. =    -476.263541
siesta:  Ion-electron =   -6435.313864
siesta:       Ion-ion =    1262.668239
siesta:       Ekinion =       0.005087
siesta:         Total =   -1750.370714
siesta:         Fermi =      -4.395781

siesta: Atomic forces (eV/Ang):
siesta:      1   -0.030218   -0.029418   -0.000706
siesta:      2    0.006874   -0.050988    0.007181
siesta:      3   -0.248043    0.004196   -0.013388
siesta:      4   -0.000923    0.002685   -0.000142
siesta:      5   -0.052617   -0.024161    0.077562
siesta:      6    0.001113    0.000113   -0.000843
siesta:      7   -0.037180   -0.037907   -0.004577
siesta:      8   -0.033929   -0.040523   -0.006518
siesta:      9    0.000815    0.005541   -0.000097
siesta:     10    0.000134   -0.009419   -0.000691
siesta:     11   -0.121683    0.021299   -0.000857
siesta:     12   -0.037681   -0.019765    0.002970
siesta:     13    0.000160    0.001309   -0.000434
siesta: ----------------------------------------
siesta:    Tot   -0.553177   -0.177038    0.059459

siesta: Stress tensor (static) (eV/Ang**3):
siesta:    -0.001296    0.000058   -0.000001
siesta:     0.000058   -0.000185    0.000000
siesta:    -0.000001    0.000000   -0.000098

siesta: Cell volume =       2118.290604 Ang**3

siesta: Pressure (static):
siesta:                Solid            Molecule  Units
siesta:           0.00000573          0.00000587  Ry/Bohr**3
siesta:           0.00052652          0.00053856  eV/Ang**3
siesta:           0.84358209          0.86287891  kBar
(Free)E+ p_basis*V_orbitals  =       -1741.515059
(Free)Eharris+ p_basis*V_orbitals  =       -1741.515059
     spin moment: S , {S} =    0.00000  -0.00000  -0.00000   0.00000

siesta: Electric dipole (a.u.)  =   -3.072260    0.324537   -0.013861
siesta: Electric dipole (Debye) =   -7.808911    0.824892   -0.035231

cite: Please see "Cytosine.bib" for an exhaustive BiBTeX file.
cite: Please clearly indicate Siesta version in published work: v4.1.5-1-g384057250
cite: This calculation has made use of the following articles
cite: which are encouraged to be cited in a published work.
        Primary SIESTA paper
          DOI: www.doi.org/10.1088/0953-8984/14/11/302
        Spin-orbit coupling (on-site approximation)
          DOI: www.doi.org/10.1088/0953-8984/19/19/489001


WARNING: alloc-realloc-dealloc name mismatch
         Name: atomlist isa
         Size:               -52. Bytes
         Node:     0
         Subsequent mismatches will not be reported
>> End of run:  14-OCT-2023  14:16:09
Job completed
