Siesta Version  : v4.1.5-1-g384057250
Architecture    : gcc
Compiler version: GNU Fortran (Ubuntu 11.4.0-1ubuntu1~22.04) 11.4.0
Compiler flags  : mpifort -O2 -fPIC -ftree-vectorize -fallow-argument-mismatch
PP flags        : -DFC_HAVE_ABORT -DMPI -DSIESTA__FLOOK -DSIESTA__METIS -DSIESTA__MUMPS -DCDF -DNCDF -DNCDF_4 -DNCDF_PARALLEL -DSIESTA__MRRR -DSIESTA__ELPA
Libraries       : libncdf.a libfdict.a  -lflookall -ldl -lnetcdff -lnetcdf -lhdf5_hl -lhdf5 -lhdf5_fortran -lz -lscalapack-openmpi -lopenblas -lmetis -lzmumps -lcmumps -ldmumps -lmumps_common -lpord -lsmumps -lesmumps -lscotch -lscotcherr -fopenmp -lelpa
PARALLEL version
NetCDF support
NetCDF-4 support
NetCDF-4 MPI-IO support
METIS ordering support
Lua support

* Running on 8 nodes in parallel
>> Start of run:   1-FEB-2024  17:21:29

                           ***********************       
                           *  WELCOME TO SIESTA  *       
                           ***********************       

reinit: Reading from standard input
reinit: Dumped input in INPUT_TMP.80028
************************** Dump of input data file ****************************
# mpirun -np 4 siesta-4.1.5 < AT.fdf > AT.out &
SystemLabel      AT
NumberOfAtoms    30
NumberOfSpecies  4
%block ChemicalSpeciesLabel
    1    1  H
    2    7  N
    3   14  Si
    4    8  O
%endblock ChemicalSpeciesLabel
############################################
# This overrides Defaults.fdf configuration
############################################
MD.TypeOfRun                Verlet # CG, Verlet
MD.Steps                    0
MaxSCFIterations            200
SCF.MustConverge            F
AtomicCoordinatesFormat NotScaledCartesianAng
%block AtomicCoordinatesAndAtomicSpecies
    2.28494382 -5.19529124 0.0  1  1  H
    1.37433094 -4.6647107 0.0  2  2  N
    -0.21830245 -5.49458215 0.0  3  3  Si
    -0.17484108 -6.98516892 0.0  1  4  H
    -1.66171682 -4.58600741 0.0  2  5  N
    -1.09026419 -2.87456374 0.0  3  6  Si
    -1.53038332 -0.70765692 0.0  3  7  Si
    -3.14415959 -0.09186471 0.0  2  8  N
    -3.40268075 0.95848335 0.0  1  9  H
    -3.95073599 -0.76720972 0.0  1  10  H
    -0.17836637 0.41349951 0.0  2  11  N
    1.49520211 -0.0473996 0.0  3  12  Si
    2.45603905 1.10727302 0.0  1  13  H
    2.30451743 -1.58574382 0.0  2  14  N
    1.10725559 -2.84610319 0.0  3  15  Si
    0.7942149555789239 5.940356627079259 0.0  1  16  H
    -0.014495724421076134 5.248150747079258 0.0  2  17  N
    -1.671085564421076 5.961270847079259 0.0  3  18  Si
    -1.574220394421076 7.471996057079258 0.0  1  19  H
    -3.397241914421076 4.618222717079258 0.0  3  20  Si
    -5.751696164421077 4.610235787079258 0.0  3  21  Si
    -6.314114284421077 5.3447254370792585 -1.20183078  1  22  H
    -6.051509914421077 3.131144657079258 -0.08618332  1  23  H
    -6.3142267444210765 5.175068247079258 1.28814761  1  24  H
    -2.467851274421076 2.5476514870792584 0.0  3  25  Si
    -3.417319634421076 1.2591153570792581 0.0  4  26  O
    -0.6769064044210762 2.3739160170792584 0.0  2  27  N
    -0.3459150444210761 1.3415590370792585 0.0  1  28  H
    0.6315518155789238 3.568462437079258 0.0  3  29  Si
    2.197488745578924 3.3012155870792586 0.0  4  30  O
%endblock AtomicCoordinatesAndAtomicSpecies
#############
# Unit Cell
#############
LatticeConstant 1.0 Ang
%block LatticeVectors
    30.00000    0.000000    0.000000
    0.000000    45.00000    0.000000
    0.000000    0.000000    10.00000
%endblock LatticeVectors
%include ../../../../Defaults.fdf
************************** End of input data file *****************************

reinit: -----------------------------------------------------------------------
reinit: System Name: 
reinit: -----------------------------------------------------------------------
reinit: System Label: AT
reinit: -----------------------------------------------------------------------

initatom: Reading input for the pseudopotentials and atomic orbitals ----------
Species number:   1 Atomic number:    1 Label: H
Species number:   2 Atomic number:    7 Label: N
Species number:   3 Atomic number:   14 Label: Si
Species number:   4 Atomic number:    8 Label: O

Ground state valence configuration:   1s01
Reading pseudopotential information in formatted form from H.psf

Pseudopotential generated from a relativistic atomic calculation

Valence configuration for pseudopotential generation:
1s( 1.00) rc: 0.01
2p( 0.00) rc: 0.60
3d( 0.00) rc: 1.99
4f( 0.00) rc: 2.49
Ground state valence configuration:   2s02  2p03
Reading pseudopotential information in formatted form from N.psf

Pseudopotential generated from a relativistic atomic calculation

Valence configuration for pseudopotential generation:
2s( 2.00) rc: 0.94
2p( 3.00) rc: 0.59
3d( 0.00) rc: 3.46
4f( 0.00) rc: 2.47
Ground state valence configuration:   3s02  3p02
Reading pseudopotential information in formatted form from Si.psf

Pseudopotential generated from a relativistic atomic calculation

Valence configuration for pseudopotential generation:
3s( 2.00) rc: 1.67
3p( 2.00) rc: 2.04
3d( 0.00) rc: 2.89
4f( 0.00) rc: 2.49
Ground state valence configuration:   2s02  2p04
Reading pseudopotential information in formatted form from O.psf

Pseudopotential generated from a relativistic atomic calculation

Valence configuration for pseudopotential generation:
2s( 2.00) rc: 0.45
2p( 4.00) rc: 0.92
3d( 0.00) rc: 2.24
4f( 0.00) rc: 0.25
For H, standard SIESTA heuristics set lmxkb to 2
 (one more than the basis l, including polarization orbitals).
Use PS.lmax or PS.KBprojectors blocks to override.
For N, standard SIESTA heuristics set lmxkb to 3
 (one more than the basis l, including polarization orbitals).
Use PS.lmax or PS.KBprojectors blocks to override.
For Si, standard SIESTA heuristics set lmxkb to 3
 (one more than the basis l, including polarization orbitals).
Use PS.lmax or PS.KBprojectors blocks to override.
For O, standard SIESTA heuristics set lmxkb to 3
 (one more than the basis l, including polarization orbitals).
Use PS.lmax or PS.KBprojectors blocks to override.

<basis_specs>
===============================================================================
H                    Z=   1    Mass=  1.0100        Charge= 0.17977+309
Lmxo=0 Lmxkb= 2    BasisType=split      Semic=F
L=0  Nsemic=0  Cnfigmx=1
          i=1  nzeta=2  polorb=1  (1s)
            splnorm:   0.62000    
               vcte:    0.0000    
               rinn:    0.0000    
               qcoe:    0.0000    
               qyuk:    0.0000    
               qwid:   0.10000E-01
                rcs:    0.0000      0.0000    
            lambdas:    1.0000      1.0000    
-------------------------------------------------------------------------------
L=0  Nkbl=1  erefs: 0.17977+309
L=1  Nkbl=1  erefs: 0.17977+309
L=2  Nkbl=1  erefs: 0.17977+309
===============================================================================
</basis_specs>

atom: Called for H                     (Z =   1)

read_vps: Pseudopotential generation method:
read_vps: ATM4.2.7  Troullier-Martins                       
Valence charge for ps generation:    1.00000

xc_check: Exchange-correlation functional:
xc_check: GGA Perdew, Burke & Ernzerhof 1996
V l=0 = -2*Zval/r beyond r=  0.0098
V l=1 = -2*Zval/r beyond r=  0.5817
V l=2 = -2*Zval/r beyond r=  1.9372
All V_l potentials equal beyond r=  1.9372
This should be close to max(r_c) in ps generation
All pots = -2*Zval/r beyond r=  1.9372

VLOCAL1: 99.0% of the norm of Vloc inside     11.567 Ry
VLOCAL1: 99.9% of the norm of Vloc inside     26.362 Ry
atom: Maximum radius for 4*pi*r*r*local-pseudopot. charge    2.25106
atom: Maximum radius for r*vlocal+2*Zval:    1.91306
GHOST: No ghost state for L =  0
GHOST: No ghost state for L =  1
GHOST: No ghost state for L =  2

KBgen: Kleinman-Bylander projectors: 
   l= 0   rc=  2.036604   el= -0.477180   Ekb= -6.081590   kbcos= -0.277285
   l= 1   rc=  2.195416   el=  0.001076   Ekb= -0.926943   kbcos= -0.034643
   l= 2   rc=  2.251056   el=  0.002010   Ekb= -0.130941   kbcos= -0.009788

KBgen: Total number of Kleinman-Bylander projectors:    9
atom: -------------------------------------------------------------------------

atom: SANKEY-TYPE ORBITALS:
atom: Selected multiple-zeta basis: split     

SPLIT: Orbitals with angular momentum L= 0

SPLIT: Basis orbitals for state 1s

SPLIT: PAO cut-off radius determined from an
SPLIT: energy shift=  0.002000 Ry

   izeta = 1
                 lambda =    1.000000
                     rc =    6.518340
                 energy =   -0.475305
                kinetic =    0.912139
    potential(screened) =   -1.387444
       potential(ionic) =   -1.907295

   izeta = 2
                 rmatch =    2.141150
              splitnorm =    0.620000
                 energy =    0.566467
                kinetic =    3.772856
    potential(screened) =   -3.206389
       potential(ionic) =   -3.759093

POLgen: Perturbative polarization orbital with L=  1

POLgen: Polarization orbital for state 1s

   izeta = 1
                     rc =    6.518340
                 energy =    0.533861
                kinetic =    1.121086
    potential(screened) =   -0.587225
       potential(ionic) =   -1.053027
atom: Total number of Sankey-type orbitals:  5

atm_pop: Valence configuration (for local Pseudopot. screening):
 1s( 1.00)                                                            
Vna: chval, zval:    1.00000   1.00000

Vna:  Cut-off radius for the neutral-atom potential:   6.518340

atom: _________________________________________________________________________

<basis_specs>
===============================================================================
N                    Z=   7    Mass=  14.010        Charge= 0.17977+309
Lmxo=1 Lmxkb= 3    BasisType=split      Semic=F
L=0  Nsemic=0  Cnfigmx=2
          i=1  nzeta=2  polorb=0  (2s)
            splnorm:   0.28000    
               vcte:    0.0000    
               rinn:    0.0000    
               qcoe:    0.0000    
               qyuk:    0.0000    
               qwid:   0.10000E-01
                rcs:    0.0000      0.0000    
            lambdas:    1.0000      1.0000    
L=1  Nsemic=0  Cnfigmx=2
          i=1  nzeta=2  polorb=1  (2p)
            splnorm:   0.28000    
               vcte:    0.0000    
               rinn:    0.0000    
               qcoe:    0.0000    
               qyuk:    0.0000    
               qwid:   0.10000E-01
                rcs:    0.0000      0.0000    
            lambdas:    1.0000      1.0000    
-------------------------------------------------------------------------------
L=0  Nkbl=1  erefs: 0.17977+309
L=1  Nkbl=1  erefs: 0.17977+309
L=2  Nkbl=1  erefs: 0.17977+309
L=3  Nkbl=1  erefs: 0.17977+309
===============================================================================
</basis_specs>

atom: Called for N                     (Z =   7)

read_vps: Pseudopotential generation method:
read_vps: ATM4.2.7  Troullier-Martins                       
Valence charge for ps generation:    5.00000

xc_check: Exchange-correlation functional:
xc_check: GGA Perdew, Burke & Ernzerhof 1996
V l=0 = -2*Zval/r beyond r=  1.2889
V l=1 = -2*Zval/r beyond r=  1.2889
V l=2 = -2*Zval/r beyond r=  3.4178
V l=3 = -2*Zval/r beyond r=  2.4084
All V_l potentials equal beyond r=  3.3753
This should be close to max(r_c) in ps generation
All pots = -2*Zval/r beyond r=  3.4178

VLOCAL1: 99.0% of the norm of Vloc inside      3.810 Ry
VLOCAL1: 99.9% of the norm of Vloc inside      8.683 Ry
atom: Maximum radius for 4*pi*r*r*local-pseudopot. charge    4.02088
atom: Maximum radius for r*vlocal+2*Zval:    3.54838
GHOST: No ghost state for L =  0
GHOST: No ghost state for L =  1
GHOST: No ghost state for L =  2
GHOST: No ghost state for L =  3

KBgen: Kleinman-Bylander projectors: 
   l= 0   rc=  3.417763   el= -1.365098   Ekb= -4.433130   kbcos= -0.707855
   l= 1   rc=  3.375302   el= -0.521201   Ekb=-13.264039   kbcos= -0.535594
   l= 2   rc=  3.872880   el=  0.001991   Ekb= -0.641094   kbcos= -0.062456
   l= 3   rc=  3.970931   el=  0.003093   Ekb= -0.474517   kbcos= -0.018236

KBgen: Total number of Kleinman-Bylander projectors:   16
atom: -------------------------------------------------------------------------

atom: SANKEY-TYPE ORBITALS:
atom: Selected multiple-zeta basis: split     

SPLIT: Orbitals with angular momentum L= 0

SPLIT: Basis orbitals for state 2s

SPLIT: PAO cut-off radius determined from an
SPLIT: energy shift=  0.002000 Ry

   izeta = 1
                 lambda =    1.000000
                     rc =    4.730425
                 energy =   -1.363399
                kinetic =    1.245246
    potential(screened) =   -2.608645
       potential(ionic) =   -8.121105

   izeta = 2
                 rmatch =    2.531849
              splitnorm =    0.280000
                 energy =   -0.959908
                kinetic =    2.409435
    potential(screened) =   -3.369343
       potential(ionic) =   -9.427975

SPLIT: Orbitals with angular momentum L= 1

SPLIT: Basis orbitals for state 2p

SPLIT: PAO cut-off radius determined from an
SPLIT: energy shift=  0.002000 Ry

   izeta = 1
                 lambda =    1.000000
                     rc =    5.924108
                 energy =   -0.519262
                kinetic =    3.672940
    potential(screened) =   -4.192202
       potential(ionic) =   -9.518354

   izeta = 2
                 rmatch =    2.531849
              splitnorm =    0.280000
                 energy =   -0.104258
                kinetic =    6.807538
    potential(screened) =   -6.911796
       potential(ionic) =  -13.149920

POLgen: Perturbative polarization orbital with L=  2

POLgen: Polarization orbital for state 2p

   izeta = 1
                     rc =    5.924108
                 energy =    1.427508
                kinetic =    2.872379
    potential(screened) =   -1.444871
       potential(ionic) =   -5.563644
atom: Total number of Sankey-type orbitals: 13

atm_pop: Valence configuration (for local Pseudopot. screening):
 2s( 2.00)                                                            
 2p( 3.00)                                                            
Vna: chval, zval:    5.00000   5.00000

Vna:  Cut-off radius for the neutral-atom potential:   5.924108

atom: _________________________________________________________________________

<basis_specs>
===============================================================================
Si                   Z=  14    Mass=  28.090        Charge= 0.17977+309
Lmxo=1 Lmxkb= 3    BasisType=split      Semic=F
L=0  Nsemic=0  Cnfigmx=3
          i=1  nzeta=2  polorb=0  (3s)
            splnorm:   0.28000    
               vcte:    0.0000    
               rinn:    0.0000    
               qcoe:    0.0000    
               qyuk:    0.0000    
               qwid:   0.10000E-01
                rcs:    0.0000      0.0000    
            lambdas:    1.0000      1.0000    
L=1  Nsemic=0  Cnfigmx=3
          i=1  nzeta=2  polorb=1  (3p)
            splnorm:   0.28000    
               vcte:    0.0000    
               rinn:    0.0000    
               qcoe:    0.0000    
               qyuk:    0.0000    
               qwid:   0.10000E-01
                rcs:    0.0000      0.0000    
            lambdas:    1.0000      1.0000    
-------------------------------------------------------------------------------
L=0  Nkbl=1  erefs: 0.17977+309
L=1  Nkbl=1  erefs: 0.17977+309
L=2  Nkbl=1  erefs: 0.17977+309
L=3  Nkbl=1  erefs: 0.17977+309
===============================================================================
</basis_specs>

atom: Called for Si                    (Z =  14)

read_vps: Pseudopotential generation method:
read_vps: ATM4.2.7  Troullier-Martins                       
Valence charge for ps generation:    4.00000

xc_check: Exchange-correlation functional:
xc_check: GGA Perdew, Burke & Ernzerhof 1996
V l=0 = -2*Zval/r beyond r=  2.7826
V l=1 = -2*Zval/r beyond r=  2.7826
V l=2 = -2*Zval/r beyond r=  2.9253
V l=3 = -2*Zval/r beyond r=  2.7826
All V_l potentials equal beyond r=  2.8530
This should be close to max(r_c) in ps generation
All pots = -2*Zval/r beyond r=  2.9253

VLOCAL1: 99.0% of the norm of Vloc inside      5.333 Ry
VLOCAL1: 99.9% of the norm of Vloc inside     12.154 Ry
atom: Maximum radius for 4*pi*r*r*local-pseudopot. charge    3.39869
atom: Maximum radius for r*vlocal+2*Zval:    2.96205
GHOST: No ghost state for L =  0
GHOST: No ghost state for L =  1
GHOST: No ghost state for L =  2
GHOST: No ghost state for L =  3

KBgen: Kleinman-Bylander projectors: 
   l= 0   rc=  3.075247   el= -0.794092   Ekb=  5.879390   kbcos=  0.167461
   l= 1   rc=  3.153101   el= -0.300068   Ekb=  2.642817   kbcos=  0.058301
   l= 2   rc=  3.273594   el=  0.001958   Ekb= -1.185135   kbcos= -0.104411
   l= 3   rc=  3.232927   el=  0.003046   Ekb= -0.497174   kbcos= -0.015889

KBgen: Total number of Kleinman-Bylander projectors:   16
atom: -------------------------------------------------------------------------

atom: SANKEY-TYPE ORBITALS:
atom: Selected multiple-zeta basis: split     

SPLIT: Orbitals with angular momentum L= 0

SPLIT: Basis orbitals for state 3s

SPLIT: PAO cut-off radius determined from an
SPLIT: energy shift=  0.002000 Ry

   izeta = 1
                 lambda =    1.000000
                     rc =    6.429618
                 energy =   -0.792283
                kinetic =    0.525293
    potential(screened) =   -1.317576
       potential(ionic) =   -3.744923

   izeta = 2
                 rmatch =    3.998416
              splitnorm =    0.280000
                 energy =   -0.583081
                kinetic =    1.069570
    potential(screened) =   -1.652651
       potential(ionic) =   -4.235185

SPLIT: Orbitals with angular momentum L= 1

SPLIT: Basis orbitals for state 3p

SPLIT: PAO cut-off radius determined from an
SPLIT: energy shift=  0.002000 Ry

   izeta = 1
                 lambda =    1.000000
                     rc =    8.464845
                 energy =   -0.298236
                kinetic =    0.785360
    potential(screened) =   -1.083596
       potential(ionic) =   -3.273779

   izeta = 2
                 rmatch =    4.587816
              splitnorm =    0.280000
                 energy =   -0.131871
                kinetic =    1.403687
    potential(screened) =   -1.535557
       potential(ionic) =   -4.015310

POLgen: Perturbative polarization orbital with L=  2

POLgen: Polarization orbital for state 3p

   izeta = 1
                     rc =    8.464845
                 energy =    0.321949
                kinetic =    1.055677
    potential(screened) =   -0.733728
       potential(ionic) =   -2.672950
atom: Total number of Sankey-type orbitals: 13

atm_pop: Valence configuration (for local Pseudopot. screening):
 3s( 2.00)                                                            
 3p( 2.00)                                                            
Vna: chval, zval:    4.00000   4.00000

Vna:  Cut-off radius for the neutral-atom potential:   8.464845

atom: _________________________________________________________________________

<basis_specs>
===============================================================================
O                    Z=   8    Mass=  16.000        Charge= 0.17977+309
Lmxo=1 Lmxkb= 3    BasisType=split      Semic=F
L=0  Nsemic=0  Cnfigmx=2
          i=1  nzeta=2  polorb=0  (2s)
            splnorm:   0.28000    
               vcte:    0.0000    
               rinn:    0.0000    
               qcoe:    0.0000    
               qyuk:    0.0000    
               qwid:   0.10000E-01
                rcs:    0.0000      0.0000    
            lambdas:    1.0000      1.0000    
L=1  Nsemic=0  Cnfigmx=2
          i=1  nzeta=2  polorb=1  (2p)
            splnorm:   0.28000    
               vcte:    0.0000    
               rinn:    0.0000    
               qcoe:    0.0000    
               qyuk:    0.0000    
               qwid:   0.10000E-01
                rcs:    0.0000      0.0000    
            lambdas:    1.0000      1.0000    
-------------------------------------------------------------------------------
L=0  Nkbl=1  erefs: 0.17977+309
L=1  Nkbl=1  erefs: 0.17977+309
L=2  Nkbl=1  erefs: 0.17977+309
L=3  Nkbl=1  erefs: 0.17977+309
===============================================================================
</basis_specs>

atom: Called for O                     (Z =   8)

read_vps: Pseudopotential generation method:
read_vps: ATM4.2.7  Troullier-Martins                       
Valence charge for ps generation:    6.00000

xc_check: Exchange-correlation functional:
xc_check: GGA Perdew, Burke & Ernzerhof 1996
V l=0 = -2*Zval/r beyond r=  1.1000
V l=1 = -2*Zval/r beyond r=  1.1000
V l=2 = -2*Zval/r beyond r=  2.2154
V l=3 = -2*Zval/r beyond r=  1.1000
All V_l potentials equal beyond r=  2.2154
This should be close to max(r_c) in ps generation
All pots = -2*Zval/r beyond r=  2.2154

VLOCAL1: 99.0% of the norm of Vloc inside      8.845 Ry
VLOCAL1: 99.9% of the norm of Vloc inside     20.157 Ry
atom: Maximum radius for 4*pi*r*r*local-pseudopot. charge    2.67231
atom: Maximum radius for r*vlocal+2*Zval:    2.32897
GHOST: No ghost state for L =  0
GHOST: No ghost state for L =  1
GHOST: No ghost state for L =  2
GHOST: No ghost state for L =  3

KBgen: Kleinman-Bylander projectors: 
   l= 0   rc=  2.243238   el= -1.759686   Ekb=**********   kbcos= -0.171774
   l= 1   rc=  2.328968   el= -0.663873   Ekb=-14.506792   kbcos= -0.519897
   l= 2   rc=  2.573941   el=  0.002031   Ekb= -1.137373   kbcos= -0.019581
   l= 3   rc=  2.606321   el=  0.003153   Ekb= -1.013546   kbcos= -0.003122

KBgen: Total number of Kleinman-Bylander projectors:   16
atom: -------------------------------------------------------------------------

atom: SANKEY-TYPE ORBITALS:
atom: Selected multiple-zeta basis: split     

SPLIT: Orbitals with angular momentum L= 0

SPLIT: Basis orbitals for state 2s

SPLIT: PAO cut-off radius determined from an
SPLIT: energy shift=  0.002000 Ry

   izeta = 1
                 lambda =    1.000000
                     rc =    4.243912
                 energy =   -1.758270
                kinetic =    3.286084
    potential(screened) =   -5.044353
       potential(ionic) =  -12.921184

   izeta = 2
                 rmatch =    2.187845
              splitnorm =    0.280000
                 energy =   -0.885018
                kinetic =    8.134434
    potential(screened) =   -9.019452
       potential(ionic) =  -17.710645

SPLIT: Orbitals with angular momentum L= 1

SPLIT: Basis orbitals for state 2p

SPLIT: PAO cut-off radius determined from an
SPLIT: energy shift=  0.002000 Ry

   izeta = 1
                 lambda =    1.000000
                     rc =    5.314825
                 energy =   -0.661986
                kinetic =    4.917472
    potential(screened) =   -5.579458
       potential(ionic) =  -13.236259

   izeta = 2
                 rmatch =    2.160663
              splitnorm =    0.280000
                 energy =   -0.068760
                kinetic =    9.183374
    potential(screened) =   -9.252135
       potential(ionic) =  -18.274251

POLgen: Perturbative polarization orbital with L=  2

POLgen: Polarization orbital for state 2p

   izeta = 1
                     rc =    5.314825
                 energy =    1.970580
                kinetic =    3.886128
    potential(screened) =   -1.915547
       potential(ionic) =   -7.749584
atom: Total number of Sankey-type orbitals: 13

atm_pop: Valence configuration (for local Pseudopot. screening):
 2s( 2.00)                                                            
 2p( 4.00)                                                            
Vna: chval, zval:    6.00000   6.00000

Vna:  Cut-off radius for the neutral-atom potential:   5.314825

atom: _________________________________________________________________________

prinput: Basis input ----------------------------------------------------------

PAO.BasisType split     

%block ChemicalSpeciesLabel
    1    1 H                       # Species index, atomic number, species label
    2    7 N                       # Species index, atomic number, species label
    3   14 Si                      # Species index, atomic number, species label
    4    8 O                       # Species index, atomic number, species label
%endblock ChemicalSpeciesLabel

%block PAO.Basis                 # Define Basis set
H                     1                    # Species label, number of l-shells
 n=1   0   2 P   1                   # n, l, Nzeta, Polarization, NzetaPol
   6.518      2.141   
   1.000      1.000   
N                     2                    # Species label, number of l-shells
 n=2   0   2                         # n, l, Nzeta 
   4.730      2.532   
   1.000      1.000   
 n=2   1   2 P   1                   # n, l, Nzeta, Polarization, NzetaPol
   5.924      2.532   
   1.000      1.000   
Si                    2                    # Species label, number of l-shells
 n=3   0   2                         # n, l, Nzeta 
   6.430      3.998   
   1.000      1.000   
 n=3   1   2 P   1                   # n, l, Nzeta, Polarization, NzetaPol
   8.465      4.588   
   1.000      1.000   
O                     2                    # Species label, number of l-shells
 n=2   0   2                         # n, l, Nzeta 
   4.244      2.188   
   1.000      1.000   
 n=2   1   2 P   1                   # n, l, Nzeta, Polarization, NzetaPol
   5.315      2.161   
   1.000      1.000   
%endblock PAO.Basis

prinput: ----------------------------------------------------------------------

Dumping basis to NetCDF file H.ion.nc
Dumping basis to NetCDF file N.ion.nc
Dumping basis to NetCDF file Si.ion.nc
Dumping basis to NetCDF file O.ion.nc
coor:   Atomic-coordinates input format  =     Cartesian coordinates
coor:                                          (in Angstroms)

siesta: Atomic coordinates (Bohr) and species
siesta:      4.31792  -9.81768   0.00000  1        1
siesta:      2.59711  -8.81503   0.00000  2        2
siesta:     -0.41253 -10.38326   0.00000  3        3
siesta:     -0.33040 -13.20006   0.00000  1        4
siesta:     -3.14019  -8.66630   0.00000  2        5
siesta:     -2.06030  -5.43214   0.00000  3        6
siesta:     -2.89201  -1.33728   0.00000  3        7
siesta:     -5.94160  -0.17360   0.00000  2        8
siesta:     -6.43014   1.81127   0.00000  1        9
siesta:     -7.46581  -1.44982   0.00000  1       10
siesta:     -0.33706   0.78140   0.00000  2       11
siesta:      2.82552  -0.08957   0.00000  3       12
siesta:      4.64124   2.09244   0.00000  1       13
siesta:      4.35491  -2.99662   0.00000  2       14
siesta:      2.09241  -5.37836   0.00000  3       15
siesta:      1.50085  11.22565   0.00000  1       16
siesta:     -0.02739   9.91757   0.00000  2       17
siesta:     -3.15790  11.26517   0.00000  3       18
siesta:     -2.97485  14.12003   0.00000  1       19
siesta:     -6.41986   8.72718   0.00000  3       20
siesta:    -10.86913   8.71209   0.00000  3       21
siesta:    -11.93195  10.10007  -2.27113  1       22
siesta:    -11.43570   5.91701  -0.16286  1       23
siesta:    -11.93216   9.77947   2.43425  1       24
siesta:     -4.66356   4.81437   0.00000  3       25
siesta:     -6.45780   2.37938   0.00000  4       26
siesta:     -1.27917   4.48605   0.00000  2       27
siesta:     -0.65368   2.53518   0.00000  1       28
siesta:      1.19346   6.74342   0.00000  3       29
siesta:      4.15265   6.23840   0.00000  4       30

siesta: System type = molecule  

initatomlists: Number of atoms, orbitals, and projectors:     30   302   403

siesta: ******************** Simulation parameters ****************************
siesta:
siesta: The following are some of the parameters of the simulation.
siesta: A complete list of the parameters used, including default values,
siesta: can be found in file out.fdf
siesta:
redata: Spin configuration                          = spin-orbit
redata: Number of spin components                   = 8
redata: Time-Reversal Symmetry                      = F
redata: Spin spiral                                 = F
############################################################
This spin-orbit implementation uses a local approximation.
From 4.2 and onwards the full non-local approximation is implemented
You are strongly advised to use >=4.2 versions!
############################################################
redata: Long output                                 =   F
redata: Number of Atomic Species                    =        4
redata: Charge density info will appear in .RHO file
redata: Write Mulliken Pop.                         = NO
redata: Matel table size (NRTAB)                    =     1024
redata: Mesh Cutoff                                 =   340.0000 Ry
redata: Net charge of the system                    =     0.0000 |e|
redata: Min. number of SCF Iter                     =        1
redata: Max. number of SCF Iter                     =      200
redata: SCF mix quantity                            = Hamiltonian
redata: Mix DM or H after convergence               =   F
redata: Recompute H after scf cycle                 =   F
redata: Mix DM in first SCF step                    =   T
redata: Write Pulay info on disk                    =   F
redata: New DM Occupancy tolerance                  = 0.000000000001
redata: No kicks to SCF
redata: DM Mixing Weight for Kicks                  =     0.5000
redata: Require Harris convergence for SCF          =   F
redata: Harris energy tolerance for SCF             =     0.000100 eV
redata: Require DM convergence for SCF              =   T
redata: DM tolerance for SCF                        =     0.000008
redata: Require EDM convergence for SCF             =   F
redata: EDM tolerance for SCF                       =     0.001000 eV
redata: Require H convergence for SCF               =   T
redata: Hamiltonian tolerance for SCF               =     0.000001 eV
redata: Require (free) Energy convergence for SCF   =   F
redata: (free) Energy tolerance for SCF             =     0.000100 eV
redata: Using Saved Data (generic)                  =   F
redata: Use continuation files for DM               =   T
redata: Neglect nonoverlap interactions             =   F
redata: Method of Calculation                       = Diagonalization
redata: Electronic Temperature                      =   299.9978 K
redata: Fix the spin of the system                  =   F
redata: Dynamics option                             = Verlet MD run
redata: Initial MD time step                        =        1
redata:   Final MD time step                        =        1
redata: Length of MD time step                      =     0.5000 fs
redata: Initial Temperature of MD run               =     0.0000 K
redata: Perform a MD quench                         =   F
mix.SCF: Pulay mixing                            = Pulay
mix.SCF:    Variant                              = stable
mix.SCF:    History steps                        = 6
mix.SCF:    Linear mixing weight                 =     0.250000
mix.SCF:    Mixing weight                        =     0.250000
mix.SCF:    SVD condition                        = 0.1000E-07
mix.SCF:    Restart steps                        = 24
mix.SCF:    Restart save steps                   = 3
mix.SCF: Spin-component mixing                   all
redata: Save all siesta data in one NC              =   F
redata: ***********************************************************************

%block SCF.Mixers
  Pulay
%endblock SCF.Mixers

%block SCF.Mixer.Pulay
  # Mixing method
  method pulay
  variant stable

  # Mixing options
  weight 0.2500
  weight.linear 0.2500
  history 6
  restart 24
  restart.save 3
%endblock SCF.Mixer.Pulay

Size of DM history Fstack: 3
Total number of electrons:    98.000000
Total ionic charge:    98.000000

* ProcessorY, Blocksize:    2  24


* Orbital distribution balance (max,min):    48    24


Time-reversal symmetry not used.

siesta: k-grid: Number of k-points =     1
siesta: k-grid: Cutoff (effective) =     5.000 Ang
siesta: k-grid: Supercell and displacements
siesta: k-grid:    1   0   0      0.000
siesta: k-grid:    0   1   0      0.000
siesta: k-grid:    0   0   1      0.000

diag: Algorithm                                     = ELPA-1stage
diag: Parallel over k                               =   F
diag: Use parallel 2D distribution                  =   T
diag: Parallel block-size                           = 24
diag: Parallel distribution                         =     2 x     4
diag: Used triangular part                          = Lower
diag: Absolute tolerance                            =  0.100E-15
diag: Orthogonalization factor                      =  0.100E-05
diag: Memory factor                                 =  1.0000


ts: **************************************************************
ts: Save H and S matrices                           =    F
ts: Save DM and EDM matrices                        =    F
ts: Only save the overlap matrix S                  =    F
ts: **************************************************************

************************ Begin: TS CHECKS AND WARNINGS ************************
************************ End: TS CHECKS AND WARNINGS **************************


                     ====================================
                        Begin MD step =      1
                     ====================================

outcoor: Atomic coordinates (Ang):                          
    2.28494382   -5.19529124    0.00000000   1       1  H
    1.37433094   -4.66471070    0.00000000   2       2  N
   -0.21830245   -5.49458215    0.00000000   3       3  Si
   -0.17484108   -6.98516892    0.00000000   1       4  H
   -1.66171682   -4.58600741    0.00000000   2       5  N
   -1.09026419   -2.87456374    0.00000000   3       6  Si
   -1.53038332   -0.70765692    0.00000000   3       7  Si
   -3.14415959   -0.09186471    0.00000000   2       8  N
   -3.40268075    0.95848335    0.00000000   1       9  H
   -3.95073599   -0.76720972    0.00000000   1      10  H
   -0.17836637    0.41349951    0.00000000   2      11  N
    1.49520211   -0.04739960    0.00000000   3      12  Si
    2.45603905    1.10727302    0.00000000   1      13  H
    2.30451743   -1.58574382    0.00000000   2      14  N
    1.10725559   -2.84610319    0.00000000   3      15  Si
    0.79421496    5.94035663    0.00000000   1      16  H
   -0.01449572    5.24815075    0.00000000   2      17  N
   -1.67108556    5.96127085    0.00000000   3      18  Si
   -1.57422039    7.47199606    0.00000000   1      19  H
   -3.39724191    4.61822272    0.00000000   3      20  Si
   -5.75169616    4.61023579    0.00000000   3      21  Si
   -6.31411428    5.34472544   -1.20183078   1      22  H
   -6.05150991    3.13114466   -0.08618332   1      23  H
   -6.31422674    5.17506825    1.28814761   1      24  H
   -2.46785127    2.54765149    0.00000000   3      25  Si
   -3.41731963    1.25911536    0.00000000   4      26  O
   -0.67690640    2.37391602    0.00000000   2      27  N
   -0.34591504    1.34155904    0.00000000   1      28  H
    0.63155182    3.56846244    0.00000000   3      29  Si
    2.19748875    3.30121559    0.00000000   4      30  O

outcell: Unit cell vectors (Ang):
       30.000000    0.000000    0.000000
        0.000000   45.000000    0.000000
        0.000000    0.000000   10.000000

outcell: Cell vector modules (Ang)   :   30.000000   45.000000   10.000000
outcell: Cell angles (23,13,12) (deg):     90.0000     90.0000     90.0000
outcell: Cell volume (Ang**3)        :  13500.0000
siesta: WARNING: Atoms     9    26 too close: rij =    0.300988 Ang
<dSpData1D:S at geom step 1
  <sparsity:sparsity for geom step 1
    nrows_g=302 nrows=48 sparsity=.1157 nnzs=10551, refcount: 8>
  <dData1D:(new from dSpData1D) n=10551, refcount: 1>
refcount: 1>
new_DM -- step:     1
Initializing Density Matrix...

Attempting to read DM from file... Failed...
DM filled with atomic data:
<dSpData2D:DM initialized from atoms
  <sparsity:sparsity for geom step 1
    nrows_g=302 nrows=48 sparsity=.1157 nnzs=10551, refcount: 9>
  <dData2D:DM n=10551 m=8, refcount: 1>
refcount: 1>
     spin moment: S , {S} =   56.00000   0.00000   0.00000  56.00000
No. of atoms with KB's overlaping orbs in proc 0. Max # of overlaps:      29     215

Initializing spin-orbit part of the Hamiltonian
  Adding spin-orbit effects for H 
  Adding spin-orbit effects for N 
  Adding spin-orbit effects for Si
  Adding spin-orbit effects for O 


New grid distribution:   1
           1       1:  180    1:  125    1:   15
           2       1:  180    1:  125   16:   30
           3       1:  180    1:  125   31:   45
           4       1:  180    1:  125   46:   60
           5       1:  180  126:  250    1:   15
           6       1:  180  126:  250   16:   30
           7       1:  180  126:  250   31:   45
           8       1:  180  126:  250   46:   60

InitMesh: MESH =   360 x   500 x   120 =    21600000
InitMesh: (bp) =   180 x   250 x    60 =     2700000
InitMesh: Mesh cutoff (required, used) =   340.000   341.206 Ry
ExtMesh (bp) on 0 =   288 x   225 x   123 =     7970400
New grid distribution:   2
           1     156:  180   30:  231    1:   60
           2       1:  159   15:   29    1:   60
           3       1:  159    1:   14    1:   60
           4     160:  180   13:   29    1:   60
           5       1:  155   30:  231    1:   60
           6       1:  155  232:  250    1:   60
           7     156:  180  232:  250    1:   60
           8     160:  180    1:   12    1:   60
New grid distribution:   3
           1     147:  180   44:  223    1:   60
           2       1:  141   22:   43    1:   60
           3       1:  141    1:   21    1:   60
           4     142:  180    1:   22    1:   60
           5       1:  146   44:  225    1:   60
           6       1:  146  226:  250    1:   60
           7     147:  180  224:  250    1:   60
           8     142:  180   23:   43    1:   60
Setting up quadratic distribution...
ExtMesh (bp) on 0 =   133 x   302 x   168 =     6747888
PhiOnMesh: Number of (b)points on node 0 =               303000
PhiOnMesh: nlist on node 0 =              1767495

stepf: Fermi-Dirac step function

siesta: Program's energy decomposition (eV):
siesta: Ebs     =      -624.795720
siesta: Eions   =      3553.971015
siesta: Ena     =       550.719347
siesta: Ekin    =      3336.767410
siesta: Enl     =     -3171.192146
siesta: Eso     =        -0.004346
siesta: Edftu   =         0.000000
siesta: DEna    =       123.666018
siesta: DUscf   =        86.262128
siesta: DUext   =         0.000000
siesta: Exc     =     -1195.794549
siesta: eta*DQ  =         0.000000
siesta: Emadel  =         0.000000
siesta: Emeta   =         0.000000
siesta: Emolmec =         0.000000
siesta: Ekinion =         0.000000
siesta: Eharris =     -3710.352004
siesta: Etot    =     -3823.547153
siesta: FreeEng =     -3823.559530

        iscf     Eharris(eV)        E_KS(eV)     FreeEng(eV)     dDmax    Ef(eV) dHmax(eV)
   scf:    1    -3710.352004    -3823.547153    -3823.559530  0.929429 -4.974274 29.495138
     spin moment: S , {S} =    4.00704  -0.00000  -0.00000   4.00704
timer: Routine,Calls,Time,% = IterSCF        1      12.266  32.65
   scf:    2    -3883.212891    -3862.418217    -3862.464418  0.187127 -4.206417 10.511203
     spin moment: S , {S} =    2.82728   0.00000   0.00000   2.82728
   scf:    3    -3870.379448    -3867.490682    -3867.490685  0.158732 -3.544354  6.216921
     spin moment: S , {S} =    2.00010   0.00000   0.00000   2.00010
   scf:    4    -3868.890802    -3868.283047    -3868.283188  0.049575 -3.356382  4.467052
     spin moment: S , {S} =    2.00005   0.00000   0.00000   2.00005
   scf:    5    -3869.385886    -3868.839357    -3868.839525  0.038203 -3.071122  2.258445
     spin moment: S , {S} =    1.99969  -0.00000  -0.00000   1.99969
   scf:    6    -3865.617025    -3867.901873    -3867.932894  0.360534 -3.180259  7.202724
     spin moment: S , {S} =    0.57659   0.00000  -0.00000   0.57659
   scf:    7    -3869.229448    -3868.647490    -3868.683292  0.111308 -3.162025  4.675205
     spin moment: S , {S} =    0.99321   0.00000  -0.00001   0.99321
   scf:    8    -3868.972709    -3868.805836    -3868.841074  0.025728 -3.209058  4.118466
     spin moment: S , {S} =    0.85411  -0.00000  -0.00002   0.85411
   scf:    9    -3869.056211    -3869.244126    -3869.268006  0.195944 -3.225367  0.838717
     spin moment: S , {S} =    1.65108  -0.00001  -0.00004   1.65108
   scf:   10    -3869.281855    -3869.263577    -3869.289619  0.014410 -3.234969  0.634041
     spin moment: S , {S} =    1.59347  -0.00001  -0.00005   1.59347
   scf:   11    -3869.274499    -3869.277468    -3869.307918  0.037599 -3.244544  0.236537
     spin moment: S , {S} =    1.44539  -0.00001  -0.00006   1.44539
   scf:   12    -3869.283549    -3869.280289    -3869.312128  0.017736 -3.259383  0.421266
     spin moment: S , {S} =    1.38355  -0.00001  -0.00007   1.38355
   scf:   13    -3869.291319    -3869.286587    -3869.317728  0.006806 -3.265641  0.104580
     spin moment: S , {S} =    1.41472  -0.00001  -0.00009   1.41472
   scf:   14    -3869.288573    -3869.287518    -3869.318630  0.003444 -3.268544  0.020581
     spin moment: S , {S} =    1.41522  -0.00000  -0.00011   1.41522
   scf:   15    -3869.286675    -3869.287144    -3869.318649  0.004846 -3.269525  0.085192
     spin moment: S , {S} =    1.39715  -0.00000  -0.00012   1.39715
   scf:   16    -3869.287861    -3869.287581    -3869.318888  0.002146 -3.269439  0.014086
     spin moment: S , {S} =    1.40537   0.00000  -0.00014   1.40537
   scf:   17    -3869.287230    -3869.287416    -3869.318899  0.002177 -3.269709  0.024814
     spin moment: S , {S} =    1.39692   0.00001  -0.00015   1.39692
   scf:   18    -3869.287465    -3869.287437    -3869.318913  0.000440 -3.269681  0.013667
     spin moment: S , {S} =    1.39677   0.00001  -0.00017   1.39677
   scf:   19    -3869.287432    -3869.287431    -3869.318915  0.000450 -3.269719  0.007662
     spin moment: S , {S} =    1.39589   0.00001  -0.00019   1.39589
   scf:   20    -3869.287438    -3869.287433    -3869.318914  0.000298 -3.269679  0.005217
     spin moment: S , {S} =    1.39569   0.00002  -0.00021   1.39569
   scf:   21    -3869.287428    -3869.287427    -3869.318911  0.000432 -3.269643  0.002931
     spin moment: S , {S} =    1.39512   0.00002  -0.00023   1.39512
   scf:   22    -3869.287433    -3869.287428    -3869.318907  0.000358 -3.269576  0.001823
     spin moment: S , {S} =    1.39489   0.00002  -0.00026   1.39489
   scf:   23    -3869.287434    -3869.287429    -3869.318904  0.000326 -3.269525  0.000414
     spin moment: S , {S} =    1.39473   0.00003  -0.00028   1.39473
   scf:   24    -3869.287431    -3869.287430    -3869.318903  0.000071 -3.269515  0.000564
     spin moment: S , {S} =    1.39472   0.00003  -0.00029   1.39472
mix: Pulay -- resetting history
   scf:   25    -3869.287437    -3869.287432    -3869.318900  0.000297 -3.269487  0.000252
     spin moment: S , {S} =    1.39459   0.00004  -0.00032   1.39459
   scf:   26    -3869.287435    -3869.287433    -3869.318898  0.000115 -3.269488  0.000198
     spin moment: S , {S} =    1.39457   0.00004  -0.00034   1.39457
   scf:   27    -3869.287441    -3869.287435    -3869.318895  0.000273 -3.269486  0.000142
     spin moment: S , {S} =    1.39450   0.00004  -0.00038   1.39450
   scf:   28    -3869.287443    -3869.287438    -3869.318892  0.000229 -3.269480  0.000096
     spin moment: S , {S} =    1.39445   0.00005  -0.00042   1.39445
   scf:   29    -3869.287440    -3869.287439    -3869.318892  0.000066 -3.269477  0.000083
     spin moment: S , {S} =    1.39444   0.00005  -0.00044   1.39444
   scf:   30    -3869.287445    -3869.287441    -3869.318890  0.000160 -3.269469  0.000052
     spin moment: S , {S} =    1.39442   0.00006  -0.00048   1.39442
   scf:   31    -3869.287443    -3869.287442    -3869.318889  0.000065 -3.269467  0.000052
     spin moment: S , {S} =    1.39441   0.00006  -0.00050   1.39441
   scf:   32    -3869.287446    -3869.287443    -3869.318888  0.000097 -3.269466  0.000052
     spin moment: S , {S} =    1.39440   0.00007  -0.00055   1.39440
   scf:   33    -3869.287445    -3869.287444    -3869.318887  0.000042 -3.269467  0.000051
     spin moment: S , {S} =    1.39440   0.00007  -0.00057   1.39440
   scf:   34    -3869.287445    -3869.287444    -3869.318887  0.000029 -3.269467  0.000051
     spin moment: S , {S} =    1.39439   0.00008  -0.00059   1.39439
   scf:   35    -3869.287445    -3869.287444    -3869.318887  0.000022 -3.269467  0.000050
     spin moment: S , {S} =    1.39439   0.00008  -0.00062   1.39439
   scf:   36    -3869.287445    -3869.287444    -3869.318886  0.000018 -3.269466  0.000050
     spin moment: S , {S} =    1.39439   0.00008  -0.00065   1.39439
   scf:   37    -3869.287445    -3869.287445    -3869.318886  0.000009 -3.269466  0.000049
     spin moment: S , {S} =    1.39439   0.00009  -0.00066   1.39439
   scf:   38    -3869.287445    -3869.287445    -3869.318886  0.000032 -3.269466  0.000048
     spin moment: S , {S} =    1.39439   0.00009  -0.00072   1.39439
   scf:   39    -3869.287444    -3869.287445    -3869.318886  0.000030 -3.269466  0.000047
     spin moment: S , {S} =    1.39439   0.00010  -0.00077   1.39439
   scf:   40    -3869.287444    -3869.287444    -3869.318887  0.000050 -3.269467  0.000045
     spin moment: S , {S} =    1.39439   0.00011  -0.00085   1.39439
   scf:   41    -3869.287444    -3869.287444    -3869.318887  0.000071 -3.269467  0.000042
     spin moment: S , {S} =    1.39439   0.00013  -0.00097   1.39439
   scf:   42    -3869.287444    -3869.287444    -3869.318887  0.000073 -3.269467  0.000039
     spin moment: S , {S} =    1.39439   0.00014  -0.00109   1.39439
   scf:   43    -3869.287444    -3869.287444    -3869.318887  0.000210 -3.269467  0.000031
     spin moment: S , {S} =    1.39439   0.00019  -0.00142   1.39439
   scf:   44    -3869.287444    -3869.287444    -3869.318887  0.000105 -3.269468  0.000029
     spin moment: S , {S} =    1.39439   0.00021  -0.00159   1.39439
   scf:   45    -3869.287444    -3869.287444    -3869.318887  0.000061 -3.269468  0.000042
     spin moment: S , {S} =    1.39438   0.00022  -0.00167   1.39438
   scf:   46    -3869.287444    -3869.287444    -3869.318887  0.000005 -3.269468  0.000039
     spin moment: S , {S} =    1.39439   0.00022  -0.00168   1.39439
   scf:   47    -3869.287444    -3869.287444    -3869.318887  0.000025 -3.269468  0.000042
     spin moment: S , {S} =    1.39439   0.00022  -0.00164   1.39438
   scf:   48    -3869.287444    -3869.287444    -3869.318887  0.000075 -3.269468  0.000035
     spin moment: S , {S} =    1.39438   0.00023  -0.00175   1.39438
mix: Pulay -- resetting history
   scf:   49    -3869.287444    -3869.287444    -3869.318887  0.000131 -3.269468  0.000017
     spin moment: S , {S} =    1.39439   0.00026  -0.00197   1.39439
   scf:   50    -3869.287444    -3869.287444    -3869.318887  0.000010 -3.269468  0.000045
     spin moment: S , {S} =    1.39438   0.00026  -0.00196   1.39438
   scf:   51    -3869.287444    -3869.287444    -3869.318887  0.000048 -3.269468  0.000034
     spin moment: S , {S} =    1.39438   0.00025  -0.00188   1.39438
   scf:   52    -3869.287444    -3869.287444    -3869.318887  0.000008 -3.269468  0.000021
     spin moment: S , {S} =    1.39438   0.00025  -0.00186   1.39438
   scf:   53    -3869.287445    -3869.287444    -3869.318887  0.000070 -3.269467  0.000023
     spin moment: S , {S} =    1.39437   0.00025  -0.00192   1.39437
   scf:   54    -3869.287445    -3869.287444    -3869.318887  0.000043 -3.269467  0.000018
     spin moment: S , {S} =    1.39437   0.00025  -0.00196   1.39437
   scf:   55    -3869.287444    -3869.287444    -3869.318887  0.000023 -3.269467  0.000015
     spin moment: S , {S} =    1.39437   0.00025  -0.00197   1.39437
   scf:   56    -3869.287444    -3869.287444    -3869.318887  0.000049 -3.269467  0.000013
     spin moment: S , {S} =    1.39437   0.00026  -0.00201   1.39436
   scf:   57    -3869.287445    -3869.287444    -3869.318886  0.000069 -3.269467  0.000011
     spin moment: S , {S} =    1.39436   0.00026  -0.00207   1.39436
   scf:   58    -3869.287445    -3869.287444    -3869.318886  0.000003 -3.269467  0.000011
     spin moment: S , {S} =    1.39436   0.00025  -0.00205   1.39436
   scf:   59    -3869.287445    -3869.287445    -3869.318886  0.000009 -3.269466  0.000011
     spin moment: S , {S} =    1.39436   0.00025  -0.00203   1.39436
   scf:   60    -3869.287444    -3869.287445    -3869.318886  0.000006 -3.269467  0.000011
     spin moment: S , {S} =    1.39436   0.00025  -0.00202   1.39436
   scf:   61    -3869.287445    -3869.287445    -3869.318886  0.000004 -3.269467  0.000011
     spin moment: S , {S} =    1.39436   0.00024  -0.00200   1.39436
   scf:   62    -3869.287445    -3869.287445    -3869.318886  0.000004 -3.269467  0.000011
     spin moment: S , {S} =    1.39436   0.00024  -0.00198   1.39436
   scf:   63    -3869.287445    -3869.287445    -3869.318886  0.000004 -3.269466  0.000011
     spin moment: S , {S} =    1.39436   0.00023  -0.00195   1.39436
   scf:   64    -3869.287445    -3869.287445    -3869.318886  0.000019 -3.269466  0.000012
     spin moment: S , {S} =    1.39436   0.00022  -0.00188   1.39436
   scf:   65    -3869.287445    -3869.287445    -3869.318886  0.000005 -3.269466  0.000012
     spin moment: S , {S} =    1.39436   0.00022  -0.00186   1.39436
   scf:   66    -3869.287445    -3869.287445    -3869.318886  0.000005 -3.269466  0.000012
     spin moment: S , {S} =    1.39436   0.00021  -0.00184   1.39436
   scf:   67    -3869.287445    -3869.287445    -3869.318886  0.000002 -3.269466  0.000012
     spin moment: S , {S} =    1.39436   0.00021  -0.00183   1.39436
   scf:   68    -3869.287445    -3869.287445    -3869.318886  0.000005 -3.269466  0.000012
     spin moment: S , {S} =    1.39436   0.00021  -0.00181   1.39436
   scf:   69    -3869.287445    -3869.287445    -3869.318886  0.000006 -3.269466  0.000012
     spin moment: S , {S} =    1.39436   0.00020  -0.00179   1.39436
   scf:   70    -3869.287445    -3869.287445    -3869.318886  0.000009 -3.269466  0.000012
     spin moment: S , {S} =    1.39436   0.00019  -0.00175   1.39436
   scf:   71    -3869.287445    -3869.287445    -3869.318886  0.000007 -3.269466  0.000012
     spin moment: S , {S} =    1.39436   0.00018  -0.00172   1.39436
   scf:   72    -3869.287445    -3869.287445    -3869.318886  0.000003 -3.269466  0.000012
     spin moment: S , {S} =    1.39436   0.00018  -0.00170   1.39436
mix: Pulay -- resetting history
   scf:   73    -3869.287445    -3869.287445    -3869.318886  0.000003 -3.269466  0.000012
     spin moment: S , {S} =    1.39436   0.00018  -0.00169   1.39436
   scf:   74    -3869.287445    -3869.287445    -3869.318886  0.000001 -3.269466  0.000012
     spin moment: S , {S} =    1.39436   0.00018  -0.00169   1.39436
   scf:   75    -3869.287445    -3869.287445    -3869.318886  0.000008 -3.269466  0.000012
     spin moment: S , {S} =    1.39436   0.00017  -0.00165   1.39436
   scf:   76    -3869.287445    -3869.287445    -3869.318886  0.000005 -3.269466  0.000012
     spin moment: S , {S} =    1.39436   0.00016  -0.00162   1.39436
   scf:   77    -3869.287445    -3869.287445    -3869.318886  0.000004 -3.269466  0.000012
     spin moment: S , {S} =    1.39436   0.00016  -0.00160   1.39436
   scf:   78    -3869.287445    -3869.287445    -3869.318886  0.000007 -3.269466  0.000012
     spin moment: S , {S} =    1.39436   0.00017  -0.00164   1.39436
   scf:   79    -3869.287445    -3869.287445    -3869.318886  0.000000 -3.269466  0.000012
     spin moment: S , {S} =    1.39436   0.00017  -0.00164   1.39436
   scf:   80    -3869.287445    -3869.287445    -3869.318886  0.000000 -3.269466  0.000012
     spin moment: S , {S} =    1.39436   0.00017  -0.00164   1.39436
   scf:   81    -3869.287445    -3869.287445    -3869.318886  0.000006 -3.269466  0.000012
     spin moment: S , {S} =    1.39436   0.00016  -0.00161   1.39436
   scf:   82    -3869.287445    -3869.287445    -3869.318886  0.000007 -3.269466  0.000012
     spin moment: S , {S} =    1.39436   0.00015  -0.00158   1.39436
   scf:   83    -3869.287445    -3869.287445    -3869.318886  0.000003 -3.269466  0.000012
     spin moment: S , {S} =    1.39436   0.00015  -0.00156   1.39436
   scf:   84    -3869.287445    -3869.287445    -3869.318886  0.000008 -3.269466  0.000012
     spin moment: S , {S} =    1.39436   0.00014  -0.00152   1.39436
   scf:   85    -3869.287445    -3869.287445    -3869.318886  0.000097 -3.269466  0.000012
     spin moment: S , {S} =    1.39436   0.00025  -0.00201   1.39436
   scf:   86    -3869.287445    -3869.287445    -3869.318886  0.000087 -3.269466  0.000012
     spin moment: S , {S} =    1.39436   0.00015  -0.00157   1.39436
   scf:   87    -3869.287445    -3869.287445    -3869.318886  0.000002 -3.269466  0.000012
     spin moment: S , {S} =    1.39436   0.00015  -0.00158   1.39436
   scf:   88    -3869.287445    -3869.287445    -3869.318886  0.000027 -3.269466  0.000012
     spin moment: S , {S} =    1.39436   0.00018  -0.00172   1.39436
   scf:   89    -3869.287445    -3869.287445    -3869.318886  0.000040 -3.269466  0.000012
     spin moment: S , {S} =    1.39436   0.00014  -0.00151   1.39436
   scf:   90    -3869.287445    -3869.287445    -3869.318886  0.000039 -3.269466  0.000012
     spin moment: S , {S} =    1.39436   0.00009  -0.00132   1.39436
   scf:   91    -3869.287445    -3869.287445    -3869.318886  0.000072 -3.269466  0.000012
     spin moment: S , {S} =    1.39436   0.00017  -0.00168   1.39436
   scf:   92    -3869.287445    -3869.287445    -3869.318886  0.000005 -3.269466  0.000012
     spin moment: S , {S} =    1.39436   0.00018  -0.00170   1.39436
   scf:   93    -3869.287445    -3869.287445    -3869.318886  0.000019 -3.269466  0.000012
     spin moment: S , {S} =    1.39436   0.00020  -0.00180   1.39436
   scf:   94    -3869.287445    -3869.287445    -3869.318886  0.000001 -3.269466  0.000012
     spin moment: S , {S} =    1.39436   0.00020  -0.00180   1.39436
   scf:   95    -3869.287445    -3869.287445    -3869.318886  0.000003 -3.269466  0.000012
     spin moment: S , {S} =    1.39436   0.00020  -0.00178   1.39436
   scf:   96    -3869.287445    -3869.287445    -3869.318886  0.000060 -3.269466  0.000012
     spin moment: S , {S} =    1.39436   0.00013  -0.00149   1.39436
mix: Pulay -- resetting history
   scf:   97    -3869.287445    -3869.287445    -3869.318886  0.000251 -3.269466  0.000015
     spin moment: S , {S} =    1.39436  -0.00015  -0.00024   1.39436
   scf:   98    -3869.287445    -3869.287445    -3869.318886  0.000013 -3.269466  0.000013
     spin moment: S , {S} =    1.39436  -0.00014  -0.00031   1.39436
   scf:   99    -3869.287445    -3869.287445    -3869.318886  0.000001 -3.269466  0.000012
     spin moment: S , {S} =    1.39436  -0.00014  -0.00032   1.39436
   scf:  100    -3869.287446    -3869.287445    -3869.318886  0.000359 -3.269466  0.000071
     spin moment: S , {S} =    1.39437  -0.00054   0.00148   1.39437
   scf:  101    -3869.287445    -3869.287445    -3869.318886  0.000333 -3.269466  0.000016
     spin moment: S , {S} =    1.39436  -0.00016  -0.00019   1.39436
   scf:  102    -3869.287445    -3869.287445    -3869.318886  0.000213 -3.269466  0.000048
     spin moment: S , {S} =    1.39437  -0.00040   0.00086   1.39437
   scf:  103    -3869.287445    -3869.287445    -3869.318886  0.000290 -3.269466  0.000012
     spin moment: S , {S} =    1.39436  -0.00007  -0.00058   1.39436
   scf:  104    -3869.287445    -3869.287445    -3869.318886  0.000048 -3.269466  0.000014
     spin moment: S , {S} =    1.39436  -0.00013  -0.00034   1.39436
   scf:  105    -3869.287445    -3869.287445    -3869.318886  0.000095 -3.269466  0.000018
     spin moment: S , {S} =    1.39436  -0.00024   0.00013   1.39436
   scf:  106    -3869.287445    -3869.287445    -3869.318886  0.000083 -3.269466  0.000012
     spin moment: S , {S} =    1.39436  -0.00015  -0.00028   1.39436
   scf:  107    -3869.287445    -3869.287445    -3869.318886  0.000091 -3.269466  0.000012
     spin moment: S , {S} =    1.39436  -0.00004  -0.00073   1.39436
   scf:  108    -3869.287445    -3869.287445    -3869.318886  0.000030 -3.269466  0.000012
     spin moment: S , {S} =    1.39436  -0.00001  -0.00088   1.39436
   scf:  109    -3869.287445    -3869.287445    -3869.318886  0.000062 -3.269466  0.000012
     spin moment: S , {S} =    1.39436   0.00006  -0.00119   1.39436
   scf:  110    -3869.287445    -3869.287445    -3869.318886  0.000054 -3.269466  0.000012
     spin moment: S , {S} =    1.39436   0.00000  -0.00091   1.39436
   scf:  111    -3869.287445    -3869.287445    -3869.318886  0.000021 -3.269466  0.000012
     spin moment: S , {S} =    1.39436  -0.00003  -0.00080   1.39436
   scf:  112    -3869.287445    -3869.287445    -3869.318886  0.000022 -3.269466  0.000012
     spin moment: S , {S} =    1.39436  -0.00000  -0.00091   1.39436
   scf:  113    -3869.287445    -3869.287445    -3869.318886  0.000033 -3.269466  0.000012
     spin moment: S , {S} =    1.39436  -0.00004  -0.00074   1.39436
   scf:  114    -3869.287445    -3869.287445    -3869.318886  0.000006 -3.269466  0.000012
     spin moment: S , {S} =    1.39436  -0.00003  -0.00077   1.39436
   scf:  115    -3869.287445    -3869.287445    -3869.318886  0.000010 -3.269466  0.000012
     spin moment: S , {S} =    1.39436  -0.00002  -0.00082   1.39436
   scf:  116    -3869.287445    -3869.287445    -3869.318886  0.000048 -3.269466  0.000012
     spin moment: S , {S} =    1.39436  -0.00008  -0.00058   1.39436
   scf:  117    -3869.287445    -3869.287445    -3869.318886  0.000040 -3.269466  0.000012
     spin moment: S , {S} =    1.39436  -0.00003  -0.00079   1.39436
   scf:  118    -3869.287445    -3869.287445    -3869.318886  0.000014 -3.269466  0.000012
     spin moment: S , {S} =    1.39436  -0.00001  -0.00086   1.39436
   scf:  119    -3869.287445    -3869.287445    -3869.318886  0.000060 -3.269466  0.000012
     spin moment: S , {S} =    1.39436  -0.00008  -0.00056   1.39436
   scf:  120    -3869.287445    -3869.287445    -3869.318886  0.000010 -3.269466  0.000012
     spin moment: S , {S} =    1.39436  -0.00009  -0.00051   1.39436
mix: Pulay -- resetting history
   scf:  121    -3869.287445    -3869.287445    -3869.318886  0.000010 -3.269466  0.000012
     spin moment: S , {S} =    1.39436  -0.00010  -0.00046   1.39436
   scf:  122    -3869.287445    -3869.287445    -3869.318886  0.000021 -3.269466  0.000012
     spin moment: S , {S} =    1.39436  -0.00013  -0.00036   1.39436
   scf:  123    -3869.287445    -3869.287445    -3869.318886  0.000002 -3.269466  0.000012
     spin moment: S , {S} =    1.39436  -0.00012  -0.00037   1.39436
   scf:  124    -3869.287445    -3869.287445    -3869.318886  0.000006 -3.269466  0.000012
     spin moment: S , {S} =    1.39436  -0.00012  -0.00040   1.39436
   scf:  125    -3869.287445    -3869.287445    -3869.318886  0.000000 -3.269466  0.000012
     spin moment: S , {S} =    1.39436  -0.00012  -0.00040   1.39436
   scf:  126    -3869.287445    -3869.287445    -3869.318886  0.000006 -3.269466  0.000012
     spin moment: S , {S} =    1.39436  -0.00011  -0.00043   1.39436
   scf:  127    -3869.287445    -3869.287445    -3869.318886  0.000003 -3.269466  0.000012
     spin moment: S , {S} =    1.39436  -0.00011  -0.00041   1.39436
   scf:  128    -3869.287445    -3869.287445    -3869.318886  0.000013 -3.269466  0.000012
     spin moment: S , {S} =    1.39436  -0.00013  -0.00035   1.39436
   scf:  129    -3869.287445    -3869.287445    -3869.318886  0.000006 -3.269466  0.000012
     spin moment: S , {S} =    1.39436  -0.00012  -0.00038   1.39436
   scf:  130    -3869.287445    -3869.287445    -3869.318886  0.000002 -3.269466  0.000012
     spin moment: S , {S} =    1.39436  -0.00012  -0.00037   1.39436
   scf:  131    -3869.287445    -3869.287445    -3869.318886  0.000006 -3.269466  0.000012
     spin moment: S , {S} =    1.39436  -0.00013  -0.00034   1.39436
   scf:  132    -3869.287445    -3869.287445    -3869.318886  0.000052 -3.269466  0.000012
     spin moment: S , {S} =    1.39436  -0.00019  -0.00008   1.39436
   scf:  133    -3869.287445    -3869.287445    -3869.318886  0.000009 -3.269466  0.000012
     spin moment: S , {S} =    1.39436  -0.00018  -0.00012   1.39436
   scf:  134    -3869.287445    -3869.287445    -3869.318886  0.000003 -3.269466  0.000012
     spin moment: S , {S} =    1.39436  -0.00018  -0.00011   1.39436
   scf:  135    -3869.287445    -3869.287445    -3869.318886  0.000046 -3.269466  0.000012
     spin moment: S , {S} =    1.39436  -0.00013  -0.00033   1.39436
   scf:  136    -3869.287445    -3869.287445    -3869.318886  0.000009 -3.269466  0.000012
     spin moment: S , {S} =    1.39436  -0.00012  -0.00038   1.39436
   scf:  137    -3869.287445    -3869.287445    -3869.318886  0.000054 -3.269466  0.000012
     spin moment: S , {S} =    1.39436  -0.00018  -0.00011   1.39436
   scf:  138    -3869.287445    -3869.287445    -3869.318886  0.000005 -3.269466  0.000012
     spin moment: S , {S} =    1.39436  -0.00019  -0.00009   1.39436
   scf:  139    -3869.287445    -3869.287445    -3869.318886  0.000001 -3.269466  0.000012
     spin moment: S , {S} =    1.39436  -0.00019  -0.00008   1.39436
   scf:  140    -3869.287445    -3869.287445    -3869.318886  0.000003 -3.269466  0.000012
     spin moment: S , {S} =    1.39436  -0.00019  -0.00007   1.39436
   scf:  141    -3869.287445    -3869.287445    -3869.318886  0.000013 -3.269466  0.000012
     spin moment: S , {S} =    1.39436  -0.00018  -0.00013   1.39436
   scf:  142    -3869.287445    -3869.287445    -3869.318886  0.000034 -3.269466  0.000012
     spin moment: S , {S} =    1.39436  -0.00014  -0.00030   1.39436
   scf:  143    -3869.287445    -3869.287445    -3869.318886  0.000084 -3.269466  0.000012
     spin moment: S , {S} =    1.39436  -0.00004  -0.00072   1.39436
   scf:  144    -3869.287445    -3869.287445    -3869.318886  0.000032 -3.269466  0.000012
     spin moment: S , {S} =    1.39436  -0.00008  -0.00056   1.39436
mix: Pulay -- resetting history
   scf:  145    -3869.287445    -3869.287445    -3869.318886  0.000206 -3.269466  0.000013
     spin moment: S , {S} =    1.39436  -0.00031   0.00046   1.39436
   scf:  146    -3869.287445    -3869.287445    -3869.318886  0.000164 -3.269466  0.000021
     spin moment: S , {S} =    1.39436  -0.00050   0.00128   1.39436
   scf:  147    -3869.287445    -3869.287445    -3869.318886  0.000001 -3.269466  0.000021
     spin moment: S , {S} =    1.39436  -0.00050   0.00129   1.39436
   scf:  148    -3869.287445    -3869.287445    -3869.318886  0.000028 -3.269466  0.000027
     spin moment: S , {S} =    1.39436  -0.00047   0.00114   1.39436
   scf:  149    -3869.287445    -3869.287445    -3869.318886  0.000062 -3.269466  0.000022
     spin moment: S , {S} =    1.39436  -0.00054   0.00145   1.39436
   scf:  150    -3869.287445    -3869.287445    -3869.318886  0.000207 -3.269466  0.000012
     spin moment: S , {S} =    1.39436  -0.00030   0.00043   1.39436
   scf:  151    -3869.287445    -3869.287445    -3869.318886  0.000035 -3.269466  0.000012
     spin moment: S , {S} =    1.39436  -0.00026   0.00025   1.39436
   scf:  152    -3869.287446    -3869.287445    -3869.318886  0.000420 -3.269466  0.000053
     spin moment: S , {S} =    1.39437  -0.00074   0.00233   1.39437
   scf:  153    -3869.287445    -3869.287445    -3869.318886  0.000125 -3.269466  0.000038
     spin moment: S , {S} =    1.39437  -0.00060   0.00172   1.39437
   scf:  154    -3869.287445    -3869.287445    -3869.318886  0.000073 -3.269466  0.000034
     spin moment: S , {S} =    1.39437  -0.00051   0.00136   1.39436
   scf:  155    -3869.287445    -3869.287445    -3869.318886  0.000061 -3.269466  0.000035
     spin moment: S , {S} =    1.39437  -0.00058   0.00165   1.39436
   scf:  156    -3869.287445    -3869.287445    -3869.318886  0.000097 -3.269466  0.000066
     spin moment: S , {S} =    1.39437  -0.00069   0.00213   1.39437
   scf:  157    -3869.287445    -3869.287445    -3869.318886  0.000291 -3.269466  0.000020
     spin moment: S , {S} =    1.39436  -0.00037   0.00070   1.39436
   scf:  158    -3869.287445    -3869.287445    -3869.318886  0.000139 -3.269466  0.000014
     spin moment: S , {S} =    1.39436  -0.00021   0.00000   1.39436
   scf:  159    -3869.287446    -3869.287445    -3869.318886  0.000315 -3.269466  0.000076
     spin moment: S , {S} =    1.39437  -0.00056   0.00157   1.39437
   scf:  160    -3869.287445    -3869.287445    -3869.318886  0.000118 -3.269466  0.000035
     spin moment: S , {S} =    1.39437  -0.00070   0.00217   1.39436
   scf:  161    -3869.287445    -3869.287445    -3869.318886  0.000315 -3.269466  0.000012
     spin moment: S , {S} =    1.39436  -0.00034   0.00059   1.39436
   scf:  162    -3869.287445    -3869.287445    -3869.318886  0.000064 -3.269466  0.000012
     spin moment: S , {S} =    1.39436  -0.00041   0.00091   1.39436
   scf:  163    -3869.287445    -3869.287445    -3869.318886  0.000016 -3.269466  0.000012
     spin moment: S , {S} =    1.39436  -0.00040   0.00083   1.39436
   scf:  164    -3869.287445    -3869.287445    -3869.318886  0.000013 -3.269466  0.000012
     spin moment: S , {S} =    1.39436  -0.00038   0.00076   1.39436
   scf:  165    -3869.287445    -3869.287445    -3869.318886  0.000132 -3.269466  0.000012
     spin moment: S , {S} =    1.39436  -0.00053   0.00141   1.39436
   scf:  166    -3869.287445    -3869.287445    -3869.318886  0.000038 -3.269466  0.000012
     spin moment: S , {S} =    1.39436  -0.00049   0.00123   1.39436
   scf:  167    -3869.287445    -3869.287445    -3869.318886  0.000256 -3.269466  0.000044
     spin moment: S , {S} =    1.39437  -0.00020  -0.00003   1.39437
   scf:  168    -3869.287445    -3869.287445    -3869.318886  0.000026 -3.269466  0.000014
     spin moment: S , {S} =    1.39436  -0.00023   0.00010   1.39436
mix: Pulay -- resetting history
   scf:  169    -3869.287445    -3869.287445    -3869.318886  0.000064 -3.269466  0.000019
     spin moment: S , {S} =    1.39436  -0.00030   0.00041   1.39436
   scf:  170    -3869.287445    -3869.287445    -3869.318886  0.000260 -3.269466  0.000012
     spin moment: S , {S} =    1.39436  -0.00059   0.00169   1.39436
   scf:  171    -3869.287445    -3869.287445    -3869.318886  0.000118 -3.269466  0.000015
     spin moment: S , {S} =    1.39436  -0.00046   0.00111   1.39436
   scf:  172    -3869.287445    -3869.287445    -3869.318886  0.000243 -3.269466  0.000051
     spin moment: S , {S} =    1.39437  -0.00019  -0.00009   1.39437
   scf:  173    -3869.287445    -3869.287445    -3869.318886  0.000300 -3.269466  0.000040
     spin moment: S , {S} =    1.39437  -0.00053   0.00140   1.39437
   scf:  174    -3869.287445    -3869.287445    -3869.318886  0.000002 -3.269466  0.000032
     spin moment: S , {S} =    1.39437  -0.00053   0.00140   1.39436
   scf:  175    -3869.287445    -3869.287445    -3869.318886  0.000078 -3.269466  0.000013
     spin moment: S , {S} =    1.39436  -0.00044   0.00102   1.39436
   scf:  176    -3869.287445    -3869.287445    -3869.318886  0.000181 -3.269466  0.000013
     spin moment: S , {S} =    1.39436  -0.00024   0.00013   1.39436
   scf:  177    -3869.287445    -3869.287445    -3869.318886  0.000049 -3.269466  0.000028
     spin moment: S , {S} =    1.39436  -0.00029   0.00034   1.39436
   scf:  178    -3869.287446    -3869.287445    -3869.318886  0.000398 -3.269466  0.000031
     spin moment: S , {S} =    1.39437  -0.00074   0.00233   1.39436
   scf:  179    -3869.287445    -3869.287445    -3869.318886  0.000089 -3.269466  0.000078
     spin moment: S , {S} =    1.39437  -0.00084   0.00276   1.39437
   scf:  180    -3869.287445    -3869.287445    -3869.318886  0.000046 -3.269466  0.000053
     spin moment: S , {S} =    1.39437  -0.00079   0.00254   1.39437
   scf:  181    -3869.287445    -3869.287445    -3869.318886  0.000048 -3.269466  0.000058
     spin moment: S , {S} =    1.39437  -0.00084   0.00278   1.39437
   scf:  182    -3869.287445    -3869.287445    -3869.318886  0.000407 -3.269466  0.000012
     spin moment: S , {S} =    1.39436  -0.00038   0.00077   1.39436
   scf:  183    -3869.287445    -3869.287445    -3869.318886  0.000079 -3.269466  0.000012
     spin moment: S , {S} =    1.39436  -0.00047   0.00116   1.39436
   scf:  184    -3869.287445    -3869.287445    -3869.318886  0.000090 -3.269466  0.000012
     spin moment: S , {S} =    1.39436  -0.00057   0.00161   1.39436
   scf:  185    -3869.287445    -3869.287445    -3869.318886  0.000207 -3.269466  0.000012
     spin moment: S , {S} =    1.39436  -0.00034   0.00057   1.39436
   scf:  186    -3869.287445    -3869.287445    -3869.318886  0.000092 -3.269466  0.000012
     spin moment: S , {S} =    1.39436  -0.00044   0.00104   1.39436
   scf:  187    -3869.287445    -3869.287445    -3869.318886  0.000118 -3.269466  0.000013
     spin moment: S , {S} =    1.39436  -0.00031   0.00045   1.39436
   scf:  188    -3869.287445    -3869.287445    -3869.318886  0.000216 -3.269466  0.000013
     spin moment: S , {S} =    1.39436  -0.00055   0.00153   1.39436
   scf:  189    -3869.287456    -3869.287446    -3869.318886  0.001321 -3.269465  0.000417
     spin moment: S , {S} =    1.39444  -0.00206   0.00814   1.39442
   scf:  190    -3869.287446    -3869.287446    -3869.318886  0.000374 -3.269466  0.000247
     spin moment: S , {S} =    1.39441  -0.00163   0.00628   1.39439
   scf:  191    -3869.287469    -3869.287451    -3869.318886  0.001703 -3.269462  0.001447
     spin moment: S , {S} =    1.39466  -0.00357   0.01482   1.39457
   scf:  192    -3869.287644    -3869.287455    -3869.318886  0.006418 -3.269459  0.002365
     spin moment: S , {S} =    1.39485   0.00375  -0.01747   1.39473
mix: Pulay -- resetting history
   scf:  193    -3869.287595    -3869.287490    -3869.318883  0.004045 -3.269431  0.010741
     spin moment: S , {S} =    1.39658   0.00832  -0.03772   1.39605
   scf:  194    -3869.287469    -3869.287471    -3869.318886  0.001970 -3.269447  0.005963
     spin moment: S , {S} =    1.39559   0.00608  -0.02776   1.39531
   scf:  195    -3869.287488    -3869.287478    -3869.318885  0.000793 -3.269441  0.007726
     spin moment: S , {S} =    1.39596   0.00697  -0.03172   1.39558
   scf:  196    -3869.287584    -3869.287445    -3869.318886  0.006204 -3.269466  0.000109
     spin moment: S , {S} =    1.39438  -0.00008  -0.00053   1.39438
   scf:  197    -3869.287541    -3869.287460    -3869.318886  0.003927 -3.269454  0.003453
     spin moment: S , {S} =    1.39507   0.00433  -0.01988   1.39492
   scf:  198    -3869.287864    -3869.287467    -3869.318886  0.009341 -3.269452  0.005112
     spin moment: S , {S} =    1.39541  -0.00627   0.02689   1.39514
   scf:  199    -3869.287596    -3869.287446    -3869.318886  0.006162 -3.269466  0.000414
     spin moment: S , {S} =    1.39444   0.00074  -0.00408   1.39444
   scf:  200    -3869.287502    -3869.287457    -3869.318886  0.002778 -3.269457  0.002846
     spin moment: S , {S} =    1.39495   0.00389  -0.01800   1.39483
SCF_NOT_CONV: SCF did not converge in maximum number of steps.
Geom step, scf iteration, dmax:    1   200    0.000209

Using DM_out to compute the final energy and forces
No. of atoms with KB's overlaping orbs in proc 0. Max # of overlaps:      29     215

siesta: E_KS(eV) =            -3869.2875

siesta: E_KS - E_eggbox =     -3869.2875
     spin moment: S , {S} =    1.39495   0.00389  -0.01800   1.39483

siesta: Atomic forces (eV/Ang):
     1    0.169577   -0.086437    0.000005
     2    0.043127    0.001368    0.000024
     3    0.065479   -0.010641    0.000106
     4    0.055316   -0.123776   -0.000069
     5   -0.021458    0.136556    0.000102
     6    0.086316    0.143830   -0.000133
     7   -0.923309   -2.119499   -0.000694
     8   11.192842  -46.709601    0.001218
     9   37.042489 -823.050277   -0.003189
    10   -0.185588   -0.346676   -0.000114
    11    3.573703  -17.793974    0.000267
    12    1.322538   -0.744585    0.000036
    13   -0.309492    0.006740    0.000001
    14   -0.159610    0.133086   -0.000021
    15    0.013052   -0.252018   -0.000054
    16   -0.129284    0.102883   -0.000209
    17    0.747923   -0.118261    0.000661
    18    0.156387    0.483727    0.000609
    19   -0.184453   -0.200791    0.000896
    20   -0.328021   -1.001564   -0.003285
    21    0.381552    0.191582    0.004855
    22   -0.045662   -0.058243    0.109879
    23   -0.086371    0.036527   -0.012275
    24   -0.049921    0.008743   -0.089042
    25    2.469531    5.843905   -0.004091
    26  -48.954951  868.485615    0.002397
    27   -3.910519   11.939513    0.001474
    28   -0.219827    5.634558    0.000249
    29   -1.812667    0.570684    0.000561
    30   -1.603998    3.861137   -0.000199
----------------------------------------
   Tot   -1.605299    4.964110    0.009967
----------------------------------------
   Max  868.485615
   Res  126.418423    sqrt( Sum f_i^2 / 3N )
----------------------------------------
   Max  868.485615    constrained

Stress tensor Voigt[x,y,z,yz,xz,xy] (kbar):       -0.56      -41.87       -0.01       -0.01        0.00        3.92
(Free)E + p*V (eV/cell)    -3750.1361
Target enthalpy (eV/cell)    -3869.3189

siesta: Stress tensor (static) (eV/Ang**3):
        -0.000347    0.002447    0.000000
         0.002447   -0.026132   -0.000004
         0.000000   -0.000004   -0.000006

siesta: Pressure (static):         14.14473801  kBar

siesta: Stress tensor (total) (eV/Ang**3):
        -0.000347    0.002447    0.000000
         0.002447   -0.026132   -0.000004
         0.000000   -0.000004   -0.000006

siesta: Pressure (total):         14.14473801  kBar

siesta: Temp_ion =       0.000 K

siesta: Eigenvalues (eV):
ik =     1
  -37.5851  -37.0686  -22.9859  -22.9661  -22.4172  -22.4157  -21.3012  -21.2948  -21.0847  -20.8149
  -20.8137  -20.7284  -19.7437  -19.7260  -19.5653  -19.5644  -19.1753  -19.1303  -18.7585  -18.4722
  -14.6357  -14.4579  -14.3733  -14.3273  -13.9747  -13.9070  -13.7150  -13.6855  -13.5269  -13.4332
  -13.1485  -13.1363  -12.7817  -12.7107  -12.6706  -12.5561  -12.2758  -12.1934  -12.0659  -12.0099
  -11.5765  -11.5413  -11.0036  -10.9724  -10.9654  -10.9332  -10.4646  -10.3919   -9.8638   -9.8163
   -9.6005   -9.5218   -9.0657   -9.0520   -9.0297   -9.0210   -8.9102   -8.9070   -8.7033   -8.6952
   -8.6885   -8.6723   -8.4606   -8.4202   -8.3969   -8.3796   -8.3684   -8.3512   -8.0365   -8.0336
   -7.9746   -7.9546   -7.9028   -7.8907   -7.5574   -7.5441   -7.1691   -7.1116   -7.0820   -6.9590
   -6.8038   -6.7259   -6.6638   -6.6355   -6.4107   -6.4073   -6.2237   -6.2004   -6.1926   -6.0686
   -5.6046   -5.5424   -5.2405   -5.0851   -4.5898   -4.5186   -4.1792   -3.2918   -3.2471   -2.8140
   -2.5626   -2.4504   -2.4342   -2.3946   -2.3444   -2.3428   -2.3266   -2.1814   -2.1267   -2.0627
   -2.0617   -1.9742   -1.8489   -1.7260   -1.7052   -1.6647   -1.4063   -1.3000   -1.2800   -1.2026
   -1.0028   -0.9617   -0.6265   -0.6038   -0.5749   -0.5117   -0.3589   -0.2529    0.0146    0.0362
    0.0657    0.1311    0.1635    0.1787    0.3885    0.4228    0.4753    0.4924    0.6726    0.7795
    0.7875    0.9129    1.0251    1.1118    1.2867    1.4192    1.4947    1.5291    1.7069    1.7328
    1.7464    1.8213    1.8586    1.9320    2.0660    2.1329    2.1472    2.2166    2.4264    2.4680
    2.5102    2.5552    2.6101    2.7520    2.7733    2.7985    2.8593    2.9110    3.0804    3.2282
    3.2945    3.3141    3.4667    3.4962    3.7193    3.7431    3.7639    3.8076    3.8342    3.8650
    4.1290    4.1453    4.2869    4.3174    4.3261    4.4154    4.5223    4.5770    4.5910    4.6922
    4.7470    4.8404    5.0539    5.0991    5.2794    5.3511    5.3847    5.3946    5.4175    5.4349
    5.5849    5.6050    5.6100    5.7032    5.8196    5.8655    5.8709    5.9360    6.0319    6.1783
    6.4481    6.4979    6.5184    6.5495    6.6285    6.6812    6.8500    6.9095    6.9515    6.9765
    7.0125    7.0436    7.0517    7.1523    7.4396    7.4418    7.5034    7.5472    7.5789    7.6200
    7.7829    7.8085    7.8265    7.9181    8.0346    8.1055    8.3977    8.5123    8.5423    8.5541
    8.5574    8.6332    8.8049    8.8503    8.9510    8.9620    9.0037    9.0444    9.3179    9.3847
    9.4539    9.4763    9.4882    9.5203    9.6275    9.7001    9.9341    9.9799   10.0864   10.1119
   10.1470   10.2246   10.4605   10.5842   10.5948   10.6716   10.6778   10.7120   10.9222   10.9767
   11.2049   11.3142   11.4242   11.4679   11.4835   11.5289   11.8428   11.8781   11.9249   11.9502
   12.1414   12.1965   12.3652   12.4303   12.4761   12.5451   12.6195   12.7045   12.8904   12.9472
   13.0050   13.0553   13.0753   13.1521   13.2401   13.2927   13.3949   13.4741   13.7526   13.8165
   13.9213   13.9946   14.0958   14.1531   14.4034   14.4362   14.7867   14.8421   14.9347   14.9754
   15.5311   15.5710   15.6007   15.6365   15.9848   16.0473   16.2973   16.3253   16.5336   16.5667
   16.9018   16.9473   16.9632   16.9914   17.0049   17.0608   17.4040   17.4308   17.6535   17.6770
   17.7483   17.8132   17.8496   17.8738   18.3995   18.4738   18.6052   18.6207   18.8947   18.9911
   19.0056   19.0959   19.7176   19.7573   20.0915   20.1305   20.1614   20.2105   20.7543   20.8094
   21.2595   21.3057   21.5994   21.6635   21.8360   21.8753   21.9663   22.0022   22.3471   22.3791
   22.7689   22.9083   22.9367   22.9947   23.1347   23.1907   23.3568   23.3941   23.9852   24.0312
   24.2271   24.2577   24.5667   24.5938   24.9491   24.9743   25.4916   25.5485   25.6708   25.7293
   26.0877   26.1358   26.2364   26.2427   26.8593   26.9100   27.6537   27.7248   28.1699   28.2419
   28.4240   28.5248   28.6163   28.6713   29.9170   29.9507   30.0419   30.1400   30.3205   30.4089
   30.5582   30.5613   30.6205   30.6994   30.9258   30.9298   31.1000   31.1603   31.6885   31.7476
   31.9948   32.0880   32.4970   32.5611   32.5825   32.6709   33.2396   33.2981   33.3582   33.4058
   34.4042   34.4324   34.4463   34.4839   35.2252   35.2599   35.4421   35.4927   35.7884   35.8508
   35.8859   35.9605   36.9173   36.9231   37.6796   37.8118   38.1791   38.2317   38.9794   38.9964
   39.0332   39.0527   39.4025   39.4189   39.9975   40.0401   40.0792   40.2532   40.2942   40.3851
   41.3741   41.5456   41.7462   41.8894   42.3414   42.4160   42.7213   42.8477   42.9785   43.0457
   43.4779   43.4989   43.6793   43.7016   44.0120   44.1645   44.4155   44.4634   44.6666   44.6764
   45.0107   45.0226   45.1906   45.2966   45.6735   45.7198   46.5472   46.6279   46.9980   47.0110
   47.7125   47.7218   47.8697   47.9207   48.1327   48.1981   48.6074   48.7002   49.1257   49.2378
   49.7178   49.7271   50.0285   50.0423   50.1296   50.1671   50.3365   50.3707   50.7831   50.8082
   52.1061   52.1747   52.3691   52.4288   52.7253   52.8540   53.6321   53.6590   53.6699   53.7079
   54.5669   54.6289   54.9998   55.0341   55.0423   55.1308   56.0759   56.1684   56.5585   56.7094
   56.7228   56.7847   57.2579   57.2955   58.7580   58.7881   58.8432   58.8857   60.0985   60.1293
   60.1341   60.1612   61.7577   61.7684   62.6617   62.7192   62.9127   62.9750   64.9681   64.9875
   65.7701   65.7876   66.5270   66.5510   66.8425   66.9685   67.6905   67.7471   68.9855   69.0161
   70.0301   70.2103   70.6024   70.7055   71.8506   71.9034   72.8109   72.8685   72.9564   73.0068
   80.9246   81.1032   82.3837   82.6722   84.3576   84.7473   89.9963   90.0564   91.3494   91.5708
   91.8600   91.8990   93.6522   93.6771   95.5127   95.5463   97.5482   97.5864   99.6573   99.6789
  101.4979  101.5113  101.9878  101.9974  115.8252  115.9137  120.2267  120.3267  122.6437  122.8652
  127.0492  127.1269  128.2499  128.6520  141.9823  142.0304  147.2084  148.2182  162.3754  162.4252
  195.3118  195.6856  524.9822  525.2754
siesta: Fermi energy =      -3.269457 eV

siesta: Program's energy decomposition (eV):
siesta: Ebs     =     -1170.579563
siesta: Eions   =      3553.971015
siesta: Ena     =       550.719347
siesta: Ekin    =      2877.891505
siesta: Enl     =     -2683.110930
siesta: Eso     =        -0.005258
siesta: Edftu   =         0.000000
siesta: DEna    =        36.694635
siesta: DUscf   =        17.613175
siesta: DUext   =         0.000000
siesta: Exc     =     -1115.118916
siesta: eta*DQ  =         0.000000
siesta: Emadel  =         0.000000
siesta: Emeta   =         0.000000
siesta: Emolmec =         0.000000
siesta: Ekinion =         0.000000
siesta: Eharris =     -3869.287502
siesta: Etot    =     -3869.287457
siesta: FreeEng =     -3869.318886

siesta: Final energy (eV):
siesta:  Band Struct. =   -1170.579563
siesta:       Kinetic =    2877.891505
siesta:       Hartree =   16490.473642
siesta:       Edftu   =       0.000000
siesta:       Eso     =      -0.005258
siesta:    Ext. field =       0.000000
siesta:   Exch.-corr. =   -1115.118916
siesta:  Ion-electron =  -35581.518896
siesta:       Ion-ion =   13458.990466
siesta:       Ekinion =       0.000000
siesta:         Total =   -3869.287457
siesta:         Fermi =      -3.269457

siesta: Atomic forces (eV/Ang):
siesta:      1    0.169577   -0.086437    0.000005
siesta:      2    0.043127    0.001368    0.000024
siesta:      3    0.065479   -0.010641    0.000106
siesta:      4    0.055316   -0.123776   -0.000069
siesta:      5   -0.021458    0.136556    0.000102
siesta:      6    0.086316    0.143830   -0.000133
siesta:      7   -0.923309   -2.119499   -0.000694
siesta:      8   11.192842  -46.709601    0.001218
siesta:      9   37.042489 -823.050277   -0.003189
siesta:     10   -0.185588   -0.346676   -0.000114
siesta:     11    3.573703  -17.793974    0.000267
siesta:     12    1.322538   -0.744585    0.000036
siesta:     13   -0.309492    0.006740    0.000001
siesta:     14   -0.159610    0.133086   -0.000021
siesta:     15    0.013052   -0.252018   -0.000054
siesta:     16   -0.129284    0.102883   -0.000209
siesta:     17    0.747923   -0.118261    0.000661
siesta:     18    0.156387    0.483727    0.000609
siesta:     19   -0.184453   -0.200791    0.000896
siesta:     20   -0.328021   -1.001564   -0.003285
siesta:     21    0.381552    0.191582    0.004855
siesta:     22   -0.045662   -0.058243    0.109879
siesta:     23   -0.086371    0.036527   -0.012275
siesta:     24   -0.049921    0.008743   -0.089042
siesta:     25    2.469531    5.843905   -0.004091
siesta:     26  -48.954951  868.485615    0.002397
siesta:     27   -3.910519   11.939513    0.001474
siesta:     28   -0.219827    5.634558    0.000249
siesta:     29   -1.812667    0.570684    0.000561
siesta:     30   -1.603998    3.861137   -0.000199
siesta: ----------------------------------------
siesta:    Tot   -1.605299    4.964110    0.009967

siesta: Stress tensor (static) (eV/Ang**3):
siesta:    -0.000347    0.002447    0.000000
siesta:     0.002447   -0.026132   -0.000004
siesta:     0.000000   -0.000004   -0.000006

siesta: Cell volume =      13500.000000 Ang**3

siesta: Pressure (static):
siesta:                Solid            Molecule  Units
siesta:           0.00009615         -0.00000092  Ry/Bohr**3
siesta:           0.00882836         -0.00008401  eV/Ang**3
siesta:          14.14473801         -0.13460421  kBar
(Free)E+ p_basis*V_orbitals  =       -3848.190801
(Free)Eharris+ p_basis*V_orbitals  =       -3848.190846
     spin moment: S , {S} =    1.39495   0.00389  -0.01800   1.39483

siesta: Electric dipole (a.u.)  =   -0.805204   -0.642868   -0.000773
siesta: Electric dipole (Debye) =   -2.046627   -1.634009   -0.001965

cite: Please see "AT.bib" for an exhaustive BiBTeX file.
cite: Please clearly indicate Siesta version in published work: v4.1.5-1-g384057250
cite: This calculation has made use of the following articles
cite: which are encouraged to be cited in a published work.
        Primary SIESTA paper
          DOI: www.doi.org/10.1088/0953-8984/14/11/302
        Spin-orbit coupling (on-site approximation)
          DOI: www.doi.org/10.1088/0953-8984/19/19/489001


WARNING: alloc-realloc-dealloc name mismatch
         Name: atomlist isa
         Size:              -120. Bytes
         Node:     0
         Subsequent mismatches will not be reported
>> End of run:   1-FEB-2024  17:42:58
Job completed
