Siesta Version  : v4.1.5-1-g384057250
Architecture    : gcc
Compiler version: GNU Fortran (Ubuntu 11.4.0-1ubuntu1~22.04) 11.4.0
Compiler flags  : mpifort -O2 -fPIC -ftree-vectorize -fallow-argument-mismatch
PP flags        : -DFC_HAVE_ABORT -DMPI -DSIESTA__FLOOK -DSIESTA__METIS -DSIESTA__MUMPS -DCDF -DNCDF -DNCDF_4 -DNCDF_PARALLEL -DSIESTA__MRRR -DSIESTA__ELPA
Libraries       : libncdf.a libfdict.a  -lflookall -ldl -lnetcdff -lnetcdf -lhdf5_hl -lhdf5 -lhdf5_fortran -lz -lscalapack-openmpi -lopenblas -lmetis -lzmumps -lcmumps -ldmumps -lmumps_common -lpord -lsmumps -lesmumps -lscotch -lscotcherr -fopenmp -lelpa
PARALLEL version
NetCDF support
NetCDF-4 support
NetCDF-4 MPI-IO support
METIS ordering support
Lua support

* Running on 8 nodes in parallel
>> Start of run:   1-FEB-2024  19:12:52

                           ***********************       
                           *  WELCOME TO SIESTA  *       
                           ***********************       

reinit: Reading from standard input
reinit: Dumped input in INPUT_TMP.32018
************************** Dump of input data file ****************************
# mpirun -np 4 siesta-4.1.5 < AT.fdf > AT.out &
SystemLabel      AT
NumberOfAtoms    30
NumberOfSpecies  4
%block ChemicalSpeciesLabel
    1    1  H
    2    7  N
    3   14  Si
    4    8  O
%endblock ChemicalSpeciesLabel
############################################
# This overrides Defaults.fdf configuration
############################################
MD.TypeOfRun                Verlet # CG, Verlet
MD.Steps                    0
MaxSCFIterations            200
SCF.MustConverge            F
AtomicCoordinatesFormat NotScaledCartesianAng
%block AtomicCoordinatesAndAtomicSpecies
    2.28494382 -5.19529124 0.0  1  1  H
    1.37433094 -4.6647107 0.0  2  2  N
    -0.21830245 -5.49458215 0.0  3  3  Si
    -0.17484108 -6.98516892 0.0  1  4  H
    -1.66171682 -4.58600741 0.0  2  5  N
    -1.09026419 -2.87456374 0.0  3  6  Si
    -1.53038332 -0.70765692 0.0  3  7  Si
    -3.14415959 -0.09186471 0.0  2  8  N
    -3.40268075 0.95848335 0.0  1  9  H
    -3.95073599 -0.76720972 0.0  1  10  H
    -0.17836637 0.41349951 0.0  2  11  N
    1.49520211 -0.0473996 0.0  3  12  Si
    2.45603905 1.10727302 0.0  1  13  H
    2.30451743 -1.58574382 0.0  2  14  N
    1.10725559 -2.84610319 0.0  3  15  Si
    0.2939479897545895 9.528520796449296 0.0  1  16  H
    -0.5147626902454105 8.836314916449297 0.0  2  17  N
    -2.1713525302454104 9.549435016449298 0.0  3  18  Si
    -2.0744873602454104 11.060160226449296 0.0  1  19  H
    -3.8975088802454105 8.206386886449296 0.0  3  20  Si
    -6.251963130245411 8.198399956449297 0.0  3  21  Si
    -6.814381250245411 8.932889606449297 -1.20183078  1  22  H
    -6.551776880245411 6.719308826449296 -0.08618332  1  23  H
    -6.814493710245411 8.763232416449297 1.28814761  1  24  H
    -2.9681182402454107 6.135815656449297 0.0  3  25  Si
    -3.9175866002454107 4.847279526449297 0.0  4  26  O
    -1.1771733702454106 5.962080186449297 0.0  2  27  N
    -0.8461820102454105 4.929723206449297 0.0  1  28  H
    0.13128484975458948 7.156626606449296 0.0  3  29  Si
    1.6972217797545894 6.889379756449297 0.0  4  30  O
%endblock AtomicCoordinatesAndAtomicSpecies
#############
# Unit Cell
#############
LatticeConstant 1.0 Ang
%block LatticeVectors
    30.00000    0.000000    0.000000
    0.000000    45.00000    0.000000
    0.000000    0.000000    10.00000
%endblock LatticeVectors
%include ../../../../Defaults.fdf
************************** End of input data file *****************************

reinit: -----------------------------------------------------------------------
reinit: System Name: 
reinit: -----------------------------------------------------------------------
reinit: System Label: AT
reinit: -----------------------------------------------------------------------

initatom: Reading input for the pseudopotentials and atomic orbitals ----------
Species number:   1 Atomic number:    1 Label: H
Species number:   2 Atomic number:    7 Label: N
Species number:   3 Atomic number:   14 Label: Si
Species number:   4 Atomic number:    8 Label: O

Ground state valence configuration:   1s01
Reading pseudopotential information in formatted form from H.psf

Pseudopotential generated from a relativistic atomic calculation

Valence configuration for pseudopotential generation:
1s( 1.00) rc: 0.01
2p( 0.00) rc: 0.60
3d( 0.00) rc: 1.99
4f( 0.00) rc: 2.49
Ground state valence configuration:   2s02  2p03
Reading pseudopotential information in formatted form from N.psf

Pseudopotential generated from a relativistic atomic calculation

Valence configuration for pseudopotential generation:
2s( 2.00) rc: 0.94
2p( 3.00) rc: 0.59
3d( 0.00) rc: 3.46
4f( 0.00) rc: 2.47
Ground state valence configuration:   3s02  3p02
Reading pseudopotential information in formatted form from Si.psf

Pseudopotential generated from a relativistic atomic calculation

Valence configuration for pseudopotential generation:
3s( 2.00) rc: 1.67
3p( 2.00) rc: 2.04
3d( 0.00) rc: 2.89
4f( 0.00) rc: 2.49
Ground state valence configuration:   2s02  2p04
Reading pseudopotential information in formatted form from O.psf

Pseudopotential generated from a relativistic atomic calculation

Valence configuration for pseudopotential generation:
2s( 2.00) rc: 0.45
2p( 4.00) rc: 0.92
3d( 0.00) rc: 2.24
4f( 0.00) rc: 0.25
For H, standard SIESTA heuristics set lmxkb to 2
 (one more than the basis l, including polarization orbitals).
Use PS.lmax or PS.KBprojectors blocks to override.
For N, standard SIESTA heuristics set lmxkb to 3
 (one more than the basis l, including polarization orbitals).
Use PS.lmax or PS.KBprojectors blocks to override.
For Si, standard SIESTA heuristics set lmxkb to 3
 (one more than the basis l, including polarization orbitals).
Use PS.lmax or PS.KBprojectors blocks to override.
For O, standard SIESTA heuristics set lmxkb to 3
 (one more than the basis l, including polarization orbitals).
Use PS.lmax or PS.KBprojectors blocks to override.

<basis_specs>
===============================================================================
H                    Z=   1    Mass=  1.0100        Charge= 0.17977+309
Lmxo=0 Lmxkb= 2    BasisType=split      Semic=F
L=0  Nsemic=0  Cnfigmx=1
          i=1  nzeta=2  polorb=1  (1s)
            splnorm:   0.62000    
               vcte:    0.0000    
               rinn:    0.0000    
               qcoe:    0.0000    
               qyuk:    0.0000    
               qwid:   0.10000E-01
                rcs:    0.0000      0.0000    
            lambdas:    1.0000      1.0000    
-------------------------------------------------------------------------------
L=0  Nkbl=1  erefs: 0.17977+309
L=1  Nkbl=1  erefs: 0.17977+309
L=2  Nkbl=1  erefs: 0.17977+309
===============================================================================
</basis_specs>

atom: Called for H                     (Z =   1)

read_vps: Pseudopotential generation method:
read_vps: ATM4.2.7  Troullier-Martins                       
Valence charge for ps generation:    1.00000

xc_check: Exchange-correlation functional:
xc_check: GGA Perdew, Burke & Ernzerhof 1996
V l=0 = -2*Zval/r beyond r=  0.0098
V l=1 = -2*Zval/r beyond r=  0.5817
V l=2 = -2*Zval/r beyond r=  1.9372
All V_l potentials equal beyond r=  1.9372
This should be close to max(r_c) in ps generation
All pots = -2*Zval/r beyond r=  1.9372

VLOCAL1: 99.0% of the norm of Vloc inside     11.567 Ry
VLOCAL1: 99.9% of the norm of Vloc inside     26.362 Ry
atom: Maximum radius for 4*pi*r*r*local-pseudopot. charge    2.25106
atom: Maximum radius for r*vlocal+2*Zval:    1.91306
GHOST: No ghost state for L =  0
GHOST: No ghost state for L =  1
GHOST: No ghost state for L =  2

KBgen: Kleinman-Bylander projectors: 
   l= 0   rc=  2.036604   el= -0.477180   Ekb= -6.081590   kbcos= -0.277285
   l= 1   rc=  2.195416   el=  0.001076   Ekb= -0.926943   kbcos= -0.034643
   l= 2   rc=  2.251056   el=  0.002010   Ekb= -0.130941   kbcos= -0.009788

KBgen: Total number of Kleinman-Bylander projectors:    9
atom: -------------------------------------------------------------------------

atom: SANKEY-TYPE ORBITALS:
atom: Selected multiple-zeta basis: split     

SPLIT: Orbitals with angular momentum L= 0

SPLIT: Basis orbitals for state 1s

SPLIT: PAO cut-off radius determined from an
SPLIT: energy shift=  0.002000 Ry

   izeta = 1
                 lambda =    1.000000
                     rc =    6.518340
                 energy =   -0.475305
                kinetic =    0.912139
    potential(screened) =   -1.387444
       potential(ionic) =   -1.907295

   izeta = 2
                 rmatch =    2.141150
              splitnorm =    0.620000
                 energy =    0.566467
                kinetic =    3.772856
    potential(screened) =   -3.206389
       potential(ionic) =   -3.759093

POLgen: Perturbative polarization orbital with L=  1

POLgen: Polarization orbital for state 1s

   izeta = 1
                     rc =    6.518340
                 energy =    0.533861
                kinetic =    1.121086
    potential(screened) =   -0.587225
       potential(ionic) =   -1.053027
atom: Total number of Sankey-type orbitals:  5

atm_pop: Valence configuration (for local Pseudopot. screening):
 1s( 1.00)                                                            
Vna: chval, zval:    1.00000   1.00000

Vna:  Cut-off radius for the neutral-atom potential:   6.518340

atom: _________________________________________________________________________

<basis_specs>
===============================================================================
N                    Z=   7    Mass=  14.010        Charge= 0.17977+309
Lmxo=1 Lmxkb= 3    BasisType=split      Semic=F
L=0  Nsemic=0  Cnfigmx=2
          i=1  nzeta=2  polorb=0  (2s)
            splnorm:   0.28000    
               vcte:    0.0000    
               rinn:    0.0000    
               qcoe:    0.0000    
               qyuk:    0.0000    
               qwid:   0.10000E-01
                rcs:    0.0000      0.0000    
            lambdas:    1.0000      1.0000    
L=1  Nsemic=0  Cnfigmx=2
          i=1  nzeta=2  polorb=1  (2p)
            splnorm:   0.28000    
               vcte:    0.0000    
               rinn:    0.0000    
               qcoe:    0.0000    
               qyuk:    0.0000    
               qwid:   0.10000E-01
                rcs:    0.0000      0.0000    
            lambdas:    1.0000      1.0000    
-------------------------------------------------------------------------------
L=0  Nkbl=1  erefs: 0.17977+309
L=1  Nkbl=1  erefs: 0.17977+309
L=2  Nkbl=1  erefs: 0.17977+309
L=3  Nkbl=1  erefs: 0.17977+309
===============================================================================
</basis_specs>

atom: Called for N                     (Z =   7)

read_vps: Pseudopotential generation method:
read_vps: ATM4.2.7  Troullier-Martins                       
Valence charge for ps generation:    5.00000

xc_check: Exchange-correlation functional:
xc_check: GGA Perdew, Burke & Ernzerhof 1996
V l=0 = -2*Zval/r beyond r=  1.2889
V l=1 = -2*Zval/r beyond r=  1.2889
V l=2 = -2*Zval/r beyond r=  3.4178
V l=3 = -2*Zval/r beyond r=  2.4084
All V_l potentials equal beyond r=  3.3753
This should be close to max(r_c) in ps generation
All pots = -2*Zval/r beyond r=  3.4178

VLOCAL1: 99.0% of the norm of Vloc inside      3.810 Ry
VLOCAL1: 99.9% of the norm of Vloc inside      8.683 Ry
atom: Maximum radius for 4*pi*r*r*local-pseudopot. charge    4.02088
atom: Maximum radius for r*vlocal+2*Zval:    3.54838
GHOST: No ghost state for L =  0
GHOST: No ghost state for L =  1
GHOST: No ghost state for L =  2
GHOST: No ghost state for L =  3

KBgen: Kleinman-Bylander projectors: 
   l= 0   rc=  3.417763   el= -1.365098   Ekb= -4.433130   kbcos= -0.707855
   l= 1   rc=  3.375302   el= -0.521201   Ekb=-13.264039   kbcos= -0.535594
   l= 2   rc=  3.872880   el=  0.001991   Ekb= -0.641094   kbcos= -0.062456
   l= 3   rc=  3.970931   el=  0.003093   Ekb= -0.474517   kbcos= -0.018236

KBgen: Total number of Kleinman-Bylander projectors:   16
atom: -------------------------------------------------------------------------

atom: SANKEY-TYPE ORBITALS:
atom: Selected multiple-zeta basis: split     

SPLIT: Orbitals with angular momentum L= 0

SPLIT: Basis orbitals for state 2s

SPLIT: PAO cut-off radius determined from an
SPLIT: energy shift=  0.002000 Ry

   izeta = 1
                 lambda =    1.000000
                     rc =    4.730425
                 energy =   -1.363399
                kinetic =    1.245246
    potential(screened) =   -2.608645
       potential(ionic) =   -8.121105

   izeta = 2
                 rmatch =    2.531849
              splitnorm =    0.280000
                 energy =   -0.959908
                kinetic =    2.409435
    potential(screened) =   -3.369343
       potential(ionic) =   -9.427975

SPLIT: Orbitals with angular momentum L= 1

SPLIT: Basis orbitals for state 2p

SPLIT: PAO cut-off radius determined from an
SPLIT: energy shift=  0.002000 Ry

   izeta = 1
                 lambda =    1.000000
                     rc =    5.924108
                 energy =   -0.519262
                kinetic =    3.672940
    potential(screened) =   -4.192202
       potential(ionic) =   -9.518354

   izeta = 2
                 rmatch =    2.531849
              splitnorm =    0.280000
                 energy =   -0.104258
                kinetic =    6.807538
    potential(screened) =   -6.911796
       potential(ionic) =  -13.149920

POLgen: Perturbative polarization orbital with L=  2

POLgen: Polarization orbital for state 2p

   izeta = 1
                     rc =    5.924108
                 energy =    1.427508
                kinetic =    2.872379
    potential(screened) =   -1.444871
       potential(ionic) =   -5.563644
atom: Total number of Sankey-type orbitals: 13

atm_pop: Valence configuration (for local Pseudopot. screening):
 2s( 2.00)                                                            
 2p( 3.00)                                                            
Vna: chval, zval:    5.00000   5.00000

Vna:  Cut-off radius for the neutral-atom potential:   5.924108

atom: _________________________________________________________________________

<basis_specs>
===============================================================================
Si                   Z=  14    Mass=  28.090        Charge= 0.17977+309
Lmxo=1 Lmxkb= 3    BasisType=split      Semic=F
L=0  Nsemic=0  Cnfigmx=3
          i=1  nzeta=2  polorb=0  (3s)
            splnorm:   0.28000    
               vcte:    0.0000    
               rinn:    0.0000    
               qcoe:    0.0000    
               qyuk:    0.0000    
               qwid:   0.10000E-01
                rcs:    0.0000      0.0000    
            lambdas:    1.0000      1.0000    
L=1  Nsemic=0  Cnfigmx=3
          i=1  nzeta=2  polorb=1  (3p)
            splnorm:   0.28000    
               vcte:    0.0000    
               rinn:    0.0000    
               qcoe:    0.0000    
               qyuk:    0.0000    
               qwid:   0.10000E-01
                rcs:    0.0000      0.0000    
            lambdas:    1.0000      1.0000    
-------------------------------------------------------------------------------
L=0  Nkbl=1  erefs: 0.17977+309
L=1  Nkbl=1  erefs: 0.17977+309
L=2  Nkbl=1  erefs: 0.17977+309
L=3  Nkbl=1  erefs: 0.17977+309
===============================================================================
</basis_specs>

atom: Called for Si                    (Z =  14)

read_vps: Pseudopotential generation method:
read_vps: ATM4.2.7  Troullier-Martins                       
Valence charge for ps generation:    4.00000

xc_check: Exchange-correlation functional:
xc_check: GGA Perdew, Burke & Ernzerhof 1996
V l=0 = -2*Zval/r beyond r=  2.7826
V l=1 = -2*Zval/r beyond r=  2.7826
V l=2 = -2*Zval/r beyond r=  2.9253
V l=3 = -2*Zval/r beyond r=  2.7826
All V_l potentials equal beyond r=  2.8530
This should be close to max(r_c) in ps generation
All pots = -2*Zval/r beyond r=  2.9253

VLOCAL1: 99.0% of the norm of Vloc inside      5.333 Ry
VLOCAL1: 99.9% of the norm of Vloc inside     12.154 Ry
atom: Maximum radius for 4*pi*r*r*local-pseudopot. charge    3.39869
atom: Maximum radius for r*vlocal+2*Zval:    2.96205
GHOST: No ghost state for L =  0
GHOST: No ghost state for L =  1
GHOST: No ghost state for L =  2
GHOST: No ghost state for L =  3

KBgen: Kleinman-Bylander projectors: 
   l= 0   rc=  3.075247   el= -0.794092   Ekb=  5.879390   kbcos=  0.167461
   l= 1   rc=  3.153101   el= -0.300068   Ekb=  2.642817   kbcos=  0.058301
   l= 2   rc=  3.273594   el=  0.001958   Ekb= -1.185135   kbcos= -0.104411
   l= 3   rc=  3.232927   el=  0.003046   Ekb= -0.497174   kbcos= -0.015889

KBgen: Total number of Kleinman-Bylander projectors:   16
atom: -------------------------------------------------------------------------

atom: SANKEY-TYPE ORBITALS:
atom: Selected multiple-zeta basis: split     

SPLIT: Orbitals with angular momentum L= 0

SPLIT: Basis orbitals for state 3s

SPLIT: PAO cut-off radius determined from an
SPLIT: energy shift=  0.002000 Ry

   izeta = 1
                 lambda =    1.000000
                     rc =    6.429618
                 energy =   -0.792283
                kinetic =    0.525293
    potential(screened) =   -1.317576
       potential(ionic) =   -3.744923

   izeta = 2
                 rmatch =    3.998416
              splitnorm =    0.280000
                 energy =   -0.583081
                kinetic =    1.069570
    potential(screened) =   -1.652651
       potential(ionic) =   -4.235185

SPLIT: Orbitals with angular momentum L= 1

SPLIT: Basis orbitals for state 3p

SPLIT: PAO cut-off radius determined from an
SPLIT: energy shift=  0.002000 Ry

   izeta = 1
                 lambda =    1.000000
                     rc =    8.464845
                 energy =   -0.298236
                kinetic =    0.785360
    potential(screened) =   -1.083596
       potential(ionic) =   -3.273779

   izeta = 2
                 rmatch =    4.587816
              splitnorm =    0.280000
                 energy =   -0.131871
                kinetic =    1.403687
    potential(screened) =   -1.535557
       potential(ionic) =   -4.015310

POLgen: Perturbative polarization orbital with L=  2

POLgen: Polarization orbital for state 3p

   izeta = 1
                     rc =    8.464845
                 energy =    0.321949
                kinetic =    1.055677
    potential(screened) =   -0.733728
       potential(ionic) =   -2.672950
atom: Total number of Sankey-type orbitals: 13

atm_pop: Valence configuration (for local Pseudopot. screening):
 3s( 2.00)                                                            
 3p( 2.00)                                                            
Vna: chval, zval:    4.00000   4.00000

Vna:  Cut-off radius for the neutral-atom potential:   8.464845

atom: _________________________________________________________________________

<basis_specs>
===============================================================================
O                    Z=   8    Mass=  16.000        Charge= 0.17977+309
Lmxo=1 Lmxkb= 3    BasisType=split      Semic=F
L=0  Nsemic=0  Cnfigmx=2
          i=1  nzeta=2  polorb=0  (2s)
            splnorm:   0.28000    
               vcte:    0.0000    
               rinn:    0.0000    
               qcoe:    0.0000    
               qyuk:    0.0000    
               qwid:   0.10000E-01
                rcs:    0.0000      0.0000    
            lambdas:    1.0000      1.0000    
L=1  Nsemic=0  Cnfigmx=2
          i=1  nzeta=2  polorb=1  (2p)
            splnorm:   0.28000    
               vcte:    0.0000    
               rinn:    0.0000    
               qcoe:    0.0000    
               qyuk:    0.0000    
               qwid:   0.10000E-01
                rcs:    0.0000      0.0000    
            lambdas:    1.0000      1.0000    
-------------------------------------------------------------------------------
L=0  Nkbl=1  erefs: 0.17977+309
L=1  Nkbl=1  erefs: 0.17977+309
L=2  Nkbl=1  erefs: 0.17977+309
L=3  Nkbl=1  erefs: 0.17977+309
===============================================================================
</basis_specs>

atom: Called for O                     (Z =   8)

read_vps: Pseudopotential generation method:
read_vps: ATM4.2.7  Troullier-Martins                       
Valence charge for ps generation:    6.00000

xc_check: Exchange-correlation functional:
xc_check: GGA Perdew, Burke & Ernzerhof 1996
V l=0 = -2*Zval/r beyond r=  1.1000
V l=1 = -2*Zval/r beyond r=  1.1000
V l=2 = -2*Zval/r beyond r=  2.2154
V l=3 = -2*Zval/r beyond r=  1.1000
All V_l potentials equal beyond r=  2.2154
This should be close to max(r_c) in ps generation
All pots = -2*Zval/r beyond r=  2.2154

VLOCAL1: 99.0% of the norm of Vloc inside      8.845 Ry
VLOCAL1: 99.9% of the norm of Vloc inside     20.157 Ry
atom: Maximum radius for 4*pi*r*r*local-pseudopot. charge    2.67231
atom: Maximum radius for r*vlocal+2*Zval:    2.32897
GHOST: No ghost state for L =  0
GHOST: No ghost state for L =  1
GHOST: No ghost state for L =  2
GHOST: No ghost state for L =  3

KBgen: Kleinman-Bylander projectors: 
   l= 0   rc=  2.243238   el= -1.759686   Ekb=**********   kbcos= -0.171774
   l= 1   rc=  2.328968   el= -0.663873   Ekb=-14.506792   kbcos= -0.519897
   l= 2   rc=  2.573941   el=  0.002031   Ekb= -1.137373   kbcos= -0.019581
   l= 3   rc=  2.606321   el=  0.003153   Ekb= -1.013546   kbcos= -0.003122

KBgen: Total number of Kleinman-Bylander projectors:   16
atom: -------------------------------------------------------------------------

atom: SANKEY-TYPE ORBITALS:
atom: Selected multiple-zeta basis: split     

SPLIT: Orbitals with angular momentum L= 0

SPLIT: Basis orbitals for state 2s

SPLIT: PAO cut-off radius determined from an
SPLIT: energy shift=  0.002000 Ry

   izeta = 1
                 lambda =    1.000000
                     rc =    4.243912
                 energy =   -1.758270
                kinetic =    3.286084
    potential(screened) =   -5.044353
       potential(ionic) =  -12.921184

   izeta = 2
                 rmatch =    2.187845
              splitnorm =    0.280000
                 energy =   -0.885018
                kinetic =    8.134434
    potential(screened) =   -9.019452
       potential(ionic) =  -17.710645

SPLIT: Orbitals with angular momentum L= 1

SPLIT: Basis orbitals for state 2p

SPLIT: PAO cut-off radius determined from an
SPLIT: energy shift=  0.002000 Ry

   izeta = 1
                 lambda =    1.000000
                     rc =    5.314825
                 energy =   -0.661986
                kinetic =    4.917472
    potential(screened) =   -5.579458
       potential(ionic) =  -13.236259

   izeta = 2
                 rmatch =    2.160663
              splitnorm =    0.280000
                 energy =   -0.068760
                kinetic =    9.183374
    potential(screened) =   -9.252135
       potential(ionic) =  -18.274251

POLgen: Perturbative polarization orbital with L=  2

POLgen: Polarization orbital for state 2p

   izeta = 1
                     rc =    5.314825
                 energy =    1.970580
                kinetic =    3.886128
    potential(screened) =   -1.915547
       potential(ionic) =   -7.749584
atom: Total number of Sankey-type orbitals: 13

atm_pop: Valence configuration (for local Pseudopot. screening):
 2s( 2.00)                                                            
 2p( 4.00)                                                            
Vna: chval, zval:    6.00000   6.00000

Vna:  Cut-off radius for the neutral-atom potential:   5.314825

atom: _________________________________________________________________________

prinput: Basis input ----------------------------------------------------------

PAO.BasisType split     

%block ChemicalSpeciesLabel
    1    1 H                       # Species index, atomic number, species label
    2    7 N                       # Species index, atomic number, species label
    3   14 Si                      # Species index, atomic number, species label
    4    8 O                       # Species index, atomic number, species label
%endblock ChemicalSpeciesLabel

%block PAO.Basis                 # Define Basis set
H                     1                    # Species label, number of l-shells
 n=1   0   2 P   1                   # n, l, Nzeta, Polarization, NzetaPol
   6.518      2.141   
   1.000      1.000   
N                     2                    # Species label, number of l-shells
 n=2   0   2                         # n, l, Nzeta 
   4.730      2.532   
   1.000      1.000   
 n=2   1   2 P   1                   # n, l, Nzeta, Polarization, NzetaPol
   5.924      2.532   
   1.000      1.000   
Si                    2                    # Species label, number of l-shells
 n=3   0   2                         # n, l, Nzeta 
   6.430      3.998   
   1.000      1.000   
 n=3   1   2 P   1                   # n, l, Nzeta, Polarization, NzetaPol
   8.465      4.588   
   1.000      1.000   
O                     2                    # Species label, number of l-shells
 n=2   0   2                         # n, l, Nzeta 
   4.244      2.188   
   1.000      1.000   
 n=2   1   2 P   1                   # n, l, Nzeta, Polarization, NzetaPol
   5.315      2.161   
   1.000      1.000   
%endblock PAO.Basis

prinput: ----------------------------------------------------------------------

Dumping basis to NetCDF file H.ion.nc
Dumping basis to NetCDF file N.ion.nc
Dumping basis to NetCDF file Si.ion.nc
Dumping basis to NetCDF file O.ion.nc
coor:   Atomic-coordinates input format  =     Cartesian coordinates
coor:                                          (in Angstroms)

siesta: Atomic coordinates (Bohr) and species
siesta:      4.31792  -9.81768   0.00000  1        1
siesta:      2.59711  -8.81503   0.00000  2        2
siesta:     -0.41253 -10.38326   0.00000  3        3
siesta:     -0.33040 -13.20006   0.00000  1        4
siesta:     -3.14019  -8.66630   0.00000  2        5
siesta:     -2.06030  -5.43214   0.00000  3        6
siesta:     -2.89201  -1.33728   0.00000  3        7
siesta:     -5.94160  -0.17360   0.00000  2        8
siesta:     -6.43014   1.81127   0.00000  1        9
siesta:     -7.46581  -1.44982   0.00000  1       10
siesta:     -0.33706   0.78140   0.00000  2       11
siesta:      2.82552  -0.08957   0.00000  3       12
siesta:      4.64124   2.09244   0.00000  1       13
siesta:      4.35491  -2.99662   0.00000  2       14
siesta:      2.09241  -5.37836   0.00000  3       15
siesta:      0.55548  18.00630   0.00000  1       16
siesta:     -0.97276  16.69822   0.00000  2       17
siesta:     -4.10326  18.04582   0.00000  3       18
siesta:     -3.92021  20.90068   0.00000  1       19
siesta:     -7.36523  15.50783   0.00000  3       20
siesta:    -11.81450  15.49274   0.00000  3       21
siesta:    -12.87732  16.88072  -2.27113  1       22
siesta:    -12.38107  12.69766  -0.16286  1       23
siesta:    -12.87753  16.56012   2.43425  1       24
siesta:     -5.60893  11.59502   0.00000  3       25
siesta:     -7.40317   9.16003   0.00000  4       26
siesta:     -2.22454  11.26670   0.00000  2       27
siesta:     -1.59905   9.31583   0.00000  1       28
siesta:      0.24809  13.52407   0.00000  3       29
siesta:      3.20729  13.01905   0.00000  4       30

siesta: System type = molecule  

initatomlists: Number of atoms, orbitals, and projectors:     30   302   403

siesta: ******************** Simulation parameters ****************************
siesta:
siesta: The following are some of the parameters of the simulation.
siesta: A complete list of the parameters used, including default values,
siesta: can be found in file out.fdf
siesta:
redata: Spin configuration                          = spin-orbit
redata: Number of spin components                   = 8
redata: Time-Reversal Symmetry                      = F
redata: Spin spiral                                 = F
############################################################
This spin-orbit implementation uses a local approximation.
From 4.2 and onwards the full non-local approximation is implemented
You are strongly advised to use >=4.2 versions!
############################################################
redata: Long output                                 =   F
redata: Number of Atomic Species                    =        4
redata: Charge density info will appear in .RHO file
redata: Write Mulliken Pop.                         = NO
redata: Matel table size (NRTAB)                    =     1024
redata: Mesh Cutoff                                 =   340.0000 Ry
redata: Net charge of the system                    =     0.0000 |e|
redata: Min. number of SCF Iter                     =        1
redata: Max. number of SCF Iter                     =      200
redata: SCF mix quantity                            = Hamiltonian
redata: Mix DM or H after convergence               =   F
redata: Recompute H after scf cycle                 =   F
redata: Mix DM in first SCF step                    =   T
redata: Write Pulay info on disk                    =   F
redata: New DM Occupancy tolerance                  = 0.000000000001
redata: No kicks to SCF
redata: DM Mixing Weight for Kicks                  =     0.5000
redata: Require Harris convergence for SCF          =   F
redata: Harris energy tolerance for SCF             =     0.000100 eV
redata: Require DM convergence for SCF              =   T
redata: DM tolerance for SCF                        =     0.000008
redata: Require EDM convergence for SCF             =   F
redata: EDM tolerance for SCF                       =     0.001000 eV
redata: Require H convergence for SCF               =   T
redata: Hamiltonian tolerance for SCF               =     0.000001 eV
redata: Require (free) Energy convergence for SCF   =   F
redata: (free) Energy tolerance for SCF             =     0.000100 eV
redata: Using Saved Data (generic)                  =   F
redata: Use continuation files for DM               =   T
redata: Neglect nonoverlap interactions             =   F
redata: Method of Calculation                       = Diagonalization
redata: Electronic Temperature                      =   299.9978 K
redata: Fix the spin of the system                  =   F
redata: Dynamics option                             = Verlet MD run
redata: Initial MD time step                        =        1
redata:   Final MD time step                        =        1
redata: Length of MD time step                      =     0.5000 fs
redata: Initial Temperature of MD run               =     0.0000 K
redata: Perform a MD quench                         =   F
mix.SCF: Pulay mixing                            = Pulay
mix.SCF:    Variant                              = stable
mix.SCF:    History steps                        = 6
mix.SCF:    Linear mixing weight                 =     0.250000
mix.SCF:    Mixing weight                        =     0.250000
mix.SCF:    SVD condition                        = 0.1000E-07
mix.SCF:    Restart steps                        = 24
mix.SCF:    Restart save steps                   = 3
mix.SCF: Spin-component mixing                   all
redata: Save all siesta data in one NC              =   F
redata: ***********************************************************************

%block SCF.Mixers
  Pulay
%endblock SCF.Mixers

%block SCF.Mixer.Pulay
  # Mixing method
  method pulay
  variant stable

  # Mixing options
  weight 0.2500
  weight.linear 0.2500
  history 6
  restart 24
  restart.save 3
%endblock SCF.Mixer.Pulay

Size of DM history Fstack: 3
Total number of electrons:    98.000000
Total ionic charge:    98.000000

* ProcessorY, Blocksize:    2  24


* Orbital distribution balance (max,min):    48    24


Time-reversal symmetry not used.

siesta: k-grid: Number of k-points =     1
siesta: k-grid: Cutoff (effective) =     5.000 Ang
siesta: k-grid: Supercell and displacements
siesta: k-grid:    1   0   0      0.000
siesta: k-grid:    0   1   0      0.000
siesta: k-grid:    0   0   1      0.000

diag: Algorithm                                     = ELPA-1stage
diag: Parallel over k                               =   F
diag: Use parallel 2D distribution                  =   T
diag: Parallel block-size                           = 24
diag: Parallel distribution                         =     2 x     4
diag: Used triangular part                          = Lower
diag: Absolute tolerance                            =  0.100E-15
diag: Orthogonalization factor                      =  0.100E-05
diag: Memory factor                                 =  1.0000


ts: **************************************************************
ts: Save H and S matrices                           =    F
ts: Save DM and EDM matrices                        =    F
ts: Only save the overlap matrix S                  =    F
ts: **************************************************************

************************ Begin: TS CHECKS AND WARNINGS ************************
************************ End: TS CHECKS AND WARNINGS **************************


                     ====================================
                        Begin MD step =      1
                     ====================================

outcoor: Atomic coordinates (Ang):                          
    2.28494382   -5.19529124    0.00000000   1       1  H
    1.37433094   -4.66471070    0.00000000   2       2  N
   -0.21830245   -5.49458215    0.00000000   3       3  Si
   -0.17484108   -6.98516892    0.00000000   1       4  H
   -1.66171682   -4.58600741    0.00000000   2       5  N
   -1.09026419   -2.87456374    0.00000000   3       6  Si
   -1.53038332   -0.70765692    0.00000000   3       7  Si
   -3.14415959   -0.09186471    0.00000000   2       8  N
   -3.40268075    0.95848335    0.00000000   1       9  H
   -3.95073599   -0.76720972    0.00000000   1      10  H
   -0.17836637    0.41349951    0.00000000   2      11  N
    1.49520211   -0.04739960    0.00000000   3      12  Si
    2.45603905    1.10727302    0.00000000   1      13  H
    2.30451743   -1.58574382    0.00000000   2      14  N
    1.10725559   -2.84610319    0.00000000   3      15  Si
    0.29394799    9.52852080    0.00000000   1      16  H
   -0.51476269    8.83631492    0.00000000   2      17  N
   -2.17135253    9.54943502    0.00000000   3      18  Si
   -2.07448736   11.06016023    0.00000000   1      19  H
   -3.89750888    8.20638689    0.00000000   3      20  Si
   -6.25196313    8.19839996    0.00000000   3      21  Si
   -6.81438125    8.93288961   -1.20183078   1      22  H
   -6.55177688    6.71930883   -0.08618332   1      23  H
   -6.81449371    8.76323242    1.28814761   1      24  H
   -2.96811824    6.13581566    0.00000000   3      25  Si
   -3.91758660    4.84727953    0.00000000   4      26  O
   -1.17717337    5.96208019    0.00000000   2      27  N
   -0.84618201    4.92972321    0.00000000   1      28  H
    0.13128485    7.15662661    0.00000000   3      29  Si
    1.69722178    6.88937976    0.00000000   4      30  O

outcell: Unit cell vectors (Ang):
       30.000000    0.000000    0.000000
        0.000000   45.000000    0.000000
        0.000000    0.000000   10.000000

outcell: Cell vector modules (Ang)   :   30.000000   45.000000   10.000000
outcell: Cell angles (23,13,12) (deg):     90.0000     90.0000     90.0000
outcell: Cell volume (Ang**3)        :  13500.0000
<dSpData1D:S at geom step 1
  <sparsity:sparsity for geom step 1
    nrows_g=302 nrows=48 sparsity=.0796 nnzs=7262, refcount: 8>
  <dData1D:(new from dSpData1D) n=7262, refcount: 1>
refcount: 1>
new_DM -- step:     1
Initializing Density Matrix...

Attempting to read DM from file... Failed...
DM filled with atomic data:
<dSpData2D:DM initialized from atoms
  <sparsity:sparsity for geom step 1
    nrows_g=302 nrows=48 sparsity=.0796 nnzs=7262, refcount: 9>
  <dData2D:DM n=7262 m=8, refcount: 1>
refcount: 1>
     spin moment: S , {S} =   56.00000   0.00000   0.00000  56.00000
No. of atoms with KB's overlaping orbs in proc 0. Max # of overlaps:      27     141

Initializing spin-orbit part of the Hamiltonian
  Adding spin-orbit effects for H 
  Adding spin-orbit effects for N 
  Adding spin-orbit effects for Si
  Adding spin-orbit effects for O 


New grid distribution:   1
           1       1:  180    1:  125    1:   15
           2       1:  180    1:  125   16:   30
           3       1:  180    1:  125   31:   45
           4       1:  180    1:  125   46:   60
           5       1:  180  126:  250    1:   15
           6       1:  180  126:  250   16:   30
           7       1:  180  126:  250   31:   45
           8       1:  180  126:  250   46:   60

InitMesh: MESH =   360 x   500 x   120 =    21600000
InitMesh: (bp) =   180 x   250 x    60 =     2700000
InitMesh: Mesh cutoff (required, used) =   340.000   341.206 Ry
ExtMesh (bp) on 0 =   288 x   225 x   123 =     7970400
New grid distribution:   2
           1       1:  159    1:   37    1:   60
           2       1:  151  233:  250    1:   60
           3       1:  159   38:   54    1:   60
           4     160:  180   37:   54    1:   60
           5       1:  151   55:  232    1:   60
           6     152:  180   55:  231    1:   60
           7     160:  180    1:   36    1:   60
           8     152:  180  232:  250    1:   60
New grid distribution:   3
           1     147:  180   56:  217    1:   60
           2       1:  142    1:   33    1:   60
           3       1:  142   34:   55    1:   60
           4     143:  180   32:   55    1:   60
           5       1:  146   56:  220    1:   60
           6       1:  146  221:  250    1:   60
           7     143:  180    1:   31    1:   60
           8     147:  180  218:  250    1:   60
Setting up quadratic distribution...
ExtMesh (bp) on 0 =   267 x   137 x   168 =     6145272
PhiOnMesh: Number of (b)points on node 0 =               352980
PhiOnMesh: nlist on node 0 =              1761299

stepf: Fermi-Dirac step function

siesta: Program's energy decomposition (eV):
siesta: Ebs     =      -617.980041
siesta: Eions   =      3553.971015
siesta: Ena     =       374.984298
siesta: Ekin    =      3171.584995
siesta: Enl     =     -2984.938011
siesta: Eso     =        -0.003878
siesta: Edftu   =         0.000000
siesta: DEna    =       129.754181
siesta: DUscf   =        75.617817
siesta: DUext   =         0.000000
siesta: Exc     =     -1168.713288
siesta: eta*DQ  =         0.000000
siesta: Emadel  =         0.000000
siesta: Emeta   =         0.000000
siesta: Emolmec =         0.000000
siesta: Ekinion =         0.000000
siesta: Eharris =     -3884.740226
siesta: Etot    =     -3955.684900
siesta: FreeEng =     -3955.688248

        iscf     Eharris(eV)        E_KS(eV)     FreeEng(eV)     dDmax    Ef(eV) dHmax(eV)
   scf:    1    -3884.740226    -3955.684900    -3955.688248  0.970569 -4.935560 21.658880
     spin moment: S , {S} =    2.02383  -0.00000  -0.00000   2.02383
timer: Routine,Calls,Time,% = IterSCF        1      10.862  32.80
   scf:    2    -3996.197842    -3988.788378    -3988.788384  0.465688 -4.235817 11.230949
     spin moment: S , {S} =    2.00009   0.00000  -0.00000   2.00009
   scf:    3    -3957.328261    -3985.320673    -3985.355447  0.424082 -4.156295 12.475932
     spin moment: S , {S} =    1.98187  -0.00000  -0.00000   1.98187
   scf:    4    -4002.458516    -3997.277006    -3997.277008  0.251222 -3.855271  8.156208
     spin moment: S , {S} =    0.00011  -0.00000   0.00000   0.00011
   scf:    5    -3998.686094    -3998.050228    -3998.050228  0.036700 -3.730210  5.478981
     spin moment: S , {S} =    0.00006  -0.00000   0.00000   0.00006
   scf:    6    -3998.891942    -3998.468669    -3998.468669  0.028465 -3.702098  2.621266
     spin moment: S , {S} =    0.00003  -0.00000   0.00000   0.00003
   scf:    7    -3998.852977    -3998.655651    -3998.655651  0.022503 -3.766747  0.842716
     spin moment: S , {S} =    0.00001  -0.00000   0.00000   0.00001
   scf:    8    -3998.778743    -3998.715393    -3998.715393  0.011863 -3.801880  0.514739
     spin moment: S , {S} =    0.00000  -0.00000   0.00000   0.00000
   scf:    9    -3998.765180    -3998.739234    -3998.739234  0.007105 -3.818400  0.402165
     spin moment: S , {S} =    0.00000  -0.00000   0.00000   0.00000
   scf:   10    -3998.800593    -3998.760493    -3998.760494  0.023850 -3.850227  0.226001
     spin moment: S , {S} =    0.00000  -0.00000  -0.00000  -0.00000
   scf:   11    -3998.765202    -3998.762988    -3998.762990  0.004124 -3.836093  0.075891
     spin moment: S , {S} =    0.00000  -0.00000  -0.00000  -0.00000
   scf:   12    -3998.764007    -3998.763524    -3998.763526  0.001246 -3.832830  0.043411
     spin moment: S , {S} =    0.00000  -0.00000  -0.00000   0.00000
   scf:   13    -3998.764260    -3998.763888    -3998.763891  0.000913 -3.830459  0.023593
     spin moment: S , {S} =    0.00000  -0.00000  -0.00000   0.00000
   scf:   14    -3998.764197    -3998.764037    -3998.764040  0.000642 -3.829472  0.014750
     spin moment: S , {S} =    0.00000  -0.00000  -0.00000   0.00000
   scf:   15    -3998.764206    -3998.764117    -3998.764119  0.000730 -3.829056  0.008316
     spin moment: S , {S} =    0.00000   0.00000  -0.00000   0.00000
   scf:   16    -3998.764184    -3998.764147    -3998.764149  0.000564 -3.828986  0.003491
     spin moment: S , {S} =    0.00000   0.00000  -0.00000   0.00000
   scf:   17    -3998.764159    -3998.764153    -3998.764155  0.000239 -3.829139  0.003218
     spin moment: S , {S} =    0.00000   0.00000  -0.00000   0.00000
   scf:   18    -3998.764160    -3998.764156    -3998.764158  0.000241 -3.829246  0.001767
     spin moment: S , {S} =    0.00000   0.00000   0.00000   0.00000
   scf:   19    -3998.764158    -3998.764157    -3998.764159  0.000142 -3.829276  0.001270
     spin moment: S , {S} =    0.00000   0.00000   0.00000   0.00000
   scf:   20    -3998.764158    -3998.764158    -3998.764160  0.000066 -3.829293  0.000895
     spin moment: S , {S} =    0.00000   0.00000   0.00000   0.00000
   scf:   21    -3998.764158    -3998.764158    -3998.764160  0.000068 -3.829296  0.000617
     spin moment: S , {S} =    0.00000   0.00000   0.00000   0.00000
   scf:   22    -3998.764158    -3998.764158    -3998.764160  0.000082 -3.829304  0.000249
     spin moment: S , {S} =    0.00000   0.00000   0.00000  -0.00000
   scf:   23    -3998.764158    -3998.764158    -3998.764160  0.000036 -3.829305  0.000132
     spin moment: S , {S} =    0.00000   0.00000   0.00000  -0.00000
   scf:   24    -3998.764158    -3998.764158    -3998.764160  0.000020 -3.829304  0.000066
     spin moment: S , {S} =    0.00000   0.00000   0.00000  -0.00000
mix: Pulay -- resetting history
   scf:   25    -3998.764158    -3998.764158    -3998.764160  0.000010 -3.829301  0.000037
     spin moment: S , {S} =    0.00000  -0.00000   0.00000  -0.00000
   scf:   26    -3998.764158    -3998.764158    -3998.764160  0.000002 -3.829300  0.000027
     spin moment: S , {S} =    0.00000  -0.00000   0.00000  -0.00000
   scf:   27    -3998.764158    -3998.764158    -3998.764160  0.000002 -3.829300  0.000014
     spin moment: S , {S} =    0.00000  -0.00000   0.00000   0.00000
   scf:   28    -3998.764158    -3998.764158    -3998.764160  0.000001 -3.829299  0.000005
     spin moment: S , {S} =    0.00000  -0.00000   0.00000   0.00000
   scf:   29    -3998.764158    -3998.764158    -3998.764160  0.000000 -3.829300  0.000004
     spin moment: S , {S} =    0.00000  -0.00000   0.00000   0.00000
   scf:   30    -3998.764158    -3998.764158    -3998.764160  0.000000 -3.829300  0.000002
     spin moment: S , {S} =    0.00000  -0.00000   0.00000   0.00000
   scf:   31    -3998.764158    -3998.764158    -3998.764160  0.000000 -3.829300  0.000001
     spin moment: S , {S} =    0.00000  -0.00000   0.00000   0.00000
   scf:   32    -3998.764158    -3998.764158    -3998.764160  0.000000 -3.829300  0.000001
     spin moment: S , {S} =    0.00000  -0.00000   0.00000   0.00000

SCF Convergence by DM+H criterion
max |DM_out - DM_in|         :     0.0000000641
max |H_out - H_in|      (eV) :     0.0000008646
SCF cycle converged after 32 iterations

Using DM_out to compute the final energy and forces
No. of atoms with KB's overlaping orbs in proc 0. Max # of overlaps:      27     141

siesta: E_KS(eV) =            -3998.7642

siesta: E_KS - E_eggbox =     -3998.7642
     spin moment: S , {S} =    0.00000  -0.00000   0.00000   0.00000

siesta: Atomic forces (eV/Ang):
     1    0.142887   -0.028180   -0.000000
     2   -0.032578    0.042131    0.000000
     3   -0.029931   -0.017393   -0.000000
     4    0.068414   -0.134446    0.000000
     5    0.053188    0.006411   -0.000000
     6   -0.180495    0.017406    0.000000
     7    0.999376   -0.027908   -0.000001
     8   -0.616680    1.397291    0.000001
     9    0.153439   -0.957849   -0.000004
    10   -0.107676    0.133369    0.000001
    11   -0.171654   -0.346642    0.000001
    12   -0.270113    0.039612   -0.000000
    13   -0.123055   -0.048925    0.000000
    14    0.031163   -0.108314   -0.000000
    15    0.102499    0.089982    0.000000
    16   -0.078943   -0.038037   -0.000951
    17    0.025942   -0.061188   -0.000787
    18   -0.133347    0.036943    0.005219
    19   -0.017540   -0.018063   -0.001433
    20    0.115542    0.072016   -0.001114
    21    0.059949   -0.021321   -0.007064
    22    0.045394   -0.027531    0.123266
    23    0.001171    0.088723   -0.013200
    24    0.044728    0.027573   -0.093114
    25   -0.600331   -0.399005    0.001043
    26    0.543674    2.569189    0.000493
    27    0.319663   -0.419723   -0.000555
    28   -0.113408    0.774219   -0.000075
    29    0.145148    0.150237   -0.000218
    30   -2.551537    1.307680    0.000245
----------------------------------------
   Tot   -2.175107    4.098257    0.011754
----------------------------------------
   Max    2.569189
   Res    0.486735    sqrt( Sum f_i^2 / 3N )
----------------------------------------
   Max    2.569189    constrained

Stress tensor Voigt[x,y,z,yz,xz,xy] (kbar):        0.12        0.34       -0.01       -0.01        0.00        0.11
(Free)E + p*V (eV/cell)    -4000.0199
Target enthalpy (eV/cell)    -3998.7642

siesta: Stress tensor (static) (eV/Ang**3):
         0.000073    0.000070    0.000000
         0.000070    0.000211   -0.000004
         0.000000   -0.000004   -0.000005

siesta: Pressure (static):         -0.14903363  kBar

siesta: Stress tensor (total) (eV/Ang**3):
         0.000073    0.000070    0.000000
         0.000070    0.000211   -0.000004
         0.000000   -0.000004   -0.000005

siesta: Pressure (total):         -0.14903363  kBar

siesta: Temp_ion =       0.000 K

siesta: Eigenvalues (eV):
ik =     1
  -22.8155  -22.8155  -22.3628  -22.3628  -21.7117  -21.7117  -21.2597  -21.2597  -20.9865  -20.9865
  -20.8576  -20.8576  -19.3681  -19.3681  -19.1998  -19.1998  -18.5835  -18.5835  -15.0189  -15.0189
  -14.1067  -14.1067  -13.6096  -13.6096  -13.5512  -13.5512  -13.0658  -13.0658  -12.8532  -12.8532
  -12.4873  -12.4873  -12.0835  -12.0835  -11.8980  -11.8980  -11.5651  -11.5651  -11.4689  -11.4689
  -10.9342  -10.9342  -10.6055  -10.6055  -10.1676  -10.1676   -9.5468   -9.5468   -9.3260   -9.3260
   -9.1207   -9.1207   -9.0985   -9.0985   -9.0055   -9.0055   -8.7613   -8.7613   -8.5844   -8.5844
   -8.3830   -8.3830   -8.2062   -8.2062   -8.0978   -8.0978   -7.9924   -7.9924   -7.8814   -7.8814
   -7.7297   -7.7297   -7.3500   -7.3500   -7.2713   -7.2713   -7.2527   -7.2527   -6.8312   -6.8312
   -6.7947   -6.7947   -6.7158   -6.7158   -6.3684   -6.3684   -6.2891   -6.2891   -6.1431   -6.1431
   -5.7717   -5.7717   -5.6996   -5.6996   -5.5163   -5.5163   -4.1764   -4.1764   -3.4822   -3.4822
   -2.6938   -2.6938   -2.1949   -2.1949   -2.1355   -2.1355   -2.1102   -2.1102   -1.9825   -1.9825
   -1.9100   -1.9100   -1.6801   -1.6801   -1.6176   -1.6176   -1.5511   -1.5511   -1.3662   -1.3662
   -1.1396   -1.1396   -0.5228   -0.5228   -0.2754   -0.2754   -0.1820   -0.1820   -0.1663   -0.1663
   -0.0171   -0.0171    0.0532    0.0532    0.2570    0.2570    0.5361    0.5361    0.6125    0.6125
    0.6786    0.6786    0.7607    0.7607    1.1979    1.1979    1.3137    1.3137    1.3790    1.3790
    1.4520    1.4520    1.5749    1.5749    1.9458    1.9458    1.9965    1.9965    2.2239    2.2239
    2.4746    2.4746    2.6899    2.6899    2.8133    2.8133    2.8872    2.8872    2.9095    2.9095
    3.1011    3.1011    3.1148    3.1148    3.2557    3.2557    3.2725    3.2725    3.3302    3.3302
    3.7187    3.7187    3.9215    3.9215    4.2096    4.2096    4.2598    4.2598    4.2780    4.2780
    4.3912    4.3912    4.7342    4.7342    4.7729    4.7729    4.8152    4.8152    5.0806    5.0806
    5.1173    5.1173    5.2630    5.2630    5.5598    5.5598    5.7190    5.7190    5.8019    5.8019
    5.9337    5.9337    6.0690    6.0690    6.2053    6.2053    6.2470    6.2470    6.3604    6.3604
    6.6034    6.6034    6.7047    6.7047    6.8257    6.8257    7.0620    7.0620    7.2602    7.2602
    7.2935    7.2935    7.5284    7.5284    7.6910    7.6910    7.8570    7.8570    7.9729    7.9729
    8.0630    8.0630    8.1933    8.1933    8.4216    8.4216    8.4319    8.4319    8.7002    8.7002
    8.9606    8.9606    9.0023    9.0023    9.0800    9.0800    9.3349    9.3349    9.6171    9.6171
    9.7118    9.7118    9.8082    9.8082    9.8994    9.8994    9.9568    9.9568    9.9792    9.9792
   10.1741   10.1741   10.4702   10.4702   10.7145   10.7145   10.9504   10.9504   11.0550   11.0550
   11.3000   11.3000   11.4746   11.4746   11.6282   11.6282   11.7318   11.7318   11.7767   11.7767
   11.9427   11.9427   12.3575   12.3575   12.3899   12.3899   12.4378   12.4378   12.6208   12.6208
   12.9522   12.9522   12.9871   12.9871   13.0644   13.0644   13.3399   13.3399   13.3518   13.3518
   13.5563   13.5563   13.7900   13.7900   14.5122   14.5122   14.6574   14.6574   14.8282   14.8282
   14.8635   14.8635   14.9880   14.9880   15.1470   15.1470   16.1069   16.1069   16.5538   16.5538
   16.8381   16.8381   16.9547   16.9547   17.0279   17.0279   17.1738   17.1738   17.5257   17.5257
   18.2548   18.2548   18.2895   18.2895   18.6178   18.6178   18.7651   18.7651   18.8872   18.8872
   18.9346   18.9346   19.5415   19.5415   19.9371   19.9371   20.0241   20.0241   20.2527   20.2527
   20.7646   20.7646   21.0845   21.0845   21.2520   21.2520   21.6927   21.6927   22.2858   22.2858
   22.3411   22.3411   22.8935   22.8935   23.0452   23.0452   23.2382   23.2382   23.8299   23.8299
   24.5856   24.5856   24.8277   24.8277   24.9064   24.9064   25.8516   25.8516   25.9277   25.9277
   26.1653   26.1653   26.5679   26.5679   26.6529   26.6529   27.7444   27.7444   28.0335   28.0335
   28.5449   28.5449   28.6033   28.6033   29.4824   29.4824   29.6681   29.6681   30.5152   30.5152
   30.8429   30.8429   30.8949   30.8949   31.0472   31.0472   31.4350   31.4350   31.7246   31.7246
   31.8006   31.8006   32.1193   32.1193   32.1946   32.1946   33.4129   33.4129   33.4372   33.4372
   33.7728   33.7728   34.1109   34.1109   34.4462   34.4462   34.8599   34.8599   34.9994   34.9994
   35.8131   35.8131   36.0185   36.0185   36.2274   36.2274   37.2339   37.2339   37.4484   37.4484
   37.6798   37.6798   38.0659   38.0659   38.2641   38.2641   38.4702   38.4702   38.5033   38.5033
   39.1471   39.1471   40.3157   40.3157   40.4524   40.4524   40.7433   40.7433   41.5077   41.5077
   41.7154   41.7154   41.9498   41.9498   42.1545   42.1545   43.3766   43.3766   43.5680   43.5680
   43.9766   43.9766   44.5078   44.5078   44.8364   44.8364   45.2132   45.2132   45.2356   45.2356
   45.6835   45.6835   45.7825   45.7825   46.3103   46.3103   46.6610   46.6610   47.1027   47.1027
   47.1457   47.1457   47.6218   47.6218   48.6853   48.6853   48.8824   48.8824   49.3801   49.3801
   49.8777   49.8777   50.2244   50.2244   50.3523   50.3523   50.3810   50.3810   50.5546   50.5546
   51.7579   51.7579   52.7730   52.7730   52.8347   52.8347   54.0332   54.0332   54.4903   54.4903
   54.7918   54.7918   54.9775   54.9775   55.9321   55.9321   56.3462   56.3462   56.4162   56.4162
   57.1185   57.1185   57.9501   57.9501   58.0260   58.0260   58.7424   58.7424   59.7667   59.7667
   60.4334   60.4334   61.3272   61.3272   61.8023   61.8023   62.9008   62.9008   63.4608   63.4608
   65.3597   65.3597   65.4874   65.4874   67.1115   67.1115   67.4057   67.4057   68.4547   68.4547
   68.5599   68.5599   70.6246   70.6246   72.0641   72.0641   76.9078   76.9078   88.6981   88.6981
   92.0703   92.0703   93.1413   93.1413   95.1596   95.1596   96.6961   96.6961  100.2438  100.2438
  100.9646  100.9646  102.6538  102.6538  114.5238  114.5238  118.4909  118.4909  123.3587  123.3587
  132.5822  132.5822  138.9627  138.9627
siesta: Fermi energy =      -3.829300 eV

siesta: Program's energy decomposition (eV):
siesta: Ebs     =     -1108.949326
siesta: Eions   =      3553.971015
siesta: Ena     =       374.984298
siesta: Ekin    =      2743.005869
siesta: Enl     =     -2522.733513
siesta: Eso     =        -0.004663
siesta: Edftu   =         0.000000
siesta: DEna    =        36.892992
siesta: DUscf   =        13.879320
siesta: DUext   =         0.000000
siesta: Exc     =     -1090.817446
siesta: eta*DQ  =         0.000000
siesta: Emadel  =         0.000000
siesta: Emeta   =         0.000000
siesta: Emolmec =         0.000000
siesta: Ekinion =         0.000000
siesta: Eharris =     -3998.764158
siesta: Etot    =     -3998.764158
siesta: FreeEng =     -3998.764160

siesta: Final energy (eV):
siesta:  Band Struct. =   -1108.949326
siesta:       Kinetic =    2743.005869
siesta:       Hartree =   13046.996414
siesta:       Edftu   =       0.000000
siesta:       Eso     =      -0.004663
siesta:    Ext. field =       0.000000
siesta:   Exch.-corr. =   -1090.817446
siesta:  Ion-electron =  -28530.266949
siesta:       Ion-ion =    9832.322617
siesta:       Ekinion =       0.000000
siesta:         Total =   -3998.764158
siesta:         Fermi =      -3.829300

siesta: Atomic forces (eV/Ang):
siesta:      1    0.142887   -0.028180   -0.000000
siesta:      2   -0.032578    0.042131    0.000000
siesta:      3   -0.029931   -0.017393   -0.000000
siesta:      4    0.068414   -0.134446    0.000000
siesta:      5    0.053188    0.006411   -0.000000
siesta:      6   -0.180495    0.017406    0.000000
siesta:      7    0.999376   -0.027908   -0.000001
siesta:      8   -0.616680    1.397291    0.000001
siesta:      9    0.153439   -0.957849   -0.000004
siesta:     10   -0.107676    0.133369    0.000001
siesta:     11   -0.171654   -0.346642    0.000001
siesta:     12   -0.270113    0.039612   -0.000000
siesta:     13   -0.123055   -0.048925    0.000000
siesta:     14    0.031163   -0.108314   -0.000000
siesta:     15    0.102499    0.089982    0.000000
siesta:     16   -0.078943   -0.038037   -0.000951
siesta:     17    0.025942   -0.061188   -0.000787
siesta:     18   -0.133347    0.036943    0.005219
siesta:     19   -0.017540   -0.018063   -0.001433
siesta:     20    0.115542    0.072016   -0.001114
siesta:     21    0.059949   -0.021321   -0.007064
siesta:     22    0.045394   -0.027531    0.123266
siesta:     23    0.001171    0.088723   -0.013200
siesta:     24    0.044728    0.027573   -0.093114
siesta:     25   -0.600331   -0.399005    0.001043
siesta:     26    0.543674    2.569189    0.000493
siesta:     27    0.319663   -0.419723   -0.000555
siesta:     28   -0.113408    0.774219   -0.000075
siesta:     29    0.145148    0.150237   -0.000218
siesta:     30   -2.551537    1.307680    0.000245
siesta: ----------------------------------------
siesta:    Tot   -2.175107    4.098257    0.011754

siesta: Stress tensor (static) (eV/Ang**3):
siesta:     0.000073    0.000070    0.000000
siesta:     0.000070    0.000211   -0.000004
siesta:     0.000000   -0.000004   -0.000005

siesta: Cell volume =      13500.000000 Ang**3

siesta: Pressure (static):
siesta:                Solid            Molecule  Units
siesta:          -0.00000101         -0.00000112  Ry/Bohr**3
siesta:          -0.00009302         -0.00010283  eV/Ang**3
siesta:          -0.14903363         -0.16476143  kBar
(Free)E+ p_basis*V_orbitals  =       -3977.636075
(Free)Eharris+ p_basis*V_orbitals  =       -3977.636075
     spin moment: S , {S} =    0.00000  -0.00000   0.00000   0.00000

siesta: Electric dipole (a.u.)  =   -1.166450    1.602618   -0.001808
siesta: Electric dipole (Debye) =   -2.964823    4.073450   -0.004596

cite: Please see "AT.bib" for an exhaustive BiBTeX file.
cite: Please clearly indicate Siesta version in published work: v4.1.5-1-g384057250
cite: This calculation has made use of the following articles
cite: which are encouraged to be cited in a published work.
        Primary SIESTA paper
          DOI: www.doi.org/10.1088/0953-8984/14/11/302
        Spin-orbit coupling (on-site approximation)
          DOI: www.doi.org/10.1088/0953-8984/19/19/489001


WARNING: alloc-realloc-dealloc name mismatch
         Name: atomlist isa
         Size:              -120. Bytes
         Node:     0
         Subsequent mismatches will not be reported
>> End of run:   1-FEB-2024  19:16:30
Job completed
