Siesta Version  : v4.1.5-1-g384057250
Architecture    : gcc
Compiler version: GNU Fortran (Ubuntu 11.3.0-1ubuntu1~22.04) 11.3.0
Compiler flags  : mpifort -O2 -fPIC -ftree-vectorize -fallow-argument-mismatch
PP flags        : -DFC_HAVE_ABORT -DMPI -DSIESTA__FLOOK -DSIESTA__METIS -DSIESTA__MUMPS -DCDF -DNCDF -DNCDF_4 -DNCDF_PARALLEL -DSIESTA__MRRR -DSIESTA__ELPA
Libraries       : libncdf.a libfdict.a  -lflookall -ldl -lnetcdff -lnetcdf -lhdf5_hl -lhdf5 -lhdf5_fortran -lz -lscalapack-openmpi -lopenblas -lmetis -lzmumps -lcmumps -ldmumps -lmumps_common -lpord -lsmumps -lesmumps -lscotch -lscotcherr -fopenmp -lelpa
PARALLEL version
NetCDF support
NetCDF-4 support
NetCDF-4 MPI-IO support
METIS ordering support
Lua support

* Running on 4 nodes in parallel
>> Start of run:  28-JUN-2023  16:21:33

                           ***********************       
                           *  WELCOME TO SIESTA  *       
                           ***********************       

reinit: Reading from standard input
reinit: Dumped input in INPUT_TMP.33760
************************** Dump of input data file ****************************
SystemLabel      GC
NumberOfAtoms    29
NumberOfSpecies  4
%block ChemicalSpeciesLabel
    1    8  O
    2    7  N
    3   14  Si
    4    1  H
%endblock ChemicalSpeciesLabel
# Single point calculation
MD.TypeOfRun                CG
MD.Steps                    0
SCF.MustConverge            F # In case it does not. There can be 2 very close atoms
AtomicCoordinatesFormat NotScaledCartesianAng
%block AtomicCoordinatesAndAtomicSpecies
1.043624880    3.939228610    0.000000000       1
-3.040641290   1.071078170    0.000000000       2
2.054601450    1.213582070    0.000000000       2
0.999014100    -1.732643800   0.000000000       2
-2.132351640   -1.812968220   0.000000000       2
3.860190550    -1.112298180   0.000000000       2
-1.236183220   1.152964460    0.000000000       3
-0.532924260   -0.939006270   0.000000000       3
0.635660470    2.374516770    0.000000000       3
2.245170240    -0.549967100   0.000000000       3
-3.449816660   -0.583665030   0.000000000       3
2.963714090    1.790992630    0.000000000       4
-4.845591350   -1.123549660   0.000000000       4
4.007020910    -2.152308560   0.000000000       4
4.772194380    -0.502318160   0.000000000       4
-2.265399090   -2.864605110   0.000000000       4
8.070775679    7.040516844    0.000000000       3
9.975659649    8.247155784    0.000000000       3
9.479905509    4.274181874    0.000000000       3
11.557375799   6.743399034    0.000000000       3
8.130398349    5.323089274    0.000000000       2
6.531640619    7.794194154    0.000000000       2
11.132200769   5.004019094    0.000000000       2
10.167004449   9.739309534    0.000000000       4
13.041743779   6.962129854    0.000000000       4
6.420295339    8.843389264    0.000000000       4
5.599082909    7.169279974    0.000000000       4
9.469678679    2.666070754    0.000000000       1
11.907626649   4.277327534    0.000000000       4
%endblock AtomicCoordinatesAndAtomicSpecies
%include ../../../Defaults.fdf
************************** End of input data file *****************************

reinit: -----------------------------------------------------------------------
reinit: System Name: 
reinit: -----------------------------------------------------------------------
reinit: System Label: GC
reinit: -----------------------------------------------------------------------

initatom: Reading input for the pseudopotentials and atomic orbitals ----------
Species number:   1 Atomic number:    8 Label: O
Species number:   2 Atomic number:    7 Label: N
Species number:   3 Atomic number:   14 Label: Si
Species number:   4 Atomic number:    1 Label: H

Ground state valence configuration:   2s02  2p04
Reading pseudopotential information in formatted form from O.psf

Pseudopotential generated from a relativistic atomic calculation

Valence configuration for pseudopotential generation:
2s( 2.00) rc: 0.45
2p( 4.00) rc: 0.92
3d( 0.00) rc: 2.24
4f( 0.00) rc: 0.25
Ground state valence configuration:   2s02  2p03
Reading pseudopotential information in formatted form from N.psf

Pseudopotential generated from a relativistic atomic calculation

Valence configuration for pseudopotential generation:
2s( 2.00) rc: 0.94
2p( 3.00) rc: 0.59
3d( 0.00) rc: 3.46
4f( 0.00) rc: 2.47
Ground state valence configuration:   3s02  3p02
Reading pseudopotential information in formatted form from Si.psf

Pseudopotential generated from a relativistic atomic calculation

Valence configuration for pseudopotential generation:
3s( 2.00) rc: 1.67
3p( 2.00) rc: 2.04
3d( 0.00) rc: 2.89
4f( 0.00) rc: 2.49
Ground state valence configuration:   1s01
Reading pseudopotential information in formatted form from H.psf

Pseudopotential generated from a relativistic atomic calculation

Valence configuration for pseudopotential generation:
1s( 1.00) rc: 0.01
2p( 0.00) rc: 0.60
3d( 0.00) rc: 1.99
4f( 0.00) rc: 2.49
For O, standard SIESTA heuristics set lmxkb to 3
 (one more than the basis l, including polarization orbitals).
Use PS.lmax or PS.KBprojectors blocks to override.
For N, standard SIESTA heuristics set lmxkb to 3
 (one more than the basis l, including polarization orbitals).
Use PS.lmax or PS.KBprojectors blocks to override.
For Si, standard SIESTA heuristics set lmxkb to 3
 (one more than the basis l, including polarization orbitals).
Use PS.lmax or PS.KBprojectors blocks to override.
For H, standard SIESTA heuristics set lmxkb to 2
 (one more than the basis l, including polarization orbitals).
Use PS.lmax or PS.KBprojectors blocks to override.

<basis_specs>
===============================================================================
O                    Z=   8    Mass=  16.000        Charge= 0.17977+309
Lmxo=1 Lmxkb= 3    BasisType=split      Semic=F
L=0  Nsemic=0  Cnfigmx=2
          i=1  nzeta=2  polorb=0  (2s)
            splnorm:   0.28000    
               vcte:    0.0000    
               rinn:    0.0000    
               qcoe:    0.0000    
               qyuk:    0.0000    
               qwid:   0.10000E-01
                rcs:    0.0000      0.0000    
            lambdas:    1.0000      1.0000    
L=1  Nsemic=0  Cnfigmx=2
          i=1  nzeta=2  polorb=1  (2p)
            splnorm:   0.28000    
               vcte:    0.0000    
               rinn:    0.0000    
               qcoe:    0.0000    
               qyuk:    0.0000    
               qwid:   0.10000E-01
                rcs:    0.0000      0.0000    
            lambdas:    1.0000      1.0000    
-------------------------------------------------------------------------------
L=0  Nkbl=1  erefs: 0.17977+309
L=1  Nkbl=1  erefs: 0.17977+309
L=2  Nkbl=1  erefs: 0.17977+309
L=3  Nkbl=1  erefs: 0.17977+309
===============================================================================
</basis_specs>

atom: Called for O                     (Z =   8)

read_vps: Pseudopotential generation method:
read_vps: ATM4.2.7  Troullier-Martins                       
Valence charge for ps generation:    6.00000

xc_check: Exchange-correlation functional:
xc_check: GGA Perdew, Burke & Ernzerhof 1996
V l=0 = -2*Zval/r beyond r=  1.1000
V l=1 = -2*Zval/r beyond r=  1.1000
V l=2 = -2*Zval/r beyond r=  2.2154
V l=3 = -2*Zval/r beyond r=  1.1000
All V_l potentials equal beyond r=  2.2154
This should be close to max(r_c) in ps generation
All pots = -2*Zval/r beyond r=  2.2154

VLOCAL1: 99.0% of the norm of Vloc inside      8.845 Ry
VLOCAL1: 99.9% of the norm of Vloc inside     20.157 Ry
atom: Maximum radius for 4*pi*r*r*local-pseudopot. charge    2.67231
atom: Maximum radius for r*vlocal+2*Zval:    2.32897
GHOST: No ghost state for L =  0
GHOST: No ghost state for L =  1
GHOST: No ghost state for L =  2
GHOST: No ghost state for L =  3

KBgen: Kleinman-Bylander projectors: 
   l= 0   rc=  2.243238   el= -1.759686   Ekb=**********   kbcos= -0.171774
   l= 1   rc=  2.328968   el= -0.663873   Ekb=-14.506792   kbcos= -0.519897
   l= 2   rc=  2.573941   el=  0.002031   Ekb= -1.137373   kbcos= -0.019581
   l= 3   rc=  2.606321   el=  0.003153   Ekb= -1.013546   kbcos= -0.003122

KBgen: Total number of Kleinman-Bylander projectors:   16
atom: -------------------------------------------------------------------------

atom: SANKEY-TYPE ORBITALS:
atom: Selected multiple-zeta basis: split     

SPLIT: Orbitals with angular momentum L= 0

SPLIT: Basis orbitals for state 2s

SPLIT: PAO cut-off radius determined from an
SPLIT: energy shift=  0.002000 Ry

   izeta = 1
                 lambda =    1.000000
                     rc =    4.243912
                 energy =   -1.758270
                kinetic =    3.286084
    potential(screened) =   -5.044353
       potential(ionic) =  -12.921184

   izeta = 2
                 rmatch =    2.187845
              splitnorm =    0.280000
                 energy =   -0.885018
                kinetic =    8.134434
    potential(screened) =   -9.019452
       potential(ionic) =  -17.710645

SPLIT: Orbitals with angular momentum L= 1

SPLIT: Basis orbitals for state 2p

SPLIT: PAO cut-off radius determined from an
SPLIT: energy shift=  0.002000 Ry

   izeta = 1
                 lambda =    1.000000
                     rc =    5.314825
                 energy =   -0.661986
                kinetic =    4.917472
    potential(screened) =   -5.579458
       potential(ionic) =  -13.236259

   izeta = 2
                 rmatch =    2.160663
              splitnorm =    0.280000
                 energy =   -0.068760
                kinetic =    9.183374
    potential(screened) =   -9.252135
       potential(ionic) =  -18.274251

POLgen: Perturbative polarization orbital with L=  2

POLgen: Polarization orbital for state 2p

   izeta = 1
                     rc =    5.314825
                 energy =    1.970580
                kinetic =    3.886128
    potential(screened) =   -1.915547
       potential(ionic) =   -7.749584
atom: Total number of Sankey-type orbitals: 13

atm_pop: Valence configuration (for local Pseudopot. screening):
 2s( 2.00)                                                            
 2p( 4.00)                                                            
Vna: chval, zval:    6.00000   6.00000

Vna:  Cut-off radius for the neutral-atom potential:   5.314825

atom: _________________________________________________________________________

<basis_specs>
===============================================================================
N                    Z=   7    Mass=  14.010        Charge= 0.17977+309
Lmxo=1 Lmxkb= 3    BasisType=split      Semic=F
L=0  Nsemic=0  Cnfigmx=2
          i=1  nzeta=2  polorb=0  (2s)
            splnorm:   0.28000    
               vcte:    0.0000    
               rinn:    0.0000    
               qcoe:    0.0000    
               qyuk:    0.0000    
               qwid:   0.10000E-01
                rcs:    0.0000      0.0000    
            lambdas:    1.0000      1.0000    
L=1  Nsemic=0  Cnfigmx=2
          i=1  nzeta=2  polorb=1  (2p)
            splnorm:   0.28000    
               vcte:    0.0000    
               rinn:    0.0000    
               qcoe:    0.0000    
               qyuk:    0.0000    
               qwid:   0.10000E-01
                rcs:    0.0000      0.0000    
            lambdas:    1.0000      1.0000    
-------------------------------------------------------------------------------
L=0  Nkbl=1  erefs: 0.17977+309
L=1  Nkbl=1  erefs: 0.17977+309
L=2  Nkbl=1  erefs: 0.17977+309
L=3  Nkbl=1  erefs: 0.17977+309
===============================================================================
</basis_specs>

atom: Called for N                     (Z =   7)

read_vps: Pseudopotential generation method:
read_vps: ATM4.2.7  Troullier-Martins                       
Valence charge for ps generation:    5.00000

xc_check: Exchange-correlation functional:
xc_check: GGA Perdew, Burke & Ernzerhof 1996
V l=0 = -2*Zval/r beyond r=  1.2889
V l=1 = -2*Zval/r beyond r=  1.2889
V l=2 = -2*Zval/r beyond r=  3.4178
V l=3 = -2*Zval/r beyond r=  2.4084
All V_l potentials equal beyond r=  3.3753
This should be close to max(r_c) in ps generation
All pots = -2*Zval/r beyond r=  3.4178

VLOCAL1: 99.0% of the norm of Vloc inside      3.810 Ry
VLOCAL1: 99.9% of the norm of Vloc inside      8.683 Ry
atom: Maximum radius for 4*pi*r*r*local-pseudopot. charge    4.02088
atom: Maximum radius for r*vlocal+2*Zval:    3.54838
GHOST: No ghost state for L =  0
GHOST: No ghost state for L =  1
GHOST: No ghost state for L =  2
GHOST: No ghost state for L =  3

KBgen: Kleinman-Bylander projectors: 
   l= 0   rc=  3.417763   el= -1.365098   Ekb= -4.433130   kbcos= -0.707855
   l= 1   rc=  3.375302   el= -0.521201   Ekb=-13.264039   kbcos= -0.535594
   l= 2   rc=  3.872880   el=  0.001991   Ekb= -0.641094   kbcos= -0.062456
   l= 3   rc=  3.970931   el=  0.003093   Ekb= -0.474517   kbcos= -0.018236

KBgen: Total number of Kleinman-Bylander projectors:   16
atom: -------------------------------------------------------------------------

atom: SANKEY-TYPE ORBITALS:
atom: Selected multiple-zeta basis: split     

SPLIT: Orbitals with angular momentum L= 0

SPLIT: Basis orbitals for state 2s

SPLIT: PAO cut-off radius determined from an
SPLIT: energy shift=  0.002000 Ry

   izeta = 1
                 lambda =    1.000000
                     rc =    4.730425
                 energy =   -1.363399
                kinetic =    1.245246
    potential(screened) =   -2.608645
       potential(ionic) =   -8.121105

   izeta = 2
                 rmatch =    2.531849
              splitnorm =    0.280000
                 energy =   -0.959908
                kinetic =    2.409435
    potential(screened) =   -3.369343
       potential(ionic) =   -9.427975

SPLIT: Orbitals with angular momentum L= 1

SPLIT: Basis orbitals for state 2p

SPLIT: PAO cut-off radius determined from an
SPLIT: energy shift=  0.002000 Ry

   izeta = 1
                 lambda =    1.000000
                     rc =    5.924108
                 energy =   -0.519262
                kinetic =    3.672940
    potential(screened) =   -4.192202
       potential(ionic) =   -9.518354

   izeta = 2
                 rmatch =    2.531849
              splitnorm =    0.280000
                 energy =   -0.104258
                kinetic =    6.807538
    potential(screened) =   -6.911796
       potential(ionic) =  -13.149920

POLgen: Perturbative polarization orbital with L=  2

POLgen: Polarization orbital for state 2p

   izeta = 1
                     rc =    5.924108
                 energy =    1.427508
                kinetic =    2.872379
    potential(screened) =   -1.444871
       potential(ionic) =   -5.563644
atom: Total number of Sankey-type orbitals: 13

atm_pop: Valence configuration (for local Pseudopot. screening):
 2s( 2.00)                                                            
 2p( 3.00)                                                            
Vna: chval, zval:    5.00000   5.00000

Vna:  Cut-off radius for the neutral-atom potential:   5.924108

atom: _________________________________________________________________________

<basis_specs>
===============================================================================
Si                   Z=  14    Mass=  28.090        Charge= 0.17977+309
Lmxo=1 Lmxkb= 3    BasisType=split      Semic=F
L=0  Nsemic=0  Cnfigmx=3
          i=1  nzeta=2  polorb=0  (3s)
            splnorm:   0.28000    
               vcte:    0.0000    
               rinn:    0.0000    
               qcoe:    0.0000    
               qyuk:    0.0000    
               qwid:   0.10000E-01
                rcs:    0.0000      0.0000    
            lambdas:    1.0000      1.0000    
L=1  Nsemic=0  Cnfigmx=3
          i=1  nzeta=2  polorb=1  (3p)
            splnorm:   0.28000    
               vcte:    0.0000    
               rinn:    0.0000    
               qcoe:    0.0000    
               qyuk:    0.0000    
               qwid:   0.10000E-01
                rcs:    0.0000      0.0000    
            lambdas:    1.0000      1.0000    
-------------------------------------------------------------------------------
L=0  Nkbl=1  erefs: 0.17977+309
L=1  Nkbl=1  erefs: 0.17977+309
L=2  Nkbl=1  erefs: 0.17977+309
L=3  Nkbl=1  erefs: 0.17977+309
===============================================================================
</basis_specs>

atom: Called for Si                    (Z =  14)

read_vps: Pseudopotential generation method:
read_vps: ATM4.2.7  Troullier-Martins                       
Valence charge for ps generation:    4.00000

xc_check: Exchange-correlation functional:
xc_check: GGA Perdew, Burke & Ernzerhof 1996
V l=0 = -2*Zval/r beyond r=  2.7826
V l=1 = -2*Zval/r beyond r=  2.7826
V l=2 = -2*Zval/r beyond r=  2.9253
V l=3 = -2*Zval/r beyond r=  2.7826
All V_l potentials equal beyond r=  2.8530
This should be close to max(r_c) in ps generation
All pots = -2*Zval/r beyond r=  2.9253

VLOCAL1: 99.0% of the norm of Vloc inside      5.333 Ry
VLOCAL1: 99.9% of the norm of Vloc inside     12.154 Ry
atom: Maximum radius for 4*pi*r*r*local-pseudopot. charge    3.39869
atom: Maximum radius for r*vlocal+2*Zval:    2.96205
GHOST: No ghost state for L =  0
GHOST: No ghost state for L =  1
GHOST: No ghost state for L =  2
GHOST: No ghost state for L =  3

KBgen: Kleinman-Bylander projectors: 
   l= 0   rc=  3.075247   el= -0.794092   Ekb=  5.879390   kbcos=  0.167461
   l= 1   rc=  3.153101   el= -0.300068   Ekb=  2.642817   kbcos=  0.058301
   l= 2   rc=  3.273594   el=  0.001958   Ekb= -1.185135   kbcos= -0.104411
   l= 3   rc=  3.232927   el=  0.003046   Ekb= -0.497174   kbcos= -0.015889

KBgen: Total number of Kleinman-Bylander projectors:   16
atom: -------------------------------------------------------------------------

atom: SANKEY-TYPE ORBITALS:
atom: Selected multiple-zeta basis: split     

SPLIT: Orbitals with angular momentum L= 0

SPLIT: Basis orbitals for state 3s

SPLIT: PAO cut-off radius determined from an
SPLIT: energy shift=  0.002000 Ry

   izeta = 1
                 lambda =    1.000000
                     rc =    6.429618
                 energy =   -0.792283
                kinetic =    0.525293
    potential(screened) =   -1.317576
       potential(ionic) =   -3.744923

   izeta = 2
                 rmatch =    3.998416
              splitnorm =    0.280000
                 energy =   -0.583081
                kinetic =    1.069570
    potential(screened) =   -1.652651
       potential(ionic) =   -4.235185

SPLIT: Orbitals with angular momentum L= 1

SPLIT: Basis orbitals for state 3p

SPLIT: PAO cut-off radius determined from an
SPLIT: energy shift=  0.002000 Ry

   izeta = 1
                 lambda =    1.000000
                     rc =    8.464845
                 energy =   -0.298236
                kinetic =    0.785360
    potential(screened) =   -1.083596
       potential(ionic) =   -3.273779

   izeta = 2
                 rmatch =    4.587816
              splitnorm =    0.280000
                 energy =   -0.131871
                kinetic =    1.403687
    potential(screened) =   -1.535557
       potential(ionic) =   -4.015310

POLgen: Perturbative polarization orbital with L=  2

POLgen: Polarization orbital for state 3p

   izeta = 1
                     rc =    8.464845
                 energy =    0.321949
                kinetic =    1.055677
    potential(screened) =   -0.733728
       potential(ionic) =   -2.672950
atom: Total number of Sankey-type orbitals: 13

atm_pop: Valence configuration (for local Pseudopot. screening):
 3s( 2.00)                                                            
 3p( 2.00)                                                            
Vna: chval, zval:    4.00000   4.00000

Vna:  Cut-off radius for the neutral-atom potential:   8.464845

atom: _________________________________________________________________________

<basis_specs>
===============================================================================
H                    Z=   1    Mass=  1.0100        Charge= 0.17977+309
Lmxo=0 Lmxkb= 2    BasisType=split      Semic=F
L=0  Nsemic=0  Cnfigmx=1
          i=1  nzeta=2  polorb=1  (1s)
            splnorm:   0.62000    
               vcte:    0.0000    
               rinn:    0.0000    
               qcoe:    0.0000    
               qyuk:    0.0000    
               qwid:   0.10000E-01
                rcs:    0.0000      0.0000    
            lambdas:    1.0000      1.0000    
-------------------------------------------------------------------------------
L=0  Nkbl=1  erefs: 0.17977+309
L=1  Nkbl=1  erefs: 0.17977+309
L=2  Nkbl=1  erefs: 0.17977+309
===============================================================================
</basis_specs>

atom: Called for H                     (Z =   1)

read_vps: Pseudopotential generation method:
read_vps: ATM4.2.7  Troullier-Martins                       
Valence charge for ps generation:    1.00000

xc_check: Exchange-correlation functional:
xc_check: GGA Perdew, Burke & Ernzerhof 1996
V l=0 = -2*Zval/r beyond r=  0.0098
V l=1 = -2*Zval/r beyond r=  0.5817
V l=2 = -2*Zval/r beyond r=  1.9372
All V_l potentials equal beyond r=  1.9372
This should be close to max(r_c) in ps generation
All pots = -2*Zval/r beyond r=  1.9372

VLOCAL1: 99.0% of the norm of Vloc inside     11.567 Ry
VLOCAL1: 99.9% of the norm of Vloc inside     26.362 Ry
atom: Maximum radius for 4*pi*r*r*local-pseudopot. charge    2.25106
atom: Maximum radius for r*vlocal+2*Zval:    1.91306
GHOST: No ghost state for L =  0
GHOST: No ghost state for L =  1
GHOST: No ghost state for L =  2

KBgen: Kleinman-Bylander projectors: 
   l= 0   rc=  2.036604   el= -0.477180   Ekb= -6.081590   kbcos= -0.277285
   l= 1   rc=  2.195416   el=  0.001076   Ekb= -0.926943   kbcos= -0.034643
   l= 2   rc=  2.251056   el=  0.002010   Ekb= -0.130941   kbcos= -0.009788

KBgen: Total number of Kleinman-Bylander projectors:    9
atom: -------------------------------------------------------------------------

atom: SANKEY-TYPE ORBITALS:
atom: Selected multiple-zeta basis: split     

SPLIT: Orbitals with angular momentum L= 0

SPLIT: Basis orbitals for state 1s

SPLIT: PAO cut-off radius determined from an
SPLIT: energy shift=  0.002000 Ry

   izeta = 1
                 lambda =    1.000000
                     rc =    6.518340
                 energy =   -0.475305
                kinetic =    0.912139
    potential(screened) =   -1.387444
       potential(ionic) =   -1.907295

   izeta = 2
                 rmatch =    2.141150
              splitnorm =    0.620000
                 energy =    0.566467
                kinetic =    3.772856
    potential(screened) =   -3.206389
       potential(ionic) =   -3.759093

POLgen: Perturbative polarization orbital with L=  1

POLgen: Polarization orbital for state 1s

   izeta = 1
                     rc =    6.518340
                 energy =    0.533861
                kinetic =    1.121086
    potential(screened) =   -0.587225
       potential(ionic) =   -1.053027
atom: Total number of Sankey-type orbitals:  5

atm_pop: Valence configuration (for local Pseudopot. screening):
 1s( 1.00)                                                            
Vna: chval, zval:    1.00000   1.00000

Vna:  Cut-off radius for the neutral-atom potential:   6.518340

atom: _________________________________________________________________________

prinput: Basis input ----------------------------------------------------------

PAO.BasisType split     

%block ChemicalSpeciesLabel
    1    8 O                       # Species index, atomic number, species label
    2    7 N                       # Species index, atomic number, species label
    3   14 Si                      # Species index, atomic number, species label
    4    1 H                       # Species index, atomic number, species label
%endblock ChemicalSpeciesLabel

%block PAO.Basis                 # Define Basis set
O                     2                    # Species label, number of l-shells
 n=2   0   2                         # n, l, Nzeta 
   4.244      2.188   
   1.000      1.000   
 n=2   1   2 P   1                   # n, l, Nzeta, Polarization, NzetaPol
   5.315      2.161   
   1.000      1.000   
N                     2                    # Species label, number of l-shells
 n=2   0   2                         # n, l, Nzeta 
   4.730      2.532   
   1.000      1.000   
 n=2   1   2 P   1                   # n, l, Nzeta, Polarization, NzetaPol
   5.924      2.532   
   1.000      1.000   
Si                    2                    # Species label, number of l-shells
 n=3   0   2                         # n, l, Nzeta 
   6.430      3.998   
   1.000      1.000   
 n=3   1   2 P   1                   # n, l, Nzeta, Polarization, NzetaPol
   8.465      4.588   
   1.000      1.000   
H                     1                    # Species label, number of l-shells
 n=1   0   2 P   1                   # n, l, Nzeta, Polarization, NzetaPol
   6.518      2.141   
   1.000      1.000   
%endblock PAO.Basis

prinput: ----------------------------------------------------------------------

Dumping basis to NetCDF file O.ion.nc
Dumping basis to NetCDF file N.ion.nc
Dumping basis to NetCDF file Si.ion.nc
Dumping basis to NetCDF file H.ion.nc
coor:   Atomic-coordinates input format  =     Cartesian coordinates
coor:                                          (in Angstroms)

siesta: Atomic coordinates (Bohr) and species
siesta:      1.97217   7.44407   0.00000  1        1
siesta:     -5.74598   2.02405   0.00000  2        2
siesta:      3.88264   2.29334   0.00000  2        3
siesta:      1.88786  -3.27422   0.00000  2        4
siesta:     -4.02956  -3.42601   0.00000  2        5
siesta:      7.29471  -2.10194   0.00000  2        6
siesta:     -2.33605   2.17879   0.00000  3        7
siesta:     -1.00708  -1.77447   0.00000  3        8
siesta:      1.20122   4.48719   0.00000  3        9
siesta:      4.24276  -1.03929   0.00000  3       10
siesta:     -6.51921  -1.10297   0.00000  3       11
siesta:      5.60061   3.38449   0.00000  4       12
siesta:     -9.15684  -2.12320   0.00000  4       13
siesta:      7.57218  -4.06728   0.00000  4       14
siesta:      9.01814  -0.94924   0.00000  4       15
siesta:     -4.28099  -5.41332   0.00000  4       16
siesta:     15.25156  13.30465   0.00000  3       17
siesta:     18.85127  15.58487   0.00000  3       18
siesta:     17.91443   8.07704   0.00000  3       19
siesta:     21.84028  12.74318   0.00000  3       20
siesta:     15.36423  10.05918   0.00000  2       21
siesta:     12.34302  14.72890   0.00000  2       22
siesta:     21.03682   9.45623   0.00000  2       23
siesta:     19.21286  18.40463   0.00000  4       24
siesta:     24.64533  13.15652   0.00000  4       25
siesta:     12.13260  16.71159   0.00000  4       26
siesta:     10.58074  13.54798   0.00000  4       27
siesta:     17.89511   5.03815   0.00000  1       28
siesta:     22.50216   8.08298   0.00000  4       29

siesta: Automatic unit cell vectors (Ang):
siesta:   27.264651    0.000000    0.000000
siesta:    0.000000   21.452889    0.000000
siesta:    0.000000    0.000000    9.854683

siesta: System type = molecule  

initatomlists: Number of atoms, orbitals, and projectors:     29   297   394

siesta: ******************** Simulation parameters ****************************
siesta:
siesta: The following are some of the parameters of the simulation.
siesta: A complete list of the parameters used, including default values,
siesta: can be found in file out.fdf
siesta:
redata: Spin configuration                          = spin-orbit
redata: Number of spin components                   = 8
redata: Time-Reversal Symmetry                      = F
redata: Spin spiral                                 = F
############################################################
This spin-orbit implementation uses a local approximation.
From 4.2 and onwards the full non-local approximation is implemented
You are strongly advised to use >=4.2 versions!
############################################################
redata: Long output                                 =   F
redata: Number of Atomic Species                    =        4
redata: Charge density info will appear in .RHO file
redata: Write Mulliken Pop.                         = Atomic and Orbital charges
redata: Matel table size (NRTAB)                    =     1024
redata: Mesh Cutoff                                 =   340.0000 Ry
redata: Net charge of the system                    =     0.0000 |e|
redata: Min. number of SCF Iter                     =        1
redata: Max. number of SCF Iter                     =      200
redata: SCF mix quantity                            = Hamiltonian
redata: Mix DM or H after convergence               =   F
redata: Recompute H after scf cycle                 =   F
redata: Mix DM in first SCF step                    =   T
redata: Write Pulay info on disk                    =   F
redata: New DM Occupancy tolerance                  = 0.000000000001
redata: No kicks to SCF
redata: DM Mixing Weight for Kicks                  =     0.5000
redata: Require Harris convergence for SCF          =   F
redata: Harris energy tolerance for SCF             =     0.000100 eV
redata: Require DM convergence for SCF              =   T
redata: DM tolerance for SCF                        =     0.000008
redata: Require EDM convergence for SCF             =   F
redata: EDM tolerance for SCF                       =     0.001000 eV
redata: Require H convergence for SCF               =   T
redata: Hamiltonian tolerance for SCF               =     0.000001 eV
redata: Require (free) Energy convergence for SCF   =   F
redata: (free) Energy tolerance for SCF             =     0.000100 eV
redata: Using Saved Data (generic)                  =   F
redata: Use continuation files for DM               =   F
redata: Neglect nonoverlap interactions             =   F
redata: Method of Calculation                       = Diagonalization
redata: Electronic Temperature                      =   299.9978 K
redata: Fix the spin of the system                  =   F
redata: Dynamics option                             = Single-point calculation
mix.SCF: Pulay mixing                            = Pulay
mix.SCF:    Variant                              = stable
mix.SCF:    History steps                        = 6
mix.SCF:    Linear mixing weight                 =     0.250000
mix.SCF:    Mixing weight                        =     0.250000
mix.SCF:    SVD condition                        = 0.1000E-07
mix.SCF:    Restart steps                        = 24
mix.SCF:    Restart save steps                   = 3
mix.SCF: Spin-component mixing                   all
redata: Save all siesta data in one NC              =   F
redata: ***********************************************************************

%block SCF.Mixers
  Pulay
%endblock SCF.Mixers

%block SCF.Mixer.Pulay
  # Mixing method
  method pulay
  variant stable

  # Mixing options
  weight 0.2500
  weight.linear 0.2500
  history 6
  restart 24
  restart.save 3
%endblock SCF.Mixer.Pulay

DM_history_depth set to one: no extrapolation allowed by default for geometry relaxation
Size of DM history Fstack: 1
Total number of electrons:    98.000000
Total ionic charge:    98.000000

* ProcessorY, Blocksize:    2  24


* Orbital distribution balance (max,min):    81    72


Time-reversal symmetry not used.

siesta: k-grid: Number of k-points =     1
siesta: k-grid: Cutoff (effective) =     4.927 Ang
siesta: k-grid: Supercell and displacements
siesta: k-grid:    1   0   0      0.000
siesta: k-grid:    0   1   0      0.000
siesta: k-grid:    0   0   1      0.000

diag: Algorithm                                     = ELPA-1stage
diag: Parallel over k                               =   F
diag: Use parallel 2D distribution                  =   T
diag: Parallel block-size                           = 24
diag: Parallel distribution                         =     2 x     2
diag: Used triangular part                          = Lower
diag: Absolute tolerance                            =  0.100E-15
diag: Orthogonalization factor                      =  0.100E-05
diag: Memory factor                                 =  1.0000


ts: **************************************************************
ts: Save H and S matrices                           =    F
ts: Save DM and EDM matrices                        =    F
ts: Only save the overlap matrix S                  =    F
ts: **************************************************************

************************ Begin: TS CHECKS AND WARNINGS ************************
************************ End: TS CHECKS AND WARNINGS **************************


                     ====================================
                        Single-point calculation
                     ====================================

outcoor: Atomic coordinates (Ang):                          
    1.04362488    3.93922861    0.00000000   1       1  O
   -3.04064129    1.07107817    0.00000000   2       2  N
    2.05460145    1.21358207    0.00000000   2       3  N
    0.99901410   -1.73264380    0.00000000   2       4  N
   -2.13235164   -1.81296822    0.00000000   2       5  N
    3.86019055   -1.11229818    0.00000000   2       6  N
   -1.23618322    1.15296446    0.00000000   3       7  Si
   -0.53292426   -0.93900627    0.00000000   3       8  Si
    0.63566047    2.37451677    0.00000000   3       9  Si
    2.24517024   -0.54996710    0.00000000   3      10  Si
   -3.44981666   -0.58366503    0.00000000   3      11  Si
    2.96371409    1.79099263    0.00000000   4      12  H
   -4.84559135   -1.12354966    0.00000000   4      13  H
    4.00702091   -2.15230856    0.00000000   4      14  H
    4.77219438   -0.50231816    0.00000000   4      15  H
   -2.26539909   -2.86460511    0.00000000   4      16  H
    8.07077568    7.04051684    0.00000000   3      17  Si
    9.97565965    8.24715578    0.00000000   3      18  Si
    9.47990551    4.27418187    0.00000000   3      19  Si
   11.55737580    6.74339903    0.00000000   3      20  Si
    8.13039835    5.32308927    0.00000000   2      21  N
    6.53164062    7.79419415    0.00000000   2      22  N
   11.13220077    5.00401909    0.00000000   2      23  N
   10.16700445    9.73930953    0.00000000   4      24  H
   13.04174378    6.96212985    0.00000000   4      25  H
    6.42029534    8.84338926    0.00000000   4      26  H
    5.59908291    7.16927997    0.00000000   4      27  H
    9.46967868    2.66607075    0.00000000   1      28  O
   11.90762665    4.27732753    0.00000000   4      29  H

outcell: Unit cell vectors (Ang):
       27.264651    0.000000    0.000000
        0.000000   21.452889    0.000000
        0.000000    0.000000    9.854683

outcell: Cell vector modules (Ang)   :   27.264651   21.452889    9.854683
outcell: Cell angles (23,13,12) (deg):     90.0000     90.0000     90.0000
outcell: Cell volume (Ang**3)        :   5764.0588
<dSpData1D:S at geom step 0
  <sparsity:sparsity for geom step 0
    nrows_g=297 nrows=81 sparsity=.1393 nnzs=12285, refcount: 8>
  <dData1D:(new from dSpData1D) n=12285, refcount: 1>
refcount: 1>
new_DM -- step:     1
Initializing Density Matrix...
DM filled with atomic data:
<dSpData2D:DM initialized from atoms
  <sparsity:sparsity for geom step 0
    nrows_g=297 nrows=81 sparsity=.1393 nnzs=12285, refcount: 9>
  <dData2D:DM n=12285 m=8, refcount: 1>
refcount: 1>
     spin moment: S , {S} =   56.00000   0.00000   0.00000  56.00000
No. of atoms with KB's overlaping orbs in proc 0. Max # of overlaps:      29     142

Initializing spin-orbit part of the Hamiltonian
  Adding spin-orbit effects for O 
  Adding spin-orbit effects for N 
  Adding spin-orbit effects for Si
  Adding spin-orbit effects for H 


New grid distribution:   1
           1       1:  160    1:   60    1:   30
           2       1:  160    1:   60   31:   60
           3       1:  160   61:  120    1:   30
           4       1:  160   61:  120   31:   60

InitMesh: MESH =   320 x   240 x   120 =     9216000
InitMesh: (bp) =   160 x   120 x    60 =     1152000
InitMesh: Mesh cutoff (required, used) =   340.000   345.902 Ry
ExtMesh (bp) on 0 =   268 x   164 x   142 =     6241184
New grid distribution:   2
           1      56:  160    1:   35    1:   60
           2       1:   55    1:   36    1:   60
           3      56:  160   36:  120    1:   60
           4       1:   55   37:  120    1:   60
New grid distribution:   3
           1      58:  160    1:   39    1:   60
           2       1:   57    1:   39    1:   60
           3      58:  160   40:  120    1:   60
           4       1:   57   40:  120    1:   60
Setting up quadratic distribution...
ExtMesh (bp) on 0 =   213 x   139 x   172 =     5092404
PhiOnMesh: Number of (b)points on node 0 =               220500
PhiOnMesh: nlist on node 0 =              2538134

stepf: Fermi-Dirac step function

siesta: Program's energy decomposition (eV):
siesta: Ebs     =      -623.966351
siesta: Eions   =      3585.165840
siesta: Ena     =       382.019161
siesta: Ekin    =      3369.980412
siesta: Enl     =     -3298.508193
siesta: Eso     =        -0.003411
siesta: Edftu   =         0.000000
siesta: DEna    =       153.678119
siesta: DUscf   =        81.946143
siesta: DUext   =         0.000000
siesta: Exc     =     -1204.280723
siesta: eta*DQ  =         0.000000
siesta: Emadel  =         0.000000
siesta: Emeta   =         0.000000
siesta: Emolmec =         0.000000
siesta: Ekinion =         0.000000
siesta: Eharris =     -4020.245538
siesta: Etot    =     -4100.334333
siesta: FreeEng =     -4100.335755

        iscf     Eharris(eV)        E_KS(eV)     FreeEng(eV)     dDmax    Ef(eV) dHmax(eV)
   scf:    1    -4020.245538    -4100.334333    -4100.335755  0.964986 -4.904553 21.885696
     spin moment: S , {S} =    2.00727  -0.00000   0.00000   2.00727
timer: Routine,Calls,Time,% = IterSCF        1      13.214  18.77
   scf:    2    -4146.909972    -4135.780850    -4135.782681  0.449948 -4.230508 11.671890
     spin moment: S , {S} =    1.98888   0.00000   0.00000   1.98888
   scf:    3    -4105.718424    -4132.907111    -4132.925050  0.420767 -4.339429 12.221537
     spin moment: S , {S} =    2.15978  -0.00000   0.00000   2.15978
   scf:    4    -4149.782051    -4144.948738    -4144.948738  0.318003 -3.906380  7.159330
     spin moment: S , {S} =    0.00010  -0.00000  -0.00000   0.00010
   scf:    5    -4146.312534    -4145.736930    -4145.736930  0.036819 -3.704646  4.590250
     spin moment: S , {S} =    0.00006   0.00000  -0.00000   0.00006
   scf:    6    -4146.505371    -4146.130359    -4146.130359  0.024285 -3.624537  2.264486
     spin moment: S , {S} =    0.00003   0.00000   0.00000   0.00003
   scf:    7    -4146.487931    -4146.305372    -4146.305372  0.021778 -3.524129  0.885888
     spin moment: S , {S} =    0.00001  -0.00000   0.00000   0.00001
   scf:    8    -4146.424219    -4146.362802    -4146.362802  0.012230 -3.767440  0.510532
     spin moment: S , {S} =    0.00000   0.00000  -0.00000   0.00000
   scf:    9    -4146.401626    -4146.381520    -4146.381520  0.006562 -3.723671  0.391116
     spin moment: S , {S} =    0.00000  -0.00000  -0.00000   0.00000
   scf:   10    -4146.433879    -4146.400953    -4146.400953  0.022252 -3.801177  0.238541
     spin moment: S , {S} =    0.00000  -0.00000  -0.00000  -0.00000
   scf:   11    -4146.404865    -4146.402928    -4146.402928  0.005654 -3.787927  0.064613
     spin moment: S , {S} =    0.00000   0.00000   0.00000  -0.00000
   scf:   12    -4146.404182    -4146.403569    -4146.403569  0.001036 -3.780848  0.029119
     spin moment: S , {S} =    0.00000   0.00000   0.00000  -0.00000
   scf:   13    -4146.404086    -4146.403825    -4146.403825  0.001219 -3.777690  0.019177
     spin moment: S , {S} =    0.00000   0.00000   0.00000  -0.00000
   scf:   14    -4146.404095    -4146.403954    -4146.403954  0.000899 -3.777400  0.011065
     spin moment: S , {S} =    0.00000   0.00000   0.00000  -0.00000
   scf:   15    -4146.404062    -4146.404004    -4146.404004  0.000810 -3.776405  0.007659
     spin moment: S , {S} =    0.00000   0.00000   0.00000  -0.00000
   scf:   16    -4146.404071    -4146.404034    -4146.404034  0.000811 -3.778211  0.005532
     spin moment: S , {S} =    0.00000   0.00000   0.00000   0.00000
   scf:   17    -4146.404052    -4146.404042    -4146.404042  0.000408 -3.778100  0.004093
     spin moment: S , {S} =    0.00000   0.00000   0.00000   0.00000
   scf:   18    -4146.404051    -4146.404046    -4146.404046  0.000296 -3.778303  0.002664
     spin moment: S , {S} =    0.00000   0.00000   0.00000   0.00000
   scf:   19    -4146.404051    -4146.404048    -4146.404048  0.000223 -3.778465  0.001822
     spin moment: S , {S} =    0.00000   0.00000   0.00000   0.00000
   scf:   20    -4146.404050    -4146.404049    -4146.404049  0.000133 -3.778489  0.001288
     spin moment: S , {S} =    0.00000   0.00000   0.00000   0.00000
   scf:   21    -4146.404051    -4146.404050    -4146.404050  0.000188 -3.778459  0.000634
     spin moment: S , {S} =    0.00000   0.00000   0.00000   0.00000
   scf:   22    -4146.404050    -4146.404050    -4146.404050  0.000110 -3.778427  0.000234
     spin moment: S , {S} =    0.00000   0.00000   0.00000   0.00000
   scf:   23    -4146.404050    -4146.404050    -4146.404050  0.000031 -3.778422  0.000186
     spin moment: S , {S} =    0.00000   0.00000   0.00000   0.00000
   scf:   24    -4146.404050    -4146.404050    -4146.404050  0.000015 -3.778430  0.000106
     spin moment: S , {S} =    0.00000   0.00000   0.00000   0.00000
mix: Pulay -- resetting history
   scf:   25    -4146.404050    -4146.404050    -4146.404050  0.000007 -3.778436  0.000046
     spin moment: S , {S} =    0.00000   0.00000   0.00000   0.00000
   scf:   26    -4146.404050    -4146.404050    -4146.404050  0.000003 -3.778437  0.000034
     spin moment: S , {S} =    0.00000   0.00000   0.00000   0.00000
   scf:   27    -4146.404050    -4146.404050    -4146.404050  0.000002 -3.778435  0.000021
     spin moment: S , {S} =    0.00000   0.00000   0.00000   0.00000
   scf:   28    -4146.404050    -4146.404050    -4146.404050  0.000002 -3.778433  0.000012
     spin moment: S , {S} =    0.00000   0.00000   0.00000   0.00000
   scf:   29    -4146.404050    -4146.404050    -4146.404050  0.000001 -3.778432  0.000007
     spin moment: S , {S} =    0.00000   0.00000   0.00000   0.00000
   scf:   30    -4146.404050    -4146.404050    -4146.404050  0.000001 -3.778432  0.000003
     spin moment: S , {S} =    0.00000   0.00000   0.00000  -0.00000
   scf:   31    -4146.404050    -4146.404050    -4146.404050  0.000001 -3.778432  0.000002
     spin moment: S , {S} =    0.00000   0.00000   0.00000  -0.00000
   scf:   32    -4146.404050    -4146.404050    -4146.404050  0.000000 -3.778432  0.000001
     spin moment: S , {S} =    0.00000   0.00000   0.00000  -0.00000
   scf:   33    -4146.404050    -4146.404050    -4146.404050  0.000000 -3.778432  0.000001
     spin moment: S , {S} =    0.00000   0.00000   0.00000   0.00000

SCF Convergence by DM+H criterion
max |DM_out - DM_in|         :     0.0000001355
max |H_out - H_in|      (eV) :     0.0000005514
SCF cycle converged after 33 iterations

Using DM_out to compute the final energy and forces
No. of atoms with KB's overlaping orbs in proc 0. Max # of overlaps:      29     142

siesta: E_KS(eV) =            -4146.4040

siesta: E_KS - E_eggbox =     -4146.4040
     spin moment: S , {S} =    0.00000   0.00000   0.00000   0.00000

siesta: Atomic forces (eV/Ang):
     1   -2.033240   -2.644275   -0.000000
     2    0.005368    0.029684    0.000000
     3    0.806455   -0.426136   -0.000000
     4    0.777179   -0.025659    0.000000
     5    0.052098   -0.111012    0.000000
     6    1.838898    0.645572   -0.000000
     7    0.040499   -0.265466   -0.000000
     8   -0.443364    0.304894   -0.000000
     9   -0.206729    1.310334    0.000000
    10   -1.106171    0.375800    0.000000
    11   -0.025305   -0.020156   -0.000000
    12   -0.273119   -0.231585   -0.000000
    13    0.005734   -0.024602    0.000000
    14    0.153161    0.079055    0.000000
    15   -1.348624   -0.952038    0.000000
    16   -0.096320    0.142775   -0.000000
    17    1.078700   -1.156936    0.000000
    18   -0.228428    0.208320    0.000000
    19   -0.189727   -1.331850   -0.000000
    20   -0.010460   -0.444971    0.000000
    21   -0.332896    1.105288    0.000000
    22   -2.245400   -0.870231   -0.000000
    23    0.272710    0.582185    0.000000
    24    0.036042   -0.024852    0.000000
    25    0.009803    0.147283   -0.000000
    26   -0.314371   -0.169627    0.000000
    27    1.733788    1.338913    0.000000
    28   -1.771764    3.568265   -0.000000
    29    0.010398    0.150123   -0.000000
----------------------------------------
   Tot   -3.805086    1.289092    0.000000
----------------------------------------
   Max    3.568265
   Res    0.800665    sqrt( Sum f_i^2 / 3N )
----------------------------------------
   Max    3.568265    constrained

Stress tensor Voigt[x,y,z,yz,xz,xy] (kbar):       -0.03        1.26       -0.10       -0.00       -0.00        1.28
(Free)E + p*V (eV/cell)    -4147.7670
Target enthalpy (eV/cell)    -4146.4040

mulliken: Atomic and Orbital Populations:

Species: O                   

Atom      Orb        Charge      Spin       Svec
----------------------------------------------------------------
    1  1 2s         1.74792   0.00000      0.000   0.000  -0.000
    1  2 2s         0.06705   0.00000     -0.000  -0.000   0.000
    1  3 2py        1.42394   0.00000     -0.000   0.000  -0.000
    1  4 2pz        1.54249   0.00000      0.000  -0.000   0.000
    1  5 2px        1.62388   0.00000     -0.000  -0.000  -0.000
    1  6 2py        0.03911   0.00000      0.000  -0.000   0.000
    1  7 2pz       -0.00521   0.00000     -0.000   0.000   0.000
    1  8 2px        0.00693   0.00000      0.000  -0.000   0.000
    1  9 3Pdxy      0.00708   0.00000      0.000  -0.000   0.000
    1 10 3Pdyz      0.00909   0.00000     -0.000  -0.000  -0.000
    1 11 3Pdz2      0.00160   0.00000      0.000   0.000   0.000
    1 12 3Pdxz      0.00038   0.00000     -0.000  -0.000   0.000
    1 13 3Pdx2-y2   0.00695   0.00000     -0.000  -0.000   0.000
    1     Total     6.47121   0.00000     -0.000  -0.000   0.000

   28  1 2s         1.74622   0.00000      0.000  -0.000   0.000
   28  2 2s         0.06713   0.00000     -0.000   0.000   0.000
   28  3 2py        1.40666   0.00000     -0.000  -0.000   0.000
   28  4 2pz        1.54149   0.00000      0.000   0.000   0.000
   28  5 2px        1.64444   0.00000      0.000   0.000   0.000
   28  6 2py        0.04270   0.00000      0.000  -0.000   0.000
   28  7 2pz       -0.00375   0.00000      0.000  -0.000  -0.000
   28  8 2px        0.01111   0.00000     -0.000  -0.000   0.000
   28  9 3Pdxy      0.00647   0.00000     -0.000  -0.000   0.000
   28 10 3Pdyz      0.00978   0.00000     -0.000  -0.000  -0.000
   28 11 3Pdz2      0.00126   0.00000      0.000   0.000   0.000
   28 12 3Pdxz     -0.00018   0.00000     -0.000  -0.000   0.000
   28 13 3Pdx2-y2   0.00772   0.00000      0.000  -0.000  -0.000
   28     Total     6.48106   0.00000      0.000   0.000   0.000

----------------------------------------------------------------
Total              12.95227   0.00000      0.000   0.000   0.000


Species: N                   

Atom      Orb        Charge      Spin       Svec
----------------------------------------------------------------
    2  1 2s         1.55155   0.00000     -0.000  -0.000  -0.000
    2  2 2s         0.08411   0.00000      0.000  -0.000   0.000
    2  3 2py        1.04347   0.00000     -0.000   0.000  -0.000
    2  4 2pz        1.22419   0.00000      0.000  -0.000  -0.000
    2  5 2px        0.98939   0.00000     -0.000   0.000  -0.000
    2  6 2py        0.18858   0.00000      0.000  -0.000   0.000
    2  7 2pz        0.05543   0.00000     -0.000  -0.000   0.000
    2  8 2px        0.19593   0.00000      0.000  -0.000   0.000
    2  9 3Pdxy      0.00840   0.00000     -0.000  -0.000   0.000
    2 10 3Pdyz      0.01099   0.00000      0.000   0.000   0.000
    2 11 3Pdz2      0.00195   0.00000     -0.000  -0.000   0.000
    2 12 3Pdxz      0.00757   0.00000      0.000   0.000   0.000
    2 13 3Pdx2-y2   0.00909   0.00000      0.000   0.000  -0.000
    2     Total     5.37066   0.00000     -0.000   0.000  -0.000

    3  1 2s         1.40101   0.00000      0.000   0.000  -0.000
    3  2 2s         0.11625   0.00000     -0.000  -0.000   0.000
    3  3 2py        0.94137   0.00000     -0.000  -0.000  -0.000
    3  4 2pz        1.54334   0.00000     -0.000  -0.000  -0.000
    3  5 2px        1.08151   0.00000      0.000   0.000  -0.000
    3  6 2py        0.24853   0.00000      0.000   0.000   0.000
    3  7 2pz        0.00737   0.00000      0.000   0.000   0.000
    3  8 2px        0.17874   0.00000     -0.000  -0.000   0.000
    3  9 3Pdxy      0.00400   0.00000      0.000  -0.000   0.000
    3 10 3Pdyz      0.00419   0.00000     -0.000   0.000  -0.000
    3 11 3Pdz2      0.00075   0.00000     -0.000   0.000   0.000
    3 12 3Pdxz      0.00279   0.00000     -0.000   0.000  -0.000
    3 13 3Pdx2-y2   0.00284   0.00000      0.000  -0.000  -0.000
    3     Total     5.53268   0.00000     -0.000   0.000  -0.000

    4  1 2s         1.45976   0.00000      0.000   0.000  -0.000
    4  2 2s         0.11892   0.00000     -0.000  -0.000   0.000
    4  3 2py        1.13108   0.00000      0.000  -0.000  -0.000
    4  4 2pz        1.29453   0.00000      0.000  -0.000  -0.000
    4  5 2px        0.82594   0.00000      0.000   0.000  -0.000
    4  6 2py        0.14947   0.00000      0.000   0.000   0.000
    4  7 2pz        0.05364   0.00000     -0.000   0.000   0.000
    4  8 2px        0.29234   0.00000     -0.000  -0.000   0.000
    4  9 3Pdxy      0.00869   0.00000     -0.000  -0.000   0.000
    4 10 3Pdyz      0.01045   0.00000     -0.000   0.000   0.000
    4 11 3Pdz2      0.00126   0.00000     -0.000  -0.000   0.000
    4 12 3Pdxz      0.00499   0.00000     -0.000   0.000  -0.000
    4 13 3Pdx2-y2   0.00798   0.00000      0.000  -0.000  -0.000
    4     Total     5.35905   0.00000      0.000  -0.000  -0.000

    5  1 2s         1.37624   0.00000     -0.000   0.000  -0.000
    5  2 2s         0.12793   0.00000      0.000   0.000   0.000
    5  3 2py        1.02636   0.00000     -0.000   0.000  -0.000
    5  4 2pz        1.50087   0.00000     -0.000  -0.000  -0.000
    5  5 2px        1.05989   0.00000     -0.000   0.000  -0.000
    5  6 2py        0.20359   0.00000      0.000  -0.000   0.000
    5  7 2pz        0.01336   0.00000      0.000   0.000   0.000
    5  8 2px        0.20106   0.00000      0.000   0.000   0.000
    5  9 3Pdxy      0.00393   0.00000      0.000  -0.000   0.000
    5 10 3Pdyz      0.00241   0.00000     -0.000   0.000   0.000
    5 11 3Pdz2      0.00142   0.00000      0.000   0.000   0.000
    5 12 3Pdxz      0.00685   0.00000     -0.000  -0.000   0.000
    5 13 3Pdx2-y2   0.00559   0.00000      0.000  -0.000   0.000
    5     Total     5.52951   0.00000     -0.000   0.000  -0.000

    6  1 2s         1.26947   0.00000     -0.000   0.000  -0.000
    6  2 2s         0.17919   0.00000      0.000  -0.000   0.000
    6  3 2py        1.07567   0.00000      0.000   0.000  -0.000
    6  4 2pz        1.57479   0.00000      0.000   0.000  -0.000
    6  5 2px        0.95550   0.00000     -0.000   0.000  -0.000
    6  6 2py        0.18839   0.00000     -0.000  -0.000   0.000
    6  7 2pz        0.02984   0.00000     -0.000  -0.000   0.000
    6  8 2px        0.25566   0.00000      0.000  -0.000   0.000
    6  9 3Pdxy      0.00248   0.00000      0.000   0.000   0.000
    6 10 3Pdyz      0.00016   0.00000      0.000   0.000  -0.000
    6 11 3Pdz2      0.00176   0.00000     -0.000  -0.000   0.000
    6 12 3Pdxz      0.00325   0.00000      0.000   0.000  -0.000
    6 13 3Pdx2-y2   0.00393   0.00000     -0.000  -0.000  -0.000
    6     Total     5.54011   0.00000     -0.000   0.000  -0.000

   21  1 2s         1.42465   0.00000      0.000   0.000   0.000
   21  2 2s         0.12785   0.00000     -0.000  -0.000  -0.000
   21  3 2py        0.87100   0.00000      0.000   0.000   0.000
   21  4 2pz        1.29420   0.00000      0.000   0.000   0.000
   21  5 2px        1.15635   0.00000      0.000  -0.000  -0.000
   21  6 2py        0.27561   0.00000     -0.000  -0.000  -0.000
   21  7 2pz        0.04904   0.00000     -0.000  -0.000   0.000
   21  8 2px        0.16331   0.00000     -0.000  -0.000   0.000
   21  9 3Pdxy      0.00651   0.00000     -0.000  -0.000   0.000
   21 10 3Pdyz      0.00509   0.00000      0.000   0.000  -0.000
   21 11 3Pdz2      0.00017   0.00000     -0.000   0.000  -0.000
   21 12 3Pdxz      0.00576   0.00000     -0.000  -0.000  -0.000
   21 13 3Pdx2-y2   0.00561   0.00000     -0.000   0.000  -0.000
   21     Total     5.38516   0.00000      0.000   0.000   0.000

   22  1 2s         1.29463   0.00000      0.000  -0.000  -0.000
   22  2 2s         0.16763   0.00000     -0.000  -0.000   0.000
   22  3 2py        1.05651   0.00000     -0.000   0.000  -0.000
   22  4 2pz        1.55832   0.00000     -0.000  -0.000  -0.000
   22  5 2px        0.98237   0.00000     -0.000   0.000  -0.000
   22  6 2py        0.19654   0.00000      0.000  -0.000   0.000
   22  7 2pz        0.02823   0.00000      0.000   0.000   0.000
   22  8 2px        0.23502   0.00000      0.000  -0.000   0.000
   22  9 3Pdxy      0.00331   0.00000     -0.000  -0.000  -0.000
   22 10 3Pdyz      0.00035   0.00000     -0.000   0.000   0.000
   22 11 3Pdz2      0.00257   0.00000     -0.000   0.000   0.000
   22 12 3Pdxz      0.00315   0.00000     -0.000   0.000  -0.000
   22 13 3Pdx2-y2   0.00476   0.00000      0.000  -0.000  -0.000
   22     Total     5.53340   0.00000     -0.000  -0.000  -0.000

   23  1 2s         1.39734   0.00000     -0.000  -0.000   0.000
   23  2 2s         0.11783   0.00000      0.000   0.000  -0.000
   23  3 2py        1.00670   0.00000      0.000   0.000  -0.000
   23  4 2pz        1.52430   0.00000      0.000   0.000  -0.000
   23  5 2px        1.06536   0.00000      0.000  -0.000  -0.000
   23  6 2py        0.21159   0.00000     -0.000   0.000   0.000
   23  7 2pz        0.00495   0.00000     -0.000  -0.000  -0.000
   23  8 2px        0.19796   0.00000     -0.000   0.000   0.000
   23  9 3Pdxy      0.00530   0.00000      0.000  -0.000   0.000
   23 10 3Pdyz      0.00445   0.00000      0.000   0.000  -0.000
   23 11 3Pdz2      0.00059   0.00000     -0.000   0.000  -0.000
   23 12 3Pdxz      0.00243   0.00000     -0.000  -0.000  -0.000
   23 13 3Pdx2-y2   0.00137   0.00000     -0.000   0.000  -0.000
   23     Total     5.54018   0.00000      0.000   0.000  -0.000

----------------------------------------------------------------
Total              56.74303   0.00000      0.000   0.000  -0.000


Species: Si                  

Atom      Orb        Charge      Spin       Svec
----------------------------------------------------------------
    7  1 3s         0.66772   0.00000     -0.000  -0.000   0.000
    7  2 3s         0.36503   0.00000      0.000   0.000   0.000
    7  3 3py        0.48775   0.00000      0.000  -0.000   0.000
    7  4 3pz        0.68980   0.00000     -0.000   0.000   0.000
    7  5 3px        0.12478   0.00000      0.000  -0.000  -0.000
    7  6 3py        0.26464   0.00000     -0.000  -0.000   0.000
    7  7 3pz        0.25922   0.00000      0.000  -0.000   0.000
    7  8 3px        0.43848   0.00000      0.000   0.000   0.000
    7  9 3Pdxy      0.24570   0.00000     -0.000   0.000   0.000
    7 10 3Pdyz      0.02940   0.00000      0.000   0.000  -0.000
    7 11 3Pdz2      0.01176   0.00000     -0.000   0.000   0.000
    7 12 3Pdxz      0.14568   0.00000      0.000  -0.000  -0.000
    7 13 3Pdx2-y2   0.11291   0.00000     -0.000   0.000  -0.000
    7     Total     3.84286   0.00000      0.000  -0.000   0.000

    8  1 3s         0.65689   0.00000      0.000  -0.000  -0.000
    8  2 3s         0.36848   0.00000     -0.000   0.000   0.000
    8  3 3py        0.38786   0.00000      0.000  -0.000  -0.000
    8  4 3pz        0.52640   0.00000      0.000   0.000  -0.000
    8  5 3px       -0.03094   0.00000     -0.000  -0.000  -0.000
    8  6 3py        0.30894   0.00000     -0.000   0.000   0.000
    8  7 3pz        0.20186   0.00000      0.000   0.000   0.000
    8  8 3px        0.51463   0.00000      0.000   0.000   0.000
    8  9 3Pdxy      0.24582   0.00000     -0.000   0.000   0.000
    8 10 3Pdyz      0.11216   0.00000      0.000  -0.000  -0.000
    8 11 3Pdz2      0.01455   0.00000      0.000  -0.000   0.000
    8 12 3Pdxz      0.15315   0.00000      0.000   0.000  -0.000
    8 13 3Pdx2-y2   0.20020   0.00000      0.000  -0.000  -0.000
    8     Total     3.65998   0.00000      0.000  -0.000  -0.000

    9  1 3s         0.60505   0.00000      0.000  -0.000   0.000
    9  2 3s         0.36629   0.00000     -0.000   0.000  -0.000
    9  3 3py        0.07520   0.00000     -0.000   0.000  -0.000
    9  4 3pz        0.48464   0.00000      0.000   0.000  -0.000
    9  5 3px        0.37817   0.00000      0.000   0.000  -0.000
    9  6 3py        0.44752   0.00000      0.000   0.000  -0.000
    9  7 3pz        0.18763   0.00000     -0.000  -0.000  -0.000
    9  8 3px        0.27374   0.00000     -0.000  -0.000   0.000
    9  9 3Pdxy      0.31229   0.00000     -0.000  -0.000  -0.000
    9 10 3Pdyz      0.18973   0.00000     -0.000   0.000  -0.000
    9 11 3Pdz2      0.01648   0.00000      0.000   0.000   0.000
    9 12 3Pdxz      0.09689   0.00000      0.000  -0.000  -0.000
    9 13 3Pdx2-y2   0.17165   0.00000      0.000   0.000   0.000
    9     Total     3.60526   0.00000     -0.000   0.000  -0.000

   10  1 3s         0.48339   0.00000     -0.000  -0.000   0.000
   10  2 3s         0.37740   0.00000      0.000   0.000   0.000
   10  3 3py        0.24201   0.00000      0.000  -0.000   0.000
   10  4 3pz        0.40951   0.00000      0.000   0.000   0.000
   10  5 3px        0.10127   0.00000      0.000  -0.000   0.000
   10  6 3py        0.32763   0.00000     -0.000   0.000   0.000
   10  7 3pz        0.22231   0.00000     -0.000   0.000   0.000
   10  8 3px        0.42833   0.00000     -0.000   0.000   0.000
   10  9 3Pdxy      0.16951   0.00000     -0.000  -0.000   0.000
   10 10 3Pdyz      0.14041   0.00000      0.000  -0.000   0.000
   10 11 3Pdz2      0.01042   0.00000      0.000  -0.000   0.000
   10 12 3Pdxz      0.17456   0.00000     -0.000   0.000   0.000
   10 13 3Pdx2-y2   0.31034   0.00000     -0.000  -0.000  -0.000
   10     Total     3.39709   0.00000      0.000  -0.000   0.000

   11  1 3s         0.55277   0.00000      0.000   0.000   0.000
   11  2 3s         0.38540   0.00000     -0.000  -0.000   0.000
   11  3 3py        0.32151   0.00000     -0.000  -0.000   0.000
   11  4 3pz        0.53959   0.00000     -0.000   0.000   0.000
   11  5 3px        0.12360   0.00000     -0.000   0.000   0.000
   11  6 3py        0.28695   0.00000      0.000   0.000   0.000
   11  7 3pz        0.17770   0.00000      0.000  -0.000   0.000
   11  8 3px        0.44694   0.00000      0.000   0.000   0.000
   11  9 3Pdxy      0.22530   0.00000      0.000   0.000   0.000
   11 10 3Pdyz      0.12618   0.00000     -0.000  -0.000   0.000
   11 11 3Pdz2      0.00956   0.00000     -0.000  -0.000   0.000
   11 12 3Pdxz      0.05265   0.00000      0.000   0.000   0.000
   11 13 3Pdx2-y2   0.20370   0.00000     -0.000   0.000   0.000
   11     Total     3.45186   0.00000     -0.000   0.000   0.000

   17  1 3s         0.63973   0.00000     -0.000   0.000   0.000
   17  2 3s         0.36045   0.00000      0.000  -0.000  -0.000
   17  3 3py        0.22819   0.00000      0.000  -0.000  -0.000
   17  4 3pz        0.42417   0.00000     -0.000   0.000   0.000
   17  5 3px        0.24485   0.00000      0.000   0.000   0.000
   17  6 3py        0.38770   0.00000     -0.000   0.000  -0.000
   17  7 3pz        0.21104   0.00000      0.000  -0.000   0.000
   17  8 3px        0.36824   0.00000     -0.000  -0.000  -0.000
   17  9 3Pdxy      0.30214   0.00000      0.000   0.000   0.000
   17 10 3Pdyz      0.14315   0.00000     -0.000   0.000   0.000
   17 11 3Pdz2      0.00911   0.00000      0.000   0.000   0.000
   17 12 3Pdxz      0.14325   0.00000     -0.000   0.000   0.000
   17 13 3Pdx2-y2   0.16328   0.00000      0.000   0.000   0.000
   17     Total     3.62530   0.00000     -0.000   0.000   0.000

   18  1 3s         0.74445   0.00000     -0.000   0.000   0.000
   18  2 3s         0.33934   0.00000      0.000  -0.000   0.000
   18  3 3py        0.08018   0.00000      0.000  -0.000   0.000
   18  4 3pz        0.82333   0.00000      0.000  -0.000   0.000
   18  5 3px        0.55531   0.00000     -0.000  -0.000   0.000
   18  6 3py        0.51754   0.00000     -0.000   0.000   0.000
   18  7 3pz        0.19749   0.00000     -0.000   0.000   0.000
   18  8 3px        0.24998   0.00000      0.000  -0.000   0.000
   18  9 3Pdxy      0.10341   0.00000      0.000   0.000  -0.000
   18 10 3Pdyz      0.02740   0.00000      0.000   0.000  -0.000
   18 11 3Pdz2      0.00875   0.00000     -0.000   0.000  -0.000
   18 12 3Pdxz      0.03020   0.00000     -0.000  -0.000  -0.000
   18 13 3Pdx2-y2   0.11319   0.00000      0.000   0.000   0.000
   18     Total     3.79055   0.00000      0.000  -0.000   0.000

   19  1 3s         0.45933   0.00000     -0.000   0.000  -0.000
   19  2 3s         0.36542   0.00000      0.000  -0.000  -0.000
   19  3 3py        0.08235   0.00000      0.000   0.000   0.000
   19  4 3pz        0.42891   0.00000     -0.000   0.000  -0.000
   19  5 3px        0.35547   0.00000     -0.000  -0.000   0.000
   19  6 3py        0.47065   0.00000     -0.000  -0.000  -0.000
   19  7 3pz        0.18322   0.00000      0.000  -0.000  -0.000
   19  8 3px        0.23913   0.00000      0.000   0.000  -0.000
   19  9 3Pdxy      0.34148   0.00000     -0.000  -0.000  -0.000
   19 10 3Pdyz      0.18809   0.00000      0.000  -0.000  -0.000
   19 11 3Pdz2      0.01608   0.00000      0.000   0.000  -0.000
   19 12 3Pdxz      0.08729   0.00000     -0.000  -0.000   0.000
   19 13 3Pdx2-y2   0.23677   0.00000     -0.000  -0.000   0.000
   19     Total     3.45419   0.00000     -0.000  -0.000  -0.000

   20  1 3s         0.67327   0.00000     -0.000  -0.000  -0.000
   20  2 3s         0.37808   0.00000      0.000   0.000   0.000
   20  3 3py        0.33132   0.00000     -0.000   0.000  -0.000
   20  4 3pz        0.58934   0.00000     -0.000   0.000  -0.000
   20  5 3px        0.13806   0.00000     -0.000  -0.000  -0.000
   20  6 3py        0.29225   0.00000      0.000   0.000   0.000
   20  7 3pz        0.16390   0.00000      0.000   0.000  -0.000
   20  8 3px        0.49971   0.00000      0.000   0.000   0.000
   20  9 3Pdxy      0.10036   0.00000      0.000  -0.000  -0.000
   20 10 3Pdyz      0.13390   0.00000     -0.000  -0.000  -0.000
   20 11 3Pdz2      0.00735   0.00000      0.000  -0.000   0.000
   20 12 3Pdxz      0.02699   0.00000      0.000  -0.000   0.000
   20 13 3Pdx2-y2   0.17194   0.00000      0.000   0.000   0.000
   20     Total     3.50647   0.00000     -0.000   0.000  -0.000

----------------------------------------------------------------
Total              89.07658   0.00000     -0.000   0.000   0.000


Species: H                   

Atom      Orb        Charge      Spin       Svec
----------------------------------------------------------------
   12  1 1s         0.49783   0.00000      0.000  -0.000  -0.000
   12  2 1s         0.18181   0.00000     -0.000  -0.000   0.000
   12  3 2Ppy       0.02915   0.00000      0.000   0.000  -0.000
   12  4 2Ppz       0.03431   0.00000      0.000   0.000  -0.000
   12  5 2Ppx       0.02283   0.00000     -0.000  -0.000  -0.000
   12     Total     0.76593   0.00000     -0.000   0.000  -0.000

   13  1 1s         1.01883   0.00000      0.000  -0.000  -0.000
   13  2 1s         0.09540   0.00000     -0.000   0.000   0.000
   13  3 2Ppy       0.01809   0.00000     -0.000  -0.000  -0.000
   13  4 2Ppz       0.02005   0.00000      0.000  -0.000   0.000
   13  5 2Ppx       0.03517   0.00000      0.000   0.000   0.000
   13     Total     1.18754   0.00000      0.000  -0.000  -0.000

   14  1 1s         0.46089   0.00000      0.000  -0.000   0.000
   14  2 1s         0.20008   0.00000      0.000   0.000   0.000
   14  3 2Ppy       0.01791   0.00000      0.000  -0.000  -0.000
   14  4 2Ppz       0.04540   0.00000      0.000  -0.000  -0.000
   14  5 2Ppx       0.01713   0.00000      0.000  -0.000   0.000
   14     Total     0.74142   0.00000      0.000  -0.000   0.000

   15  1 1s         0.49980   0.00000     -0.000   0.000  -0.000
   15  2 1s         0.17824   0.00000      0.000  -0.000   0.000
   15  3 2Ppy       0.00518   0.00000     -0.000  -0.000   0.000
   15  4 2Ppz       0.04317   0.00000     -0.000  -0.000  -0.000
   15  5 2Ppx       0.02801   0.00000     -0.000  -0.000  -0.000
   15     Total     0.75440   0.00000     -0.000  -0.000  -0.000

   16  1 1s         0.50999   0.00000      0.000  -0.000   0.000
   16  2 1s         0.18726   0.00000      0.000   0.000   0.000
   16  3 2Ppy       0.02979   0.00000      0.000  -0.000   0.000
   16  4 2Ppz       0.03982   0.00000      0.000  -0.000  -0.000
   16  5 2Ppx       0.02359   0.00000     -0.000   0.000  -0.000
   16     Total     0.79044   0.00000      0.000  -0.000   0.000

   24  1 1s         1.06333   0.00000      0.000  -0.000  -0.000
   24  2 1s         0.07432   0.00000     -0.000   0.000   0.000
   24  3 2Ppy       0.03207   0.00000      0.000   0.000   0.000
   24  4 2Ppz       0.03076   0.00000     -0.000   0.000   0.000
   24  5 2Ppx       0.01729   0.00000      0.000  -0.000  -0.000
   24     Total     1.21777   0.00000     -0.000  -0.000  -0.000

   25  1 1s         1.04289   0.00000      0.000  -0.000  -0.000
   25  2 1s         0.08677   0.00000     -0.000   0.000  -0.000
   25  3 2Ppy       0.01227   0.00000     -0.000  -0.000  -0.000
   25  4 2Ppz       0.01844   0.00000      0.000   0.000  -0.000
   25  5 2Ppx       0.03570   0.00000      0.000   0.000   0.000
   25     Total     1.19607   0.00000      0.000   0.000  -0.000

   26  1 1s         0.47537   0.00000     -0.000   0.000   0.000
   26  2 1s         0.19613   0.00000      0.000   0.000   0.000
   26  3 2Ppy       0.02095   0.00000     -0.000   0.000   0.000
   26  4 2Ppz       0.04916   0.00000     -0.000   0.000  -0.000
   26  5 2Ppx       0.01610   0.00000     -0.000  -0.000   0.000
   26     Total     0.75771   0.00000     -0.000   0.000   0.000

   27  1 1s         0.51447   0.00000      0.000   0.000  -0.000
   27  2 1s         0.16875   0.00000     -0.000  -0.000   0.000
   27  3 2Ppy       0.00669   0.00000      0.000  -0.000  -0.000
   27  4 2Ppz       0.03815   0.00000      0.000   0.000  -0.000
   27  5 2Ppx       0.02848   0.00000     -0.000   0.000  -0.000
   27     Total     0.75654   0.00000      0.000   0.000  -0.000

   29  1 1s         0.48439   0.00000     -0.000   0.000   0.000
   29  2 1s         0.18774   0.00000      0.000   0.000   0.000
   29  3 2Ppy       0.02513   0.00000     -0.000  -0.000  -0.000
   29  4 2Ppz       0.03419   0.00000     -0.000  -0.000  -0.000
   29  5 2Ppx       0.02415   0.00000     -0.000   0.000  -0.000
   29     Total     0.75560   0.00000     -0.000  -0.000   0.000

----------------------------------------------------------------
Total              98.00000   0.00000      0.000   0.000   0.000


siesta: Eigenvalues (eV):
ik =     1
  -21.9625  -21.9625  -21.7496  -21.7496  -21.6023  -21.6023  -21.5975  -21.5975  -21.2549  -21.2549
  -20.9691  -20.9691  -20.8759  -20.8759  -19.8628  -19.8628  -19.3817  -19.3817  -19.3672  -19.3672
  -14.7285  -14.7285  -13.9189  -13.9189  -13.3353  -13.3353  -13.2373  -13.2373  -13.1272  -13.1272
  -12.9268  -12.9268  -12.8835  -12.8835  -12.4957  -12.4957  -12.3901  -12.3901  -12.0077  -12.0077
  -11.4980  -11.4980  -10.7895  -10.7895  -10.7872  -10.7872  -10.7406  -10.7406  -10.0695  -10.0695
   -9.5188   -9.5188   -9.2724   -9.2724   -8.8847   -8.8847   -8.7236   -8.7236   -8.6926   -8.6926
   -8.6508   -8.6508   -8.3729   -8.3729   -8.2181   -8.2181   -7.8345   -7.8345   -7.6677   -7.6677
   -7.5017   -7.5017   -7.3777   -7.3777   -7.3076   -7.3076   -6.9317   -6.9317   -6.7190   -6.7190
   -6.5413   -6.5413   -6.4715   -6.4715   -6.1206   -6.1206   -6.0964   -6.0964   -6.0551   -6.0551
   -5.6499   -5.6499   -5.6417   -5.6417   -5.4182   -5.4182   -4.3322   -4.3322   -3.2227   -3.2227
   -2.3380   -2.3380   -2.2809   -2.2809   -2.2704   -2.2704   -1.9139   -1.9139   -1.8850   -1.8850
   -1.8223   -1.8223   -1.7535   -1.7535   -1.5823   -1.5823   -1.5531   -1.5531   -0.9748   -0.9748
   -0.9559   -0.9559   -0.8529   -0.8529   -0.4099   -0.4099   -0.1417   -0.1417    0.0078    0.0078
    0.2531    0.2531    0.4115    0.4115    0.5091    0.5091    0.7220    0.7220    0.7370    0.7370
    0.9619    0.9619    1.1919    1.1919    1.3062    1.3062    1.3702    1.3702    1.4618    1.4618
    1.6530    1.6530    1.8158    1.8158    1.9074    1.9074    2.3230    2.3230    2.7214    2.7214
    2.7260    2.7260    2.8369    2.8369    2.9844    2.9844    3.1338    3.1338    3.3250    3.3250
    3.3582    3.3582    3.7536    3.7536    3.8291    3.8291    4.1010    4.1010    4.2648    4.2648
    4.4356    4.4356    4.5509    4.5509    4.5549    4.5549    4.6018    4.6018    4.8241    4.8241
    4.9468    4.9468    4.9641    4.9641    5.2169    5.2169    5.5166    5.5166    5.6427    5.6427
    5.6871    5.6871    5.8080    5.8080    5.8483    5.8483    5.9254    5.9254    5.9666    5.9666
    6.1866    6.1866    6.3116    6.3116    6.6502    6.6502    6.7069    6.7069    6.8285    6.8285
    7.0614    7.0614    7.1769    7.1769    7.3670    7.3670    7.4952    7.4952    7.7305    7.7305
    7.8156    7.8156    8.0285    8.0285    8.1063    8.1063    8.2153    8.2153    8.2829    8.2829
    8.4859    8.4859    8.6627    8.6627    8.7382    8.7382    8.9492    8.9492    9.2042    9.2042
    9.2075    9.2075    9.2357    9.2357    9.7623    9.7623    9.7999    9.7999    9.8454    9.8454
    9.9827    9.9827   10.1778   10.1778   10.4146   10.4146   10.6977   10.6977   10.8034   10.8034
   10.8965   10.8965   11.0666   11.0666   11.2253   11.2253   11.6875   11.6875   11.8072   11.8072
   11.8699   11.8699   11.9087   11.9087   12.1650   12.1650   12.3561   12.3561   12.5210   12.5210
   12.7149   12.7149   12.7564   12.7564   13.3646   13.3646   13.5134   13.5134   13.7447   13.7447
   13.7513   13.7513   14.0633   14.0633   14.2080   14.2080   14.4089   14.4089   14.8061   14.8061
   14.8739   14.8739   15.3463   15.3463   15.9723   15.9723   16.4015   16.4015   16.6856   16.6856
   16.9313   16.9313   17.3958   17.3958   17.6909   17.6909   18.1965   18.1965   18.3134   18.3134
   18.5620   18.5620   19.1155   19.1155   19.3227   19.3227   19.9255   19.9255   20.2620   20.2620
   20.9017   20.9017   21.3279   21.3279   21.7811   21.7811   22.1955   22.1955   22.4129   22.4129
   23.1078   23.1078   23.2630   23.2630   23.7543   23.7543   23.8234   23.8234   23.8424   23.8424
   24.8141   24.8141   25.1910   25.1910   26.0212   26.0212   26.7659   26.7659   27.3749   27.3749
   28.3486   28.3486   29.0742   29.0742   29.1103   29.1103   29.4871   29.4871   29.5707   29.5707
   30.0305   30.0305   30.1032   30.1032   30.2303   30.2303   30.5871   30.5871   30.7714   30.7714
   31.0073   31.0073   31.1867   31.1867   31.4852   31.4852   31.6021   31.6021   32.2315   32.2315
   32.6884   32.6884   33.8363   33.8363   34.5024   34.5024   34.7249   34.7249   34.9698   34.9698
   34.9814   34.9814   35.1494   35.1494   35.3630   35.3630   35.6459   35.6459   35.9071   35.9071
   36.7509   36.7509   36.7865   36.7865   37.0111   37.0111   37.1846   37.1846   37.5122   37.5122
   38.1567   38.1567   38.2718   38.2718   39.3671   39.3671   39.4494   39.4494   39.8948   39.8948
   40.2278   40.2278   40.5076   40.5076   40.6112   40.6112   40.6592   40.6592   40.9571   40.9571
   41.0486   41.0486   41.4638   41.4638   42.4019   42.4019   42.6228   42.6228   43.0227   43.0227
   43.1357   43.1357   43.7781   43.7781   43.8815   43.8815   44.0236   44.0236   44.2411   44.2411
   44.6633   44.6633   44.7230   44.7230   45.0346   45.0346   45.3383   45.3383   46.1111   46.1111
   46.3584   46.3584   46.8244   46.8244   47.1742   47.1742   48.6384   48.6384   48.9744   48.9744
   49.4442   49.4442   50.3292   50.3292   50.4870   50.4870   50.7280   50.7280   50.9039   50.9039
   51.3522   51.3522   51.5896   51.5896   52.6862   52.6862   52.6961   52.6961   54.1873   54.1873
   54.2744   54.2744   54.6089   54.6089   54.6942   54.6942   55.8121   55.8121   55.8518   55.8518
   55.8771   55.8771   56.0034   56.0034   56.5085   56.5085   57.8386   57.8386   58.2140   58.2140
   58.6554   58.6554   60.1306   60.1306   60.5018   60.5018   60.5555   60.5555   61.1259   61.1259
   61.8320   61.8320   61.9841   61.9841   62.2071   62.2071   64.4648   64.4648   66.4682   66.4682
   67.1328   67.1328   67.1772   67.1772   68.1803   68.1803   68.7188   68.7188   70.8239   70.8239
   74.0434   74.0434   79.9823   79.9823   91.0377   91.0377   91.9204   91.9204   93.3351   93.3351
   98.3495   98.3495   98.7100   98.7100   99.6518   99.6518  103.3149  103.3149  103.7251  103.7251
  110.0875  110.0875  111.6063  111.6063  123.6182  123.6182  125.7128  125.7128  129.9385  129.9385
  135.0096  135.0096  138.2759  138.2759
siesta: Fermi energy =      -3.778432 eV

siesta: Program's energy decomposition (eV):
siesta: Ebs     =     -1135.119752
siesta: Eions   =      3585.165840
siesta: Ena     =       382.019161
siesta: Ekin    =      2903.390830
siesta: Enl     =     -2788.150423
siesta: Eso     =        -0.004283
siesta: Edftu   =         0.000000
siesta: DEna    =        46.993260
siesta: DUscf   =        14.351349
siesta: DUext   =         0.000000
siesta: Exc     =     -1119.838105
siesta: eta*DQ  =         0.000000
siesta: Emadel  =         0.000000
siesta: Emeta   =         0.000000
siesta: Emolmec =         0.000000
siesta: Ekinion =         0.000000
siesta: Eharris =     -4146.404050
siesta: Etot    =     -4146.404050
siesta: FreeEng =     -4146.404050

siesta: Final energy (eV):
siesta:  Band Struct. =   -1135.119752
siesta:       Kinetic =    2903.390830
siesta:       Hartree =    8142.897851
siesta:       Edftu   =       0.000000
siesta:       Eso     =      -0.004283
siesta:    Ext. field =       0.000000
siesta:   Exch.-corr. =   -1119.838105
siesta:  Ion-electron =  -18870.629552
siesta:       Ion-ion =    4797.779208
siesta:       Ekinion =       0.000000
siesta:         Total =   -4146.404050
siesta:         Fermi =      -3.778432

siesta: Atomic forces (eV/Ang):
siesta:      1   -2.033240   -2.644275   -0.000000
siesta:      2    0.005368    0.029684    0.000000
siesta:      3    0.806455   -0.426136   -0.000000
siesta:      4    0.777179   -0.025659    0.000000
siesta:      5    0.052098   -0.111012    0.000000
siesta:      6    1.838898    0.645572   -0.000000
siesta:      7    0.040499   -0.265466   -0.000000
siesta:      8   -0.443364    0.304894   -0.000000
siesta:      9   -0.206729    1.310334    0.000000
siesta:     10   -1.106171    0.375800    0.000000
siesta:     11   -0.025305   -0.020156   -0.000000
siesta:     12   -0.273119   -0.231585   -0.000000
siesta:     13    0.005734   -0.024602    0.000000
siesta:     14    0.153161    0.079055    0.000000
siesta:     15   -1.348624   -0.952038    0.000000
siesta:     16   -0.096320    0.142775   -0.000000
siesta:     17    1.078700   -1.156936    0.000000
siesta:     18   -0.228428    0.208320    0.000000
siesta:     19   -0.189727   -1.331850   -0.000000
siesta:     20   -0.010460   -0.444971    0.000000
siesta:     21   -0.332896    1.105288    0.000000
siesta:     22   -2.245400   -0.870231   -0.000000
siesta:     23    0.272710    0.582185    0.000000
siesta:     24    0.036042   -0.024852    0.000000
siesta:     25    0.009803    0.147283   -0.000000
siesta:     26   -0.314371   -0.169627    0.000000
siesta:     27    1.733788    1.338913    0.000000
siesta:     28   -1.771764    3.568265   -0.000000
siesta:     29    0.010398    0.150123   -0.000000
siesta: ----------------------------------------
siesta:    Tot   -3.805086    1.289092    0.000000

siesta: Stress tensor (static) (eV/Ang**3):
siesta:    -0.000018    0.000801    0.000000
siesta:     0.000801    0.000788    0.000000
siesta:    -0.000000   -0.000000   -0.000061

siesta: Cell volume =       5764.058830 Ang**3

siesta: Pressure (static):
siesta:                Solid            Molecule  Units
siesta:          -0.00000258          0.00000401  Ry/Bohr**3
siesta:          -0.00023646          0.00036826  eV/Ang**3
siesta:          -0.37884922          0.59002850  kBar
(Free)E+ p_basis*V_orbitals  =       -4126.553632
(Free)Eharris+ p_basis*V_orbitals  =       -4126.553632
     spin moment: S , {S} =    0.00000   0.00000   0.00000   0.00000

siesta: Electric dipole (a.u.)  =    1.524777    0.004994   -0.000000
siesta: Electric dipole (Debye) =    3.875599    0.012693   -0.000000

cite: Please see "GC.bib" for an exhaustive BiBTeX file.
cite: Please clearly indicate Siesta version in published work: v4.1.5-1-g384057250
cite: This calculation has made use of the following articles
cite: which are encouraged to be cited in a published work.
        Primary SIESTA paper
          DOI: www.doi.org/10.1088/0953-8984/14/11/302
        Spin-orbit coupling (on-site approximation)
          DOI: www.doi.org/10.1088/0953-8984/19/19/489001


WARNING: alloc-realloc-dealloc name mismatch
         Name: atomlist isa
         Size:              -116. Bytes
         Node:     0
         Subsequent mismatches will not be reported
>> End of run:  28-JUN-2023  16:26:36
Job completed
