Siesta Version  : v4.1.5-1-g384057250
Architecture    : gcc
Compiler version: GNU Fortran (Debian 10.2.1-6) 10.2.1 20210110
Compiler flags  : mpifort -O2 -fPIC -ftree-vectorize -fallow-argument-mismatch
PP flags        : -DFC_HAVE_ABORT -DMPI -DSIESTA__FLOOK -DSIESTA__METIS -DSIESTA__MUMPS -DCDF -DNCDF -DNCDF_4 -DNCDF_PARALLEL -DSIESTA__MRRR -DSIESTA__ELPA
Libraries       : libncdf.a libfdict.a  -lflookall -ldl -lnetcdff -lnetcdf -lhdf5_hl -lhdf5 -lhdf5_fortran -lz -lscalapack-openmpi -lopenblas -lmetis -lzmumps -lcmumps -ldmumps -lmumps_common -lpord -lsmumps -lesmumps -lscotch -lscotcherr -fopenmp -lelpa
PARALLEL version
NetCDF support
NetCDF-4 support
NetCDF-4 MPI-IO support
METIS ordering support
Lua support

* Running on 6 nodes in parallel
>> Start of run:  16-OCT-2023  18:32:40

                           ***********************       
                           *  WELCOME TO SIESTA  *       
                           ***********************       

reinit: Reading from standard input
reinit: Dumped input in INPUT_TMP.16250
************************** Dump of input data file ****************************
# mpirun -np 4 siesta-4.1.5 < GC.fdf > GC.out &
SystemLabel      GC
NumberOfAtoms    29
NumberOfSpecies  4
%block ChemicalSpeciesLabel
    1    1  H
    2    7  N
    3   14  Si
    4    8  O
%endblock ChemicalSpeciesLabel
############################################
# This overrides Defaults.fdf configuration
############################################
MD.TypeOfRun                CG # CG, Verlet
MD.Steps                    0
MaxSCFIterations            600
AtomicCoordinatesFormat NotScaledCartesianAng
%block AtomicCoordinatesAndAtomicSpecies
    0.35130722671388004 4.614140993056088 0.0  1  1  H
    -0.3551795032861199 3.8241048130560875 0.0  2  2  N
    -2.08546641328612 4.265468723056087 0.0  3  3  Si
    -2.24124609328612 5.755460983056087 0.0  1  4  H
    -3.60878803328612 2.7065612030560873 0.0  3  5  Si
    -5.09197566328612 2.9493915630560874 0.0  1  6  H
    -2.41039717328612 0.7932850430560876 0.0  3  7  Si
    -3.17642263328612 -0.7394316969439125 0.0  2  8  N
    -2.58617608328612 -1.6966447269439124 0.0  1  9  H
    -4.22804495328612 -0.8198919269439124 0.0  1  10  H
    -0.6941971132861199 0.8484593530560876 0.0  2  11  N
    0.38082550671388005 2.1787981930560876 0.0  3  12  Si
    1.9894988267138798 2.1599879330560876 0.0  4  13  O
    5.6164483 -7.44953905 0.0  1  14  H
    4.58206954 -7.2320376 0.0  2  15  N
    3.29666389 -8.492636 0.0  3  16  Si
    3.80117524 -9.90371886 -0.0  1  17  H
    1.65934232 -8.01362137 0.0  2  18  N
    1.68097912 -6.20463398 -0.0  3  19  Si
    0.54543521 -4.28636135 0.0  3  20  Si
    -1.03431493 -3.94450034 0.0  4  21  O
    1.73226934 -2.87719605 0.0  2  22  N
    1.20957366 -1.92961761 -0.0  1  23  H
    3.50853448 -2.77677601 0.0  3  24  Si
    4.13684451 -1.17938608 0.0  2  25  N
    3.54296161 -0.26248101 0.0  1  26  H
    5.18364407 -1.05231197 -0.0  1  27  H
    4.63288658 -4.07521596 -0.0  2  28  N
    3.79410501 -5.58634043 0.0  3  29  Si
%endblock AtomicCoordinatesAndAtomicSpecies
%include ../../../../Defaults.fdf
************************** End of input data file *****************************

reinit: -----------------------------------------------------------------------
reinit: System Name: 
reinit: -----------------------------------------------------------------------
reinit: System Label: GC
reinit: -----------------------------------------------------------------------

initatom: Reading input for the pseudopotentials and atomic orbitals ----------
Species number:   1 Atomic number:    1 Label: H
Species number:   2 Atomic number:    7 Label: N
Species number:   3 Atomic number:   14 Label: Si
Species number:   4 Atomic number:    8 Label: O

Ground state valence configuration:   1s01
Reading pseudopotential information in formatted form from H.psf

Pseudopotential generated from a relativistic atomic calculation

Valence configuration for pseudopotential generation:
1s( 1.00) rc: 0.01
2p( 0.00) rc: 0.60
3d( 0.00) rc: 1.99
4f( 0.00) rc: 2.49
Ground state valence configuration:   2s02  2p03
Reading pseudopotential information in formatted form from N.psf

Pseudopotential generated from a relativistic atomic calculation

Valence configuration for pseudopotential generation:
2s( 2.00) rc: 0.94
2p( 3.00) rc: 0.59
3d( 0.00) rc: 3.46
4f( 0.00) rc: 2.47
Ground state valence configuration:   3s02  3p02
Reading pseudopotential information in formatted form from Si.psf

Pseudopotential generated from a relativistic atomic calculation

Valence configuration for pseudopotential generation:
3s( 2.00) rc: 1.67
3p( 2.00) rc: 2.04
3d( 0.00) rc: 2.89
4f( 0.00) rc: 2.49
Ground state valence configuration:   2s02  2p04
Reading pseudopotential information in formatted form from O.psf

Pseudopotential generated from a relativistic atomic calculation

Valence configuration for pseudopotential generation:
2s( 2.00) rc: 0.45
2p( 4.00) rc: 0.92
3d( 0.00) rc: 2.24
4f( 0.00) rc: 0.25
For H, standard SIESTA heuristics set lmxkb to 2
 (one more than the basis l, including polarization orbitals).
Use PS.lmax or PS.KBprojectors blocks to override.
For N, standard SIESTA heuristics set lmxkb to 3
 (one more than the basis l, including polarization orbitals).
Use PS.lmax or PS.KBprojectors blocks to override.
For Si, standard SIESTA heuristics set lmxkb to 3
 (one more than the basis l, including polarization orbitals).
Use PS.lmax or PS.KBprojectors blocks to override.
For O, standard SIESTA heuristics set lmxkb to 3
 (one more than the basis l, including polarization orbitals).
Use PS.lmax or PS.KBprojectors blocks to override.

<basis_specs>
===============================================================================
H                    Z=   1    Mass=  1.0100        Charge= 0.17977+309
Lmxo=0 Lmxkb= 2    BasisType=split      Semic=F
L=0  Nsemic=0  Cnfigmx=1
          i=1  nzeta=2  polorb=1  (1s)
            splnorm:   0.62000    
               vcte:    0.0000    
               rinn:    0.0000    
               qcoe:    0.0000    
               qyuk:    0.0000    
               qwid:   0.10000E-01
                rcs:    0.0000      0.0000    
            lambdas:    1.0000      1.0000    
-------------------------------------------------------------------------------
L=0  Nkbl=1  erefs: 0.17977+309
L=1  Nkbl=1  erefs: 0.17977+309
L=2  Nkbl=1  erefs: 0.17977+309
===============================================================================
</basis_specs>

atom: Called for H                     (Z =   1)

read_vps: Pseudopotential generation method:
read_vps: ATM4.2.7  Troullier-Martins                       
Valence charge for ps generation:    1.00000

xc_check: Exchange-correlation functional:
xc_check: GGA Perdew, Burke & Ernzerhof 1996
V l=0 = -2*Zval/r beyond r=  0.0098
V l=1 = -2*Zval/r beyond r=  0.5817
V l=2 = -2*Zval/r beyond r=  1.9372
All V_l potentials equal beyond r=  1.9372
This should be close to max(r_c) in ps generation
All pots = -2*Zval/r beyond r=  1.9372

VLOCAL1: 99.0% of the norm of Vloc inside     11.567 Ry
VLOCAL1: 99.9% of the norm of Vloc inside     26.362 Ry
atom: Maximum radius for 4*pi*r*r*local-pseudopot. charge    2.25106
atom: Maximum radius for r*vlocal+2*Zval:    1.91306
GHOST: No ghost state for L =  0
GHOST: No ghost state for L =  1
GHOST: No ghost state for L =  2

KBgen: Kleinman-Bylander projectors: 
   l= 0   rc=  2.036604   el= -0.477180   Ekb= -6.081590   kbcos= -0.277285
   l= 1   rc=  2.195416   el=  0.001076   Ekb= -0.926943   kbcos= -0.034643
   l= 2   rc=  2.251056   el=  0.002010   Ekb= -0.130941   kbcos= -0.009788

KBgen: Total number of Kleinman-Bylander projectors:    9
atom: -------------------------------------------------------------------------

atom: SANKEY-TYPE ORBITALS:
atom: Selected multiple-zeta basis: split     

SPLIT: Orbitals with angular momentum L= 0

SPLIT: Basis orbitals for state 1s

SPLIT: PAO cut-off radius determined from an
SPLIT: energy shift=  0.002000 Ry

   izeta = 1
                 lambda =    1.000000
                     rc =    6.518340
                 energy =   -0.475305
                kinetic =    0.912139
    potential(screened) =   -1.387444
       potential(ionic) =   -1.907295

   izeta = 2
                 rmatch =    2.141150
              splitnorm =    0.620000
                 energy =    0.566467
                kinetic =    3.772856
    potential(screened) =   -3.206389
       potential(ionic) =   -3.759093

POLgen: Perturbative polarization orbital with L=  1

POLgen: Polarization orbital for state 1s

   izeta = 1
                     rc =    6.518340
                 energy =    0.533861
                kinetic =    1.121086
    potential(screened) =   -0.587225
       potential(ionic) =   -1.053027
atom: Total number of Sankey-type orbitals:  5

atm_pop: Valence configuration (for local Pseudopot. screening):
 1s( 1.00)                                                            
Vna: chval, zval:    1.00000   1.00000

Vna:  Cut-off radius for the neutral-atom potential:   6.518340

atom: _________________________________________________________________________

<basis_specs>
===============================================================================
N                    Z=   7    Mass=  14.010        Charge= 0.17977+309
Lmxo=1 Lmxkb= 3    BasisType=split      Semic=F
L=0  Nsemic=0  Cnfigmx=2
          i=1  nzeta=2  polorb=0  (2s)
            splnorm:   0.28000    
               vcte:    0.0000    
               rinn:    0.0000    
               qcoe:    0.0000    
               qyuk:    0.0000    
               qwid:   0.10000E-01
                rcs:    0.0000      0.0000    
            lambdas:    1.0000      1.0000    
L=1  Nsemic=0  Cnfigmx=2
          i=1  nzeta=2  polorb=1  (2p)
            splnorm:   0.28000    
               vcte:    0.0000    
               rinn:    0.0000    
               qcoe:    0.0000    
               qyuk:    0.0000    
               qwid:   0.10000E-01
                rcs:    0.0000      0.0000    
            lambdas:    1.0000      1.0000    
-------------------------------------------------------------------------------
L=0  Nkbl=1  erefs: 0.17977+309
L=1  Nkbl=1  erefs: 0.17977+309
L=2  Nkbl=1  erefs: 0.17977+309
L=3  Nkbl=1  erefs: 0.17977+309
===============================================================================
</basis_specs>

atom: Called for N                     (Z =   7)

read_vps: Pseudopotential generation method:
read_vps: ATM4.2.7  Troullier-Martins                       
Valence charge for ps generation:    5.00000

xc_check: Exchange-correlation functional:
xc_check: GGA Perdew, Burke & Ernzerhof 1996
V l=0 = -2*Zval/r beyond r=  1.2889
V l=1 = -2*Zval/r beyond r=  1.2889
V l=2 = -2*Zval/r beyond r=  3.4178
V l=3 = -2*Zval/r beyond r=  2.4084
All V_l potentials equal beyond r=  3.3753
This should be close to max(r_c) in ps generation
All pots = -2*Zval/r beyond r=  3.4178

VLOCAL1: 99.0% of the norm of Vloc inside      3.810 Ry
VLOCAL1: 99.9% of the norm of Vloc inside      8.683 Ry
atom: Maximum radius for 4*pi*r*r*local-pseudopot. charge    4.02088
atom: Maximum radius for r*vlocal+2*Zval:    3.54838
GHOST: No ghost state for L =  0
GHOST: No ghost state for L =  1
GHOST: No ghost state for L =  2
GHOST: No ghost state for L =  3

KBgen: Kleinman-Bylander projectors: 
   l= 0   rc=  3.417763   el= -1.365098   Ekb= -4.433130   kbcos= -0.707855
   l= 1   rc=  3.375302   el= -0.521201   Ekb=-13.264039   kbcos= -0.535594
   l= 2   rc=  3.872880   el=  0.001991   Ekb= -0.641094   kbcos= -0.062456
   l= 3   rc=  3.970931   el=  0.003093   Ekb= -0.474517   kbcos= -0.018236

KBgen: Total number of Kleinman-Bylander projectors:   16
atom: -------------------------------------------------------------------------

atom: SANKEY-TYPE ORBITALS:
atom: Selected multiple-zeta basis: split     

SPLIT: Orbitals with angular momentum L= 0

SPLIT: Basis orbitals for state 2s

SPLIT: PAO cut-off radius determined from an
SPLIT: energy shift=  0.002000 Ry

   izeta = 1
                 lambda =    1.000000
                     rc =    4.730425
                 energy =   -1.363399
                kinetic =    1.245246
    potential(screened) =   -2.608645
       potential(ionic) =   -8.121105

   izeta = 2
                 rmatch =    2.531849
              splitnorm =    0.280000
                 energy =   -0.959908
                kinetic =    2.409435
    potential(screened) =   -3.369343
       potential(ionic) =   -9.427975

SPLIT: Orbitals with angular momentum L= 1

SPLIT: Basis orbitals for state 2p

SPLIT: PAO cut-off radius determined from an
SPLIT: energy shift=  0.002000 Ry

   izeta = 1
                 lambda =    1.000000
                     rc =    5.924108
                 energy =   -0.519262
                kinetic =    3.672940
    potential(screened) =   -4.192202
       potential(ionic) =   -9.518354

   izeta = 2
                 rmatch =    2.531849
              splitnorm =    0.280000
                 energy =   -0.104258
                kinetic =    6.807538
    potential(screened) =   -6.911796
       potential(ionic) =  -13.149920

POLgen: Perturbative polarization orbital with L=  2

POLgen: Polarization orbital for state 2p

   izeta = 1
                     rc =    5.924108
                 energy =    1.427508
                kinetic =    2.872379
    potential(screened) =   -1.444871
       potential(ionic) =   -5.563644
atom: Total number of Sankey-type orbitals: 13

atm_pop: Valence configuration (for local Pseudopot. screening):
 2s( 2.00)                                                            
 2p( 3.00)                                                            
Vna: chval, zval:    5.00000   5.00000

Vna:  Cut-off radius for the neutral-atom potential:   5.924108

atom: _________________________________________________________________________

<basis_specs>
===============================================================================
Si                   Z=  14    Mass=  28.090        Charge= 0.17977+309
Lmxo=1 Lmxkb= 3    BasisType=split      Semic=F
L=0  Nsemic=0  Cnfigmx=3
          i=1  nzeta=2  polorb=0  (3s)
            splnorm:   0.28000    
               vcte:    0.0000    
               rinn:    0.0000    
               qcoe:    0.0000    
               qyuk:    0.0000    
               qwid:   0.10000E-01
                rcs:    0.0000      0.0000    
            lambdas:    1.0000      1.0000    
L=1  Nsemic=0  Cnfigmx=3
          i=1  nzeta=2  polorb=1  (3p)
            splnorm:   0.28000    
               vcte:    0.0000    
               rinn:    0.0000    
               qcoe:    0.0000    
               qyuk:    0.0000    
               qwid:   0.10000E-01
                rcs:    0.0000      0.0000    
            lambdas:    1.0000      1.0000    
-------------------------------------------------------------------------------
L=0  Nkbl=1  erefs: 0.17977+309
L=1  Nkbl=1  erefs: 0.17977+309
L=2  Nkbl=1  erefs: 0.17977+309
L=3  Nkbl=1  erefs: 0.17977+309
===============================================================================
</basis_specs>

atom: Called for Si                    (Z =  14)

read_vps: Pseudopotential generation method:
read_vps: ATM4.2.7  Troullier-Martins                       
Valence charge for ps generation:    4.00000

xc_check: Exchange-correlation functional:
xc_check: GGA Perdew, Burke & Ernzerhof 1996
V l=0 = -2*Zval/r beyond r=  2.7826
V l=1 = -2*Zval/r beyond r=  2.7826
V l=2 = -2*Zval/r beyond r=  2.9253
V l=3 = -2*Zval/r beyond r=  2.7826
All V_l potentials equal beyond r=  2.8530
This should be close to max(r_c) in ps generation
All pots = -2*Zval/r beyond r=  2.9253

VLOCAL1: 99.0% of the norm of Vloc inside      5.333 Ry
VLOCAL1: 99.9% of the norm of Vloc inside     12.154 Ry
atom: Maximum radius for 4*pi*r*r*local-pseudopot. charge    3.39869
atom: Maximum radius for r*vlocal+2*Zval:    2.96205
GHOST: No ghost state for L =  0
GHOST: No ghost state for L =  1
GHOST: No ghost state for L =  2
GHOST: No ghost state for L =  3

KBgen: Kleinman-Bylander projectors: 
   l= 0   rc=  3.075247   el= -0.794092   Ekb=  5.879390   kbcos=  0.167461
   l= 1   rc=  3.153101   el= -0.300068   Ekb=  2.642817   kbcos=  0.058301
   l= 2   rc=  3.273594   el=  0.001958   Ekb= -1.185135   kbcos= -0.104411
   l= 3   rc=  3.232927   el=  0.003046   Ekb= -0.497174   kbcos= -0.015889

KBgen: Total number of Kleinman-Bylander projectors:   16
atom: -------------------------------------------------------------------------

atom: SANKEY-TYPE ORBITALS:
atom: Selected multiple-zeta basis: split     

SPLIT: Orbitals with angular momentum L= 0

SPLIT: Basis orbitals for state 3s

SPLIT: PAO cut-off radius determined from an
SPLIT: energy shift=  0.002000 Ry

   izeta = 1
                 lambda =    1.000000
                     rc =    6.429618
                 energy =   -0.792283
                kinetic =    0.525293
    potential(screened) =   -1.317576
       potential(ionic) =   -3.744923

   izeta = 2
                 rmatch =    3.998416
              splitnorm =    0.280000
                 energy =   -0.583081
                kinetic =    1.069570
    potential(screened) =   -1.652651
       potential(ionic) =   -4.235185

SPLIT: Orbitals with angular momentum L= 1

SPLIT: Basis orbitals for state 3p

SPLIT: PAO cut-off radius determined from an
SPLIT: energy shift=  0.002000 Ry

   izeta = 1
                 lambda =    1.000000
                     rc =    8.464845
                 energy =   -0.298236
                kinetic =    0.785360
    potential(screened) =   -1.083596
       potential(ionic) =   -3.273779

   izeta = 2
                 rmatch =    4.587816
              splitnorm =    0.280000
                 energy =   -0.131871
                kinetic =    1.403687
    potential(screened) =   -1.535557
       potential(ionic) =   -4.015310

POLgen: Perturbative polarization orbital with L=  2

POLgen: Polarization orbital for state 3p

   izeta = 1
                     rc =    8.464845
                 energy =    0.321949
                kinetic =    1.055677
    potential(screened) =   -0.733728
       potential(ionic) =   -2.672950
atom: Total number of Sankey-type orbitals: 13

atm_pop: Valence configuration (for local Pseudopot. screening):
 3s( 2.00)                                                            
 3p( 2.00)                                                            
Vna: chval, zval:    4.00000   4.00000

Vna:  Cut-off radius for the neutral-atom potential:   8.464845

atom: _________________________________________________________________________

<basis_specs>
===============================================================================
O                    Z=   8    Mass=  16.000        Charge= 0.17977+309
Lmxo=1 Lmxkb= 3    BasisType=split      Semic=F
L=0  Nsemic=0  Cnfigmx=2
          i=1  nzeta=2  polorb=0  (2s)
            splnorm:   0.28000    
               vcte:    0.0000    
               rinn:    0.0000    
               qcoe:    0.0000    
               qyuk:    0.0000    
               qwid:   0.10000E-01
                rcs:    0.0000      0.0000    
            lambdas:    1.0000      1.0000    
L=1  Nsemic=0  Cnfigmx=2
          i=1  nzeta=2  polorb=1  (2p)
            splnorm:   0.28000    
               vcte:    0.0000    
               rinn:    0.0000    
               qcoe:    0.0000    
               qyuk:    0.0000    
               qwid:   0.10000E-01
                rcs:    0.0000      0.0000    
            lambdas:    1.0000      1.0000    
-------------------------------------------------------------------------------
L=0  Nkbl=1  erefs: 0.17977+309
L=1  Nkbl=1  erefs: 0.17977+309
L=2  Nkbl=1  erefs: 0.17977+309
L=3  Nkbl=1  erefs: 0.17977+309
===============================================================================
</basis_specs>

atom: Called for O                     (Z =   8)

read_vps: Pseudopotential generation method:
read_vps: ATM4.2.7  Troullier-Martins                       
Valence charge for ps generation:    6.00000

xc_check: Exchange-correlation functional:
xc_check: GGA Perdew, Burke & Ernzerhof 1996
V l=0 = -2*Zval/r beyond r=  1.1000
V l=1 = -2*Zval/r beyond r=  1.1000
V l=2 = -2*Zval/r beyond r=  2.2154
V l=3 = -2*Zval/r beyond r=  1.1000
All V_l potentials equal beyond r=  2.2154
This should be close to max(r_c) in ps generation
All pots = -2*Zval/r beyond r=  2.2154

VLOCAL1: 99.0% of the norm of Vloc inside      8.845 Ry
VLOCAL1: 99.9% of the norm of Vloc inside     20.157 Ry
atom: Maximum radius for 4*pi*r*r*local-pseudopot. charge    2.67231
atom: Maximum radius for r*vlocal+2*Zval:    2.32897
GHOST: No ghost state for L =  0
GHOST: No ghost state for L =  1
GHOST: No ghost state for L =  2
GHOST: No ghost state for L =  3

KBgen: Kleinman-Bylander projectors: 
   l= 0   rc=  2.243238   el= -1.759686   Ekb=**********   kbcos= -0.171774
   l= 1   rc=  2.328968   el= -0.663873   Ekb=-14.506792   kbcos= -0.519897
   l= 2   rc=  2.573941   el=  0.002031   Ekb= -1.137373   kbcos= -0.019581
   l= 3   rc=  2.606321   el=  0.003153   Ekb= -1.013546   kbcos= -0.003122

KBgen: Total number of Kleinman-Bylander projectors:   16
atom: -------------------------------------------------------------------------

atom: SANKEY-TYPE ORBITALS:
atom: Selected multiple-zeta basis: split     

SPLIT: Orbitals with angular momentum L= 0

SPLIT: Basis orbitals for state 2s

SPLIT: PAO cut-off radius determined from an
SPLIT: energy shift=  0.002000 Ry

   izeta = 1
                 lambda =    1.000000
                     rc =    4.243912
                 energy =   -1.758270
                kinetic =    3.286084
    potential(screened) =   -5.044353
       potential(ionic) =  -12.921184

   izeta = 2
                 rmatch =    2.187845
              splitnorm =    0.280000
                 energy =   -0.885018
                kinetic =    8.134434
    potential(screened) =   -9.019452
       potential(ionic) =  -17.710645

SPLIT: Orbitals with angular momentum L= 1

SPLIT: Basis orbitals for state 2p

SPLIT: PAO cut-off radius determined from an
SPLIT: energy shift=  0.002000 Ry

   izeta = 1
                 lambda =    1.000000
                     rc =    5.314825
                 energy =   -0.661986
                kinetic =    4.917472
    potential(screened) =   -5.579458
       potential(ionic) =  -13.236259

   izeta = 2
                 rmatch =    2.160663
              splitnorm =    0.280000
                 energy =   -0.068760
                kinetic =    9.183374
    potential(screened) =   -9.252135
       potential(ionic) =  -18.274251

POLgen: Perturbative polarization orbital with L=  2

POLgen: Polarization orbital for state 2p

   izeta = 1
                     rc =    5.314825
                 energy =    1.970580
                kinetic =    3.886128
    potential(screened) =   -1.915547
       potential(ionic) =   -7.749584
atom: Total number of Sankey-type orbitals: 13

atm_pop: Valence configuration (for local Pseudopot. screening):
 2s( 2.00)                                                            
 2p( 4.00)                                                            
Vna: chval, zval:    6.00000   6.00000

Vna:  Cut-off radius for the neutral-atom potential:   5.314825

atom: _________________________________________________________________________

prinput: Basis input ----------------------------------------------------------

PAO.BasisType split     

%block ChemicalSpeciesLabel
    1    1 H                       # Species index, atomic number, species label
    2    7 N                       # Species index, atomic number, species label
    3   14 Si                      # Species index, atomic number, species label
    4    8 O                       # Species index, atomic number, species label
%endblock ChemicalSpeciesLabel

%block PAO.Basis                 # Define Basis set
H                     1                    # Species label, number of l-shells
 n=1   0   2 P   1                   # n, l, Nzeta, Polarization, NzetaPol
   6.518      2.141   
   1.000      1.000   
N                     2                    # Species label, number of l-shells
 n=2   0   2                         # n, l, Nzeta 
   4.730      2.532   
   1.000      1.000   
 n=2   1   2 P   1                   # n, l, Nzeta, Polarization, NzetaPol
   5.924      2.532   
   1.000      1.000   
Si                    2                    # Species label, number of l-shells
 n=3   0   2                         # n, l, Nzeta 
   6.430      3.998   
   1.000      1.000   
 n=3   1   2 P   1                   # n, l, Nzeta, Polarization, NzetaPol
   8.465      4.588   
   1.000      1.000   
O                     2                    # Species label, number of l-shells
 n=2   0   2                         # n, l, Nzeta 
   4.244      2.188   
   1.000      1.000   
 n=2   1   2 P   1                   # n, l, Nzeta, Polarization, NzetaPol
   5.315      2.161   
   1.000      1.000   
%endblock PAO.Basis

prinput: ----------------------------------------------------------------------

Dumping basis to NetCDF file H.ion.nc
Dumping basis to NetCDF file N.ion.nc
Dumping basis to NetCDF file Si.ion.nc
Dumping basis to NetCDF file O.ion.nc
coor:   Atomic-coordinates input format  =     Cartesian coordinates
coor:                                          (in Angstroms)

siesta: Atomic coordinates (Bohr) and species
siesta:      0.66387   8.71947   0.00000  1        1
siesta:     -0.67119   7.22651   0.00000  2        2
siesta:     -3.94096   8.06057   0.00000  3        3
siesta:     -4.23534  10.87625   0.00000  1        4
siesta:     -6.81962   5.11466   0.00000  3        5
siesta:     -9.62244   5.57354   0.00000  1        6
siesta:     -4.55499   1.49909   0.00000  3        7
siesta:     -6.00257  -1.39732   0.00000  2        8
siesta:     -4.88717  -3.20620   0.00000  1        9
siesta:     -7.98985  -1.54937   0.00000  1       10
siesta:     -1.31184   1.60336   0.00000  2       11
siesta:      0.71966   4.11733   0.00000  3       12
siesta:      3.75961   4.08179   0.00000  4       13
siesta:     10.61355 -14.07759   0.00000  1       14
siesta:      8.65886 -13.66658   0.00000  2       15
siesta:      6.22979 -16.04876   0.00000  3       16
siesta:      7.18318 -18.71532  -0.00000  1       17
siesta:      3.13570 -15.14356   0.00000  2       18
siesta:      3.17659 -11.72506  -0.00000  3       19
siesta:      1.03072  -8.10005   0.00000  3       20
siesta:     -1.95457  -7.45403   0.00000  4       21
siesta:      3.27352  -5.43711   0.00000  2       22
siesta:      2.28576  -3.64645  -0.00000  1       23
siesta:      6.63017  -5.24735   0.00000  3       24
siesta:      7.81751  -2.22872   0.00000  2       25
siesta:      6.69523  -0.49602   0.00000  1       26
siesta:      9.79567  -1.98858  -0.00000  1       27
siesta:      8.75489  -7.70105  -0.00000  2       28
siesta:      7.16982 -10.55666   0.00000  3       29

siesta: Automatic unit cell vectors (Ang):
siesta:   19.367849    0.000000    0.000000
siesta:    0.000000   24.813681    0.000000
siesta:    0.000000    0.000000    9.854683

siesta: System type = molecule  

initatomlists: Number of atoms, orbitals, and projectors:     29   297   394

siesta: ******************** Simulation parameters ****************************
siesta:
siesta: The following are some of the parameters of the simulation.
siesta: A complete list of the parameters used, including default values,
siesta: can be found in file out.fdf
siesta:
redata: Spin configuration                          = spin-orbit
redata: Number of spin components                   = 8
redata: Time-Reversal Symmetry                      = F
redata: Spin spiral                                 = F
############################################################
This spin-orbit implementation uses a local approximation.
From 4.2 and onwards the full non-local approximation is implemented
You are strongly advised to use >=4.2 versions!
############################################################
redata: Long output                                 =   F
redata: Number of Atomic Species                    =        4
redata: Charge density info will appear in .RHO file
redata: Write Mulliken Pop.                         = NO
redata: Matel table size (NRTAB)                    =     1024
redata: Mesh Cutoff                                 =   340.0000 Ry
redata: Net charge of the system                    =     0.0000 |e|
redata: Min. number of SCF Iter                     =        1
redata: Max. number of SCF Iter                     =      600
redata: SCF convergence failure will abort job
redata: SCF mix quantity                            = Hamiltonian
redata: Mix DM or H after convergence               =   F
redata: Recompute H after scf cycle                 =   F
redata: Mix DM in first SCF step                    =   T
redata: Write Pulay info on disk                    =   F
redata: New DM Occupancy tolerance                  = 0.000000000001
redata: No kicks to SCF
redata: DM Mixing Weight for Kicks                  =     0.5000
redata: Require Harris convergence for SCF          =   F
redata: Harris energy tolerance for SCF             =     0.000100 eV
redata: Require DM convergence for SCF              =   T
redata: DM tolerance for SCF                        =     0.000008
redata: Require EDM convergence for SCF             =   F
redata: EDM tolerance for SCF                       =     0.001000 eV
redata: Require H convergence for SCF               =   T
redata: Hamiltonian tolerance for SCF               =     0.000001 eV
redata: Require (free) Energy convergence for SCF   =   F
redata: (free) Energy tolerance for SCF             =     0.000100 eV
redata: Using Saved Data (generic)                  =   F
redata: Use continuation files for DM               =   T
redata: Neglect nonoverlap interactions             =   F
redata: Method of Calculation                       = Diagonalization
redata: Electronic Temperature                      =   299.9978 K
redata: Fix the spin of the system                  =   F
redata: Dynamics option                             = Single-point calculation
mix.SCF: Pulay mixing                            = Pulay
mix.SCF:    Variant                              = stable
mix.SCF:    History steps                        = 6
mix.SCF:    Linear mixing weight                 =     0.250000
mix.SCF:    Mixing weight                        =     0.250000
mix.SCF:    SVD condition                        = 0.1000E-07
mix.SCF:    Restart steps                        = 24
mix.SCF:    Restart save steps                   = 3
mix.SCF: Spin-component mixing                   all
redata: Save all siesta data in one NC              =   F
redata: ***********************************************************************

%block SCF.Mixers
  Pulay
%endblock SCF.Mixers

%block SCF.Mixer.Pulay
  # Mixing method
  method pulay
  variant stable

  # Mixing options
  weight 0.2500
  weight.linear 0.2500
  history 6
  restart 24
  restart.save 3
%endblock SCF.Mixer.Pulay

DM_history_depth set to one: no extrapolation allowed by default for geometry relaxation
Size of DM history Fstack: 1
Total number of electrons:    98.000000
Total ionic charge:    98.000000

* ProcessorY, Blocksize:    2  24


* Orbital distribution balance (max,min):    57    48


Time-reversal symmetry not used.

siesta: k-grid: Number of k-points =     1
siesta: k-grid: Cutoff (effective) =     4.927 Ang
siesta: k-grid: Supercell and displacements
siesta: k-grid:    1   0   0      0.000
siesta: k-grid:    0   1   0      0.000
siesta: k-grid:    0   0   1      0.000

diag: Algorithm                                     = ELPA-1stage
diag: Parallel over k                               =   F
diag: Use parallel 2D distribution                  =   T
diag: Parallel block-size                           = 24
diag: Parallel distribution                         =     2 x     3
diag: Used triangular part                          = Lower
diag: Absolute tolerance                            =  0.100E-15
diag: Orthogonalization factor                      =  0.100E-05
diag: Memory factor                                 =  1.0000


ts: **************************************************************
ts: Save H and S matrices                           =    F
ts: Save DM and EDM matrices                        =    F
ts: Only save the overlap matrix S                  =    F
ts: **************************************************************

************************ Begin: TS CHECKS AND WARNINGS ************************
************************ End: TS CHECKS AND WARNINGS **************************


                     ====================================
                        Single-point calculation
                     ====================================

outcoor: Atomic coordinates (Ang):                          
    0.35130723    4.61414099    0.00000000   1       1  H
   -0.35517950    3.82410481    0.00000000   2       2  N
   -2.08546641    4.26546872    0.00000000   3       3  Si
   -2.24124609    5.75546098    0.00000000   1       4  H
   -3.60878803    2.70656120    0.00000000   3       5  Si
   -5.09197566    2.94939156    0.00000000   1       6  H
   -2.41039717    0.79328504    0.00000000   3       7  Si
   -3.17642263   -0.73943170    0.00000000   2       8  N
   -2.58617608   -1.69664473    0.00000000   1       9  H
   -4.22804495   -0.81989193    0.00000000   1      10  H
   -0.69419711    0.84845935    0.00000000   2      11  N
    0.38082551    2.17879819    0.00000000   3      12  Si
    1.98949883    2.15998793    0.00000000   4      13  O
    5.61644830   -7.44953905    0.00000000   1      14  H
    4.58206954   -7.23203760    0.00000000   2      15  N
    3.29666389   -8.49263600    0.00000000   3      16  Si
    3.80117524   -9.90371886    0.00000000   1      17  H
    1.65934232   -8.01362137    0.00000000   2      18  N
    1.68097912   -6.20463398    0.00000000   3      19  Si
    0.54543521   -4.28636135    0.00000000   3      20  Si
   -1.03431493   -3.94450034    0.00000000   4      21  O
    1.73226934   -2.87719605    0.00000000   2      22  N
    1.20957366   -1.92961761    0.00000000   1      23  H
    3.50853448   -2.77677601    0.00000000   3      24  Si
    4.13684451   -1.17938608    0.00000000   2      25  N
    3.54296161   -0.26248101    0.00000000   1      26  H
    5.18364407   -1.05231197    0.00000000   1      27  H
    4.63288658   -4.07521596    0.00000000   2      28  N
    3.79410501   -5.58634043    0.00000000   3      29  Si

outcell: Unit cell vectors (Ang):
       19.367849    0.000000    0.000000
        0.000000   24.813681    0.000000
        0.000000    0.000000    9.854683

outcell: Cell vector modules (Ang)   :   19.367849   24.813681    9.854683
outcell: Cell angles (23,13,12) (deg):     90.0000     90.0000     90.0000
outcell: Cell volume (Ang**3)        :   4736.0388
<dSpData1D:S at geom step 0
  <sparsity:sparsity for geom step 0
    nrows_g=297 nrows=57 sparsity=.1177 nnzs=10386, refcount: 8>
  <dData1D:(new from dSpData1D) n=10386, refcount: 1>
refcount: 1>
new_DM -- step:     1
Initializing Density Matrix...

Attempting to read DM from file... Failed...
DM filled with atomic data:
<dSpData2D:DM initialized from atoms
  <sparsity:sparsity for geom step 0
    nrows_g=297 nrows=57 sparsity=.1177 nnzs=10386, refcount: 9>
  <dData2D:DM n=10386 m=8, refcount: 1>
refcount: 1>
     spin moment: S , {S} =   56.00000   0.00000   0.00000  56.00000
No. of atoms with KB's overlaping orbs in proc 0. Max # of overlaps:      28     172

Initializing spin-orbit part of the Hamiltonian
  Adding spin-orbit effects for H 
  Adding spin-orbit effects for N 
  Adding spin-orbit effects for Si
  Adding spin-orbit effects for O 


New grid distribution:   1
           1       1:  108    1:   72    1:   20
           2       1:  108    1:   72   21:   40
           3       1:  108    1:   72   41:   60
           4       1:  108   73:  144    1:   20
           5       1:  108   73:  144   21:   40
           6       1:  108   73:  144   41:   60

InitMesh: MESH =   216 x   288 x   120 =     7464960
InitMesh: (bp) =   108 x   144 x    60 =      933120
InitMesh: Mesh cutoff (required, used) =   340.000   343.753 Ry
ExtMesh (bp) on 0 =   208 x   176 x   132 =     4832256
New grid distribution:   2
           1      20:  108   20:  105    1:   60
           2      20:  108    1:   19    1:   60
           3       1:   15  106:  144    1:   60
           4      16:  108  106:  125    1:   60
           5       1:   19    1:  105    1:   60
           6      16:  108  126:  144    1:   60
New grid distribution:   3
           1      23:  108   23:   91    1:   60
           2       1:   22    1:   91    1:   60
           3      23:  108    1:   22    1:   60
           4       1:   21   92:  144    1:   60
           5      22:  108   92:  122    1:   60
           6      22:  108  123:  144    1:   60
Setting up quadratic distribution...
ExtMesh (bp) on 0 =   189 x   190 x   172 =     6176520
PhiOnMesh: Number of (b)points on node 0 =               459240
PhiOnMesh: nlist on node 0 =              2111005

stepf: Fermi-Dirac step function

siesta: Program's energy decomposition (eV):
siesta: Ebs     =      -618.177888
siesta: Eions   =      3585.165840
siesta: Ena     =       381.799956
siesta: Ekin    =      3364.816164
siesta: Enl     =     -3293.660550
siesta: Eso     =        -0.003420
siesta: Edftu   =         0.000000
siesta: DEna    =       153.101887
siesta: DUscf   =        79.948107
siesta: DUext   =         0.000000
siesta: Exc     =     -1203.102897
siesta: eta*DQ  =         0.000000
siesta: Emadel  =         0.000000
siesta: Emeta   =         0.000000
siesta: Emolmec =         0.000000
siesta: Ekinion =         0.000000
siesta: Eharris =     -4025.918364
siesta: Etot    =     -4102.266592
siesta: FreeEng =     -4102.267613

        iscf     Eharris(eV)        E_KS(eV)     FreeEng(eV)     dDmax    Ef(eV) dHmax(eV)
   scf:    1    -4025.918364    -4102.266592    -4102.267613  0.963663 -4.904130 21.435016
     spin moment: S , {S} =    2.00574   0.00000  -0.00000   2.00574
timer: Routine,Calls,Time,% = IterSCF        1       5.869  23.33
   scf:    2    -4148.792908    -4137.279070    -4137.281051  0.457240 -4.203549 11.253363
     spin moment: S , {S} =    1.98897  -0.00000  -0.00000   1.98897
   scf:    3    -4110.547599    -4134.779428    -4134.786944  0.427356 -4.306327 11.435372
     spin moment: S , {S} =    2.00050  -0.00000   0.00000   2.00050
   scf:    4    -4150.214597    -4145.633218    -4145.633219  0.326852 -3.899411  6.208603
     spin moment: S , {S} =    0.00009  -0.00000  -0.00000   0.00009
   scf:    5    -4146.781555    -4146.300315    -4146.300315  0.034668 -3.705445  4.308379
     spin moment: S , {S} =    0.00006  -0.00000  -0.00000   0.00006
   scf:    6    -4147.061932    -4146.687563    -4146.687563  0.024700 -3.674377  2.111974
     spin moment: S , {S} =    0.00003  -0.00000   0.00000   0.00003
   scf:    7    -4147.036998    -4146.859135    -4146.859135  0.021534 -3.668101  0.882306
     spin moment: S , {S} =    0.00001  -0.00000  -0.00000   0.00001
   scf:    8    -4146.978476    -4146.916926    -4146.916926  0.012476 -3.797616  0.482422
     spin moment: S , {S} =    0.00000  -0.00000   0.00000   0.00000
   scf:    9    -4146.955756    -4146.935683    -4146.935683  0.006681 -3.749098  0.346682
     spin moment: S , {S} =    0.00000   0.00000   0.00000   0.00000
   scf:   10    -4146.986363    -4146.956052    -4146.956052  0.019618 -3.788643  0.184858
     spin moment: S , {S} =    0.00000   0.00000  -0.00000  -0.00000
   scf:   11    -4146.959069    -4146.957510    -4146.957510  0.005195 -3.780125  0.054045
     spin moment: S , {S} =    0.00000   0.00000  -0.00000  -0.00000
   scf:   12    -4146.958304    -4146.957918    -4146.957918  0.001325 -3.775652  0.025008
     spin moment: S , {S} =    0.00000  -0.00000  -0.00000   0.00000
   scf:   13    -4146.958302    -4146.958104    -4146.958104  0.001447 -3.774071  0.018616
     spin moment: S , {S} =    0.00000  -0.00000  -0.00000   0.00000
   scf:   14    -4146.958364    -4146.958225    -4146.958225  0.001481 -3.773052  0.014356
     spin moment: S , {S} =    0.00000   0.00000  -0.00000   0.00000
   scf:   15    -4146.958388    -4146.958299    -4146.958299  0.001403 -3.772556  0.010114
     spin moment: S , {S} =    0.00000  -0.00000  -0.00000   0.00000
   scf:   16    -4146.958411    -4146.958345    -4146.958345  0.001499 -3.773128  0.005611
     spin moment: S , {S} =    0.00000  -0.00000  -0.00000   0.00000
   scf:   17    -4146.958374    -4146.958357    -4146.958357  0.000768 -3.773066  0.003365
     spin moment: S , {S} =    0.00000  -0.00000  -0.00000   0.00000
   scf:   18    -4146.958366    -4146.958361    -4146.958361  0.000436 -3.773142  0.001539
     spin moment: S , {S} =    0.00000  -0.00000  -0.00000   0.00000
   scf:   19    -4146.958363    -4146.958362    -4146.958362  0.000209 -3.773165  0.000787
     spin moment: S , {S} =    0.00000  -0.00000  -0.00000   0.00000
   scf:   20    -4146.958362    -4146.958362    -4146.958362  0.000074 -3.773165  0.000469
     spin moment: S , {S} =    0.00000  -0.00000  -0.00000   0.00000
   scf:   21    -4146.958362    -4146.958362    -4146.958362  0.000075 -3.773163  0.000223
     spin moment: S , {S} =    0.00000  -0.00000  -0.00000   0.00000
   scf:   22    -4146.958362    -4146.958362    -4146.958362  0.000019 -3.773152  0.000082
     spin moment: S , {S} =    0.00000  -0.00000  -0.00000   0.00000
   scf:   23    -4146.958362    -4146.958362    -4146.958362  0.000005 -3.773154  0.000056
     spin moment: S , {S} =    0.00000  -0.00000  -0.00000  -0.00000
   scf:   24    -4146.958362    -4146.958362    -4146.958362  0.000002 -3.773154  0.000056
     spin moment: S , {S} =    0.00000  -0.00000  -0.00000  -0.00000
mix: Pulay -- resetting history
   scf:   25    -4146.958362    -4146.958362    -4146.958362  0.000005 -3.773155  0.000034
     spin moment: S , {S} =    0.00000  -0.00000  -0.00000  -0.00000
   scf:   26    -4146.958362    -4146.958362    -4146.958362  0.000004 -3.773154  0.000019
     spin moment: S , {S} =    0.00000  -0.00000  -0.00000  -0.00000
   scf:   27    -4146.958362    -4146.958362    -4146.958362  0.000004 -3.773152  0.000006
     spin moment: S , {S} =    0.00000  -0.00000  -0.00000  -0.00000
   scf:   28    -4146.958362    -4146.958362    -4146.958362  0.000000 -3.773152  0.000003
     spin moment: S , {S} =    0.00000  -0.00000  -0.00000  -0.00000
   scf:   29    -4146.958362    -4146.958362    -4146.958362  0.000000 -3.773151  0.000002
     spin moment: S , {S} =    0.00000  -0.00000  -0.00000  -0.00000
   scf:   30    -4146.958362    -4146.958362    -4146.958362  0.000000 -3.773151  0.000001
     spin moment: S , {S} =    0.00000  -0.00000  -0.00000   0.00000
   scf:   31    -4146.958362    -4146.958362    -4146.958362  0.000000 -3.773151  0.000001
     spin moment: S , {S} =    0.00000  -0.00000  -0.00000   0.00000

SCF Convergence by DM+H criterion
max |DM_out - DM_in|         :     0.0000001478
max |H_out - H_in|      (eV) :     0.0000006200
SCF cycle converged after 31 iterations

Using DM_out to compute the final energy and forces
No. of atoms with KB's overlaping orbs in proc 0. Max # of overlaps:      28     172

siesta: E_KS(eV) =            -4146.9584

siesta: E_KS - E_eggbox =     -4146.9584
     spin moment: S , {S} =    0.00000  -0.00000  -0.00000   0.00000

siesta: Atomic forces (eV/Ang):
     1    0.049051    0.001887    0.000000
     2   -0.351218    0.205664   -0.000000
     3    0.309063   -0.024630   -0.000000
     4   -0.077104    0.229351    0.000000
     5   -0.158412   -0.163132    0.000000
     6   -0.035918   -0.006461    0.000000
     7    0.925148    0.728975    0.000000
     8    0.826186   -2.062262   -0.000000
     9   -1.122937    1.438997    0.000000
    10    0.156893   -0.261686    0.000000
    11   -0.682088   -0.248201   -0.000000
    12    0.852457   -0.201956    0.000000
    13   -3.330183   -1.330336    0.000000
    14    0.032434    0.015428   -0.000000
    15    0.126078    0.051851    0.000000
    16    0.018481   -0.008380    0.000000
    17   -0.088256    0.023704   -0.000000
    18   -0.005316    0.027565    0.000000
    19    0.196143    0.023148   -0.000000
    20   -1.041627   -0.082764   -0.000000
    21   -0.581838   -3.396784    0.000000
    22    0.220109    0.599448   -0.000000
    23    0.206868   -0.476330   -0.000000
    24   -0.271157   -0.654212    0.000000
    25   -0.490127    1.368135    0.000000
    26    0.667200   -0.935582   -0.000000
    27   -0.050916    0.185345    0.000000
    28    0.023014    0.523520    0.000000
    29   -0.225249   -0.293250   -0.000000
----------------------------------------
   Tot   -3.903219   -4.722949   -0.000000
----------------------------------------
   Max    3.396784
   Res    0.697898    sqrt( Sum f_i^2 / 3N )
----------------------------------------
   Max    3.396784    constrained

Stress tensor Voigt[x,y,z,yz,xz,xy] (kbar):        1.58        0.94       -0.10        0.00       -0.00       -1.46
(Free)E + p*V (eV/cell)    -4149.3439
Target enthalpy (eV/cell)    -4146.9584

siesta: Eigenvalues (eV):
ik =     1
  -22.0723  -22.0723  -21.7426  -21.7426  -21.5114  -21.5114  -21.3759  -21.3759  -21.2141  -21.2141
  -21.1800  -21.1800  -20.6936  -20.6936  -19.7221  -19.7221  -19.4645  -19.4645  -19.3544  -19.3544
  -14.7805  -14.7805  -13.8401  -13.8401  -13.3093  -13.3093  -13.0669  -13.0669  -12.9983  -12.9983
  -12.8404  -12.8404  -12.6616  -12.6616  -12.2892  -12.2892  -12.2591  -12.2591  -12.0229  -12.0229
  -11.2775  -11.2775  -10.8296  -10.8296  -10.7113  -10.7113  -10.6398  -10.6398  -10.1353  -10.1353
   -9.6046   -9.6046   -9.1925   -9.1925   -8.8399   -8.8399   -8.7353   -8.7353   -8.6698   -8.6698
   -8.5266   -8.5266   -8.4790   -8.4790   -8.1188   -8.1188   -7.8870   -7.8870   -7.7633   -7.7633
   -7.6459   -7.6459   -7.3459   -7.3459   -7.2066   -7.2066   -6.8532   -6.8532   -6.7496   -6.7496
   -6.6168   -6.6168   -6.4829   -6.4829   -6.2260   -6.2260   -6.1679   -6.1679   -6.1253   -6.1253
   -6.0663   -6.0663   -5.7526   -5.7526   -5.5347   -5.5347   -4.2979   -4.2979   -3.2483   -3.2483
   -2.3214   -2.3214   -2.3173   -2.3173   -2.2530   -2.2530   -1.8863   -1.8863   -1.8345   -1.8345
   -1.8291   -1.8291   -1.8097   -1.8097   -1.6137   -1.6137   -1.4369   -1.4369   -1.0834   -1.0834
   -0.9284   -0.9284   -0.7342   -0.7342   -0.3758   -0.3758   -0.2735   -0.2735    0.1685    0.1685
    0.4336    0.4336    0.5198    0.5198    0.6080    0.6080    0.7989    0.7989    0.9772    0.9772
    1.1463    1.1463    1.2730    1.2730    1.3772    1.3772    1.4100    1.4100    1.5609    1.5609
    1.7913    1.7913    1.9134    1.9134    2.1828    2.1828    2.4040    2.4040    2.7410    2.7410
    2.7439    2.7439    2.8153    2.8153    2.9082    2.9082    3.2900    3.2900    3.4218    3.4218
    3.5728    3.5728    3.8367    3.8367    3.9387    3.9387    4.0751    4.0751    4.3346    4.3346
    4.4767    4.4767    4.5589    4.5589    4.5876    4.5876    4.6529    4.6529    4.7747    4.7747
    4.9465    4.9465    5.0485    5.0485    5.2689    5.2689    5.5446    5.5446    5.6381    5.6381
    5.8301    5.8301    5.9079    5.9079    5.9781    5.9781    6.1496    6.1496    6.2277    6.2277
    6.3941    6.3941    6.4743    6.4743    6.5646    6.5646    6.7150    6.7150    6.9146    6.9146
    7.0161    7.0161    7.2040    7.2040    7.4981    7.4981    7.6509    7.6509    7.8408    7.8408
    7.9523    7.9523    8.0292    8.0292    8.0639    8.0639    8.3284    8.3284    8.5900    8.5900
    8.6414    8.6414    8.7945    8.7945    8.9087    8.9087    8.9442    8.9442    9.2298    9.2298
    9.2766    9.2766    9.4970    9.4970    9.8276    9.8276    9.8719    9.8719   10.0042   10.0042
   10.1740   10.1740   10.2387   10.2387   10.4998   10.4998   10.8998   10.8998   11.0495   11.0495
   11.0688   11.0688   11.2201   11.2201   11.4761   11.4761   11.8068   11.8068   11.8489   11.8489
   11.9714   11.9714   12.0588   12.0588   12.4613   12.4613   12.4918   12.4918   12.7306   12.7306
   12.7776   12.7776   12.8460   12.8460   13.4132   13.4132   13.4743   13.4743   13.7702   13.7702
   13.8317   13.8317   14.1396   14.1396   14.4201   14.4201   14.7722   14.7722   14.7852   14.7852
   15.1480   15.1480   15.3507   15.3507   16.0389   16.0389   16.5876   16.5876   16.6953   16.6953
   16.9553   16.9553   17.4522   17.4522   17.5091   17.5091   18.4578   18.4578   18.5934   18.5934
   18.8858   18.8858   19.1902   19.1902   19.7592   19.7592   19.9714   19.9714   20.2622   20.2622
   21.1083   21.1083   21.5036   21.5036   22.0592   22.0592   22.1586   22.1586   22.5999   22.5999
   22.9375   22.9375   23.6102   23.6102   23.8022   23.8022   23.9349   23.9349   24.1943   24.1943
   25.0642   25.0642   25.4170   25.4170   26.2033   26.2033   26.9330   26.9330   27.6971   27.6971
   28.7483   28.7483   29.0432   29.0432   29.0932   29.0932   29.6134   29.6134   29.9836   29.9836
   30.1469   30.1469   30.2731   30.2731   30.6982   30.6982   30.9212   30.9212   31.0986   31.0986
   31.1444   31.1444   31.4776   31.4776   31.7380   31.7380   32.3334   32.3334   32.7093   32.7093
   33.8312   33.8312   34.1462   34.1462   34.2835   34.2835   34.4651   34.4651   34.5960   34.5960
   35.2698   35.2698   35.4427   35.4427   35.5802   35.5802   35.6138   35.6138   36.3167   36.3167
   36.9962   36.9962   37.7466   37.7466   37.8906   37.8906   37.8994   37.8994   38.4406   38.4406
   38.6628   38.6628   39.2228   39.2228   39.6491   39.6491   39.9661   39.9661   40.5016   40.5016
   40.5239   40.5239   40.5497   40.5497   40.7801   40.7801   41.0377   41.0377   41.3492   41.3492
   42.5688   42.5688   42.9092   42.9092   42.9663   42.9663   43.2892   43.2892   43.6259   43.6259
   43.8413   43.8413   44.4008   44.4008   44.5198   44.5198   44.6908   44.6908   44.8947   44.8947
   45.2378   45.2378   45.4612   45.4612   46.1105   46.1105   46.4995   46.4995   46.7274   46.7274
   47.4417   47.4417   47.6248   47.6248   47.7954   47.7954   49.0249   49.0249   49.6900   49.6900
   50.1249   50.1249   50.3331   50.3331   50.6203   50.6203   50.9997   50.9997   51.3185   51.3185
   51.3623   51.3623   52.3235   52.3235   53.2703   53.2703   54.3770   54.3770   54.5900   54.5900
   54.7851   54.7851   55.0499   55.0499   55.6636   55.6636   55.8136   55.8136   56.5922   56.5922
   56.7280   56.7280   57.0165   57.0165   57.3638   57.3638   58.8314   58.8314   59.9907   59.9907
   60.2965   60.2965   60.6934   60.6934   60.9040   60.9040   61.3120   61.3120   62.0758   62.0758
   62.7143   62.7143   62.7168   62.7168   63.5211   63.5211   64.8993   64.8993   66.7433   66.7433
   67.0181   67.0181   67.5130   67.5130   68.2241   68.2241   69.6507   69.6507   70.9241   70.9241
   74.1295   74.1295   83.2081   83.2081   91.5771   91.5771   92.1875   92.1875   93.4919   93.4919
   98.5773   98.5773   99.2335   99.2335  101.0348  101.0348  103.4326  103.4326  104.5138  104.5138
  111.1471  111.1471  113.4323  113.4323  124.2703  124.2703  126.6015  126.6015  130.8178  130.8178
  136.3471  136.3471  139.1905  139.1905
siesta: Fermi energy =      -3.773151 eV

siesta: Program's energy decomposition (eV):
siesta: Ebs     =     -1133.762400
siesta: Eions   =      3585.165840
siesta: Ena     =       381.799956
siesta: Ekin    =      2902.730881
siesta: Enl     =     -2787.868838
siesta: Eso     =        -0.004277
siesta: Edftu   =         0.000000
siesta: DEna    =        47.172108
siesta: DUscf   =        14.105998
siesta: DUext   =         0.000000
siesta: Exc     =     -1119.728350
siesta: eta*DQ  =         0.000000
siesta: Emadel  =         0.000000
siesta: Emeta   =         0.000000
siesta: Emolmec =         0.000000
siesta: Ekinion =         0.000000
siesta: Eharris =     -4146.958362
siesta: Etot    =     -4146.958362
siesta: FreeEng =     -4146.958362

siesta: Final energy (eV):
siesta:  Band Struct. =   -1133.762400
siesta:       Kinetic =    2902.730881
siesta:       Hartree =    8499.734623
siesta:       Edftu   =       0.000000
siesta:       Eso     =      -0.004277
siesta:    Ext. field =       0.000000
siesta:   Exch.-corr. =   -1119.728350
siesta:  Ion-electron =  -19582.429487
siesta:       Ion-ion =    5152.738249
siesta:       Ekinion =       0.000000
siesta:         Total =   -4146.958362
siesta:         Fermi =      -3.773151

siesta: Atomic forces (eV/Ang):
siesta:      1    0.049051    0.001887    0.000000
siesta:      2   -0.351218    0.205664   -0.000000
siesta:      3    0.309063   -0.024630   -0.000000
siesta:      4   -0.077104    0.229351    0.000000
siesta:      5   -0.158412   -0.163132    0.000000
siesta:      6   -0.035918   -0.006461    0.000000
siesta:      7    0.925148    0.728975    0.000000
siesta:      8    0.826186   -2.062262   -0.000000
siesta:      9   -1.122937    1.438997    0.000000
siesta:     10    0.156893   -0.261686    0.000000
siesta:     11   -0.682088   -0.248201   -0.000000
siesta:     12    0.852457   -0.201956    0.000000
siesta:     13   -3.330183   -1.330336    0.000000
siesta:     14    0.032434    0.015428   -0.000000
siesta:     15    0.126078    0.051851    0.000000
siesta:     16    0.018481   -0.008380    0.000000
siesta:     17   -0.088256    0.023704   -0.000000
siesta:     18   -0.005316    0.027565    0.000000
siesta:     19    0.196143    0.023148   -0.000000
siesta:     20   -1.041627   -0.082764   -0.000000
siesta:     21   -0.581838   -3.396784    0.000000
siesta:     22    0.220109    0.599448   -0.000000
siesta:     23    0.206868   -0.476330   -0.000000
siesta:     24   -0.271157   -0.654212    0.000000
siesta:     25   -0.490127    1.368135    0.000000
siesta:     26    0.667200   -0.935582   -0.000000
siesta:     27   -0.050916    0.185345    0.000000
siesta:     28    0.023014    0.523520    0.000000
siesta:     29   -0.225249   -0.293250   -0.000000
siesta: ----------------------------------------
siesta:    Tot   -3.903219   -4.722949   -0.000000

siesta: Stress tensor (static) (eV/Ang**3):
siesta:     0.000987   -0.000914   -0.000000
siesta:    -0.000914    0.000586    0.000000
siesta:    -0.000000    0.000000   -0.000061

siesta: Cell volume =       4736.038816 Ang**3

siesta: Pressure (static):
siesta:                Solid            Molecule  Units
siesta:          -0.00000549         -0.00000302  Ry/Bohr**3
siesta:          -0.00050369         -0.00027702  eV/Ang**3
siesta:          -0.80701309         -0.44384555  kBar
(Free)E+ p_basis*V_orbitals  =       -4127.107945
(Free)Eharris+ p_basis*V_orbitals  =       -4127.107945
     spin moment: S , {S} =    0.00000  -0.00000  -0.00000   0.00000

siesta: Electric dipole (a.u.)  =   -0.046557    1.599918    0.000000
siesta: Electric dipole (Debye) =   -0.118337    4.066588    0.000000

cite: Please see "GC.bib" for an exhaustive BiBTeX file.
cite: Please clearly indicate Siesta version in published work: v4.1.5-1-g384057250
cite: This calculation has made use of the following articles
cite: which are encouraged to be cited in a published work.
        Primary SIESTA paper
          DOI: www.doi.org/10.1088/0953-8984/14/11/302
        Spin-orbit coupling (on-site approximation)
          DOI: www.doi.org/10.1088/0953-8984/19/19/489001


WARNING: alloc-realloc-dealloc name mismatch
         Name: atomlist isa
         Size:              -116. Bytes
         Node:     0
         Subsequent mismatches will not be reported
>> End of run:  16-OCT-2023  18:34:42
Job completed
