Siesta Version  : v4.1.5-1-g384057250
Architecture    : gcc
Compiler version: GNU Fortran (Ubuntu 11.3.0-1ubuntu1~22.04) 11.3.0
Compiler flags  : mpifort -O2 -fPIC -ftree-vectorize -fallow-argument-mismatch
PP flags        : -DFC_HAVE_ABORT -DMPI -DSIESTA__FLOOK -DSIESTA__METIS -DSIESTA__MUMPS -DCDF -DNCDF -DNCDF_4 -DNCDF_PARALLEL -DSIESTA__MRRR -DSIESTA__ELPA
Libraries       : libncdf.a libfdict.a  -lflookall -ldl -lnetcdff -lnetcdf -lhdf5_hl -lhdf5 -lhdf5_fortran -lz -lscalapack-openmpi -lopenblas -lmetis -lzmumps -lcmumps -ldmumps -lmumps_common -lpord -lsmumps -lesmumps -lscotch -lscotcherr -fopenmp -lelpa
PARALLEL version
NetCDF support
NetCDF-4 support
NetCDF-4 MPI-IO support
METIS ordering support
Lua support

* Running on 4 nodes in parallel
>> Start of run:  28-JUN-2023  15:19:35

                           ***********************       
                           *  WELCOME TO SIESTA  *       
                           ***********************       

reinit: Reading from standard input
reinit: Dumped input in INPUT_TMP.16256
************************** Dump of input data file ****************************
SystemLabel      GC
NumberOfAtoms    29
NumberOfSpecies  4
%block ChemicalSpeciesLabel
    1    8  O
    2    7  N
    3   14  Si
    4    1  H
%endblock ChemicalSpeciesLabel
# Single point calculation
MD.TypeOfRun                CG
MD.Steps                    0
SCF.MustConverge            F # In case it does not. There can be 2 very close atoms
AtomicCoordinatesFormat NotScaledCartesianAng
%block AtomicCoordinatesAndAtomicSpecies
1.043624880    3.939228610    0.000000000       1
-3.040641290   1.071078170    0.000000000       2
2.054601450    1.213582070    0.000000000       2
0.999014100    -1.732643800   0.000000000       2
-2.132351640   -1.812968220   0.000000000       2
3.860190550    -1.112298180   0.000000000       2
-1.236183220   1.152964460    0.000000000       3
-0.532924260   -0.939006270   0.000000000       3
0.635660470    2.374516770    0.000000000       3
2.245170240    -0.549967100   0.000000000       3
-3.449816660   -0.583665030   0.000000000       3
2.963714090    1.790992630    0.000000000       4
-4.845591350   -1.123549660   0.000000000       4
4.007020910    -2.152308560   0.000000000       4
4.772194380    -0.502318160   0.000000000       4
-2.265399090   -2.864605110   0.000000000       4
5.850382444    5.522591014    0.000000000       3
7.755266414    6.729229954    0.000000000       3
7.259512274    2.756256044    0.000000000       3
9.336982564    5.225473204    0.000000000       3
5.910005114    3.805163444    0.000000000       2
4.311247384    6.276268324    0.000000000       2
8.911807534    3.486093264    0.000000000       2
7.946611214    8.221383704    0.000000000       4
10.821350544   5.444204024    0.000000000       4
4.199902104    7.325463434    0.000000000       4
3.378689674    5.651354144    0.000000000       4
7.249285444    1.148144924    0.000000000       1
9.687233414    2.759401704    0.000000000       4
%endblock AtomicCoordinatesAndAtomicSpecies
%include ../../../Defaults.fdf
************************** End of input data file *****************************

reinit: -----------------------------------------------------------------------
reinit: System Name: 
reinit: -----------------------------------------------------------------------
reinit: System Label: GC
reinit: -----------------------------------------------------------------------

initatom: Reading input for the pseudopotentials and atomic orbitals ----------
Species number:   1 Atomic number:    8 Label: O
Species number:   2 Atomic number:    7 Label: N
Species number:   3 Atomic number:   14 Label: Si
Species number:   4 Atomic number:    1 Label: H

Ground state valence configuration:   2s02  2p04
Reading pseudopotential information in formatted form from O.psf

Pseudopotential generated from a relativistic atomic calculation

Valence configuration for pseudopotential generation:
2s( 2.00) rc: 0.45
2p( 4.00) rc: 0.92
3d( 0.00) rc: 2.24
4f( 0.00) rc: 0.25
Ground state valence configuration:   2s02  2p03
Reading pseudopotential information in formatted form from N.psf

Pseudopotential generated from a relativistic atomic calculation

Valence configuration for pseudopotential generation:
2s( 2.00) rc: 0.94
2p( 3.00) rc: 0.59
3d( 0.00) rc: 3.46
4f( 0.00) rc: 2.47
Ground state valence configuration:   3s02  3p02
Reading pseudopotential information in formatted form from Si.psf

Pseudopotential generated from a relativistic atomic calculation

Valence configuration for pseudopotential generation:
3s( 2.00) rc: 1.67
3p( 2.00) rc: 2.04
3d( 0.00) rc: 2.89
4f( 0.00) rc: 2.49
Ground state valence configuration:   1s01
Reading pseudopotential information in formatted form from H.psf

Pseudopotential generated from a relativistic atomic calculation

Valence configuration for pseudopotential generation:
1s( 1.00) rc: 0.01
2p( 0.00) rc: 0.60
3d( 0.00) rc: 1.99
4f( 0.00) rc: 2.49
For O, standard SIESTA heuristics set lmxkb to 3
 (one more than the basis l, including polarization orbitals).
Use PS.lmax or PS.KBprojectors blocks to override.
For N, standard SIESTA heuristics set lmxkb to 3
 (one more than the basis l, including polarization orbitals).
Use PS.lmax or PS.KBprojectors blocks to override.
For Si, standard SIESTA heuristics set lmxkb to 3
 (one more than the basis l, including polarization orbitals).
Use PS.lmax or PS.KBprojectors blocks to override.
For H, standard SIESTA heuristics set lmxkb to 2
 (one more than the basis l, including polarization orbitals).
Use PS.lmax or PS.KBprojectors blocks to override.

<basis_specs>
===============================================================================
O                    Z=   8    Mass=  16.000        Charge= 0.17977+309
Lmxo=1 Lmxkb= 3    BasisType=split      Semic=F
L=0  Nsemic=0  Cnfigmx=2
          i=1  nzeta=2  polorb=0  (2s)
            splnorm:   0.28000    
               vcte:    0.0000    
               rinn:    0.0000    
               qcoe:    0.0000    
               qyuk:    0.0000    
               qwid:   0.10000E-01
                rcs:    0.0000      0.0000    
            lambdas:    1.0000      1.0000    
L=1  Nsemic=0  Cnfigmx=2
          i=1  nzeta=2  polorb=1  (2p)
            splnorm:   0.28000    
               vcte:    0.0000    
               rinn:    0.0000    
               qcoe:    0.0000    
               qyuk:    0.0000    
               qwid:   0.10000E-01
                rcs:    0.0000      0.0000    
            lambdas:    1.0000      1.0000    
-------------------------------------------------------------------------------
L=0  Nkbl=1  erefs: 0.17977+309
L=1  Nkbl=1  erefs: 0.17977+309
L=2  Nkbl=1  erefs: 0.17977+309
L=3  Nkbl=1  erefs: 0.17977+309
===============================================================================
</basis_specs>

atom: Called for O                     (Z =   8)

read_vps: Pseudopotential generation method:
read_vps: ATM4.2.7  Troullier-Martins                       
Valence charge for ps generation:    6.00000

xc_check: Exchange-correlation functional:
xc_check: GGA Perdew, Burke & Ernzerhof 1996
V l=0 = -2*Zval/r beyond r=  1.1000
V l=1 = -2*Zval/r beyond r=  1.1000
V l=2 = -2*Zval/r beyond r=  2.2154
V l=3 = -2*Zval/r beyond r=  1.1000
All V_l potentials equal beyond r=  2.2154
This should be close to max(r_c) in ps generation
All pots = -2*Zval/r beyond r=  2.2154

VLOCAL1: 99.0% of the norm of Vloc inside      8.845 Ry
VLOCAL1: 99.9% of the norm of Vloc inside     20.157 Ry
atom: Maximum radius for 4*pi*r*r*local-pseudopot. charge    2.67231
atom: Maximum radius for r*vlocal+2*Zval:    2.32897
GHOST: No ghost state for L =  0
GHOST: No ghost state for L =  1
GHOST: No ghost state for L =  2
GHOST: No ghost state for L =  3

KBgen: Kleinman-Bylander projectors: 
   l= 0   rc=  2.243238   el= -1.759686   Ekb=**********   kbcos= -0.171774
   l= 1   rc=  2.328968   el= -0.663873   Ekb=-14.506792   kbcos= -0.519897
   l= 2   rc=  2.573941   el=  0.002031   Ekb= -1.137373   kbcos= -0.019581
   l= 3   rc=  2.606321   el=  0.003153   Ekb= -1.013546   kbcos= -0.003122

KBgen: Total number of Kleinman-Bylander projectors:   16
atom: -------------------------------------------------------------------------

atom: SANKEY-TYPE ORBITALS:
atom: Selected multiple-zeta basis: split     

SPLIT: Orbitals with angular momentum L= 0

SPLIT: Basis orbitals for state 2s

SPLIT: PAO cut-off radius determined from an
SPLIT: energy shift=  0.002000 Ry

   izeta = 1
                 lambda =    1.000000
                     rc =    4.243912
                 energy =   -1.758270
                kinetic =    3.286084
    potential(screened) =   -5.044353
       potential(ionic) =  -12.921184

   izeta = 2
                 rmatch =    2.187845
              splitnorm =    0.280000
                 energy =   -0.885018
                kinetic =    8.134434
    potential(screened) =   -9.019452
       potential(ionic) =  -17.710645

SPLIT: Orbitals with angular momentum L= 1

SPLIT: Basis orbitals for state 2p

SPLIT: PAO cut-off radius determined from an
SPLIT: energy shift=  0.002000 Ry

   izeta = 1
                 lambda =    1.000000
                     rc =    5.314825
                 energy =   -0.661986
                kinetic =    4.917472
    potential(screened) =   -5.579458
       potential(ionic) =  -13.236259

   izeta = 2
                 rmatch =    2.160663
              splitnorm =    0.280000
                 energy =   -0.068760
                kinetic =    9.183374
    potential(screened) =   -9.252135
       potential(ionic) =  -18.274251

POLgen: Perturbative polarization orbital with L=  2

POLgen: Polarization orbital for state 2p

   izeta = 1
                     rc =    5.314825
                 energy =    1.970580
                kinetic =    3.886128
    potential(screened) =   -1.915547
       potential(ionic) =   -7.749584
atom: Total number of Sankey-type orbitals: 13

atm_pop: Valence configuration (for local Pseudopot. screening):
 2s( 2.00)                                                            
 2p( 4.00)                                                            
Vna: chval, zval:    6.00000   6.00000

Vna:  Cut-off radius for the neutral-atom potential:   5.314825

atom: _________________________________________________________________________

<basis_specs>
===============================================================================
N                    Z=   7    Mass=  14.010        Charge= 0.17977+309
Lmxo=1 Lmxkb= 3    BasisType=split      Semic=F
L=0  Nsemic=0  Cnfigmx=2
          i=1  nzeta=2  polorb=0  (2s)
            splnorm:   0.28000    
               vcte:    0.0000    
               rinn:    0.0000    
               qcoe:    0.0000    
               qyuk:    0.0000    
               qwid:   0.10000E-01
                rcs:    0.0000      0.0000    
            lambdas:    1.0000      1.0000    
L=1  Nsemic=0  Cnfigmx=2
          i=1  nzeta=2  polorb=1  (2p)
            splnorm:   0.28000    
               vcte:    0.0000    
               rinn:    0.0000    
               qcoe:    0.0000    
               qyuk:    0.0000    
               qwid:   0.10000E-01
                rcs:    0.0000      0.0000    
            lambdas:    1.0000      1.0000    
-------------------------------------------------------------------------------
L=0  Nkbl=1  erefs: 0.17977+309
L=1  Nkbl=1  erefs: 0.17977+309
L=2  Nkbl=1  erefs: 0.17977+309
L=3  Nkbl=1  erefs: 0.17977+309
===============================================================================
</basis_specs>

atom: Called for N                     (Z =   7)

read_vps: Pseudopotential generation method:
read_vps: ATM4.2.7  Troullier-Martins                       
Valence charge for ps generation:    5.00000

xc_check: Exchange-correlation functional:
xc_check: GGA Perdew, Burke & Ernzerhof 1996
V l=0 = -2*Zval/r beyond r=  1.2889
V l=1 = -2*Zval/r beyond r=  1.2889
V l=2 = -2*Zval/r beyond r=  3.4178
V l=3 = -2*Zval/r beyond r=  2.4084
All V_l potentials equal beyond r=  3.3753
This should be close to max(r_c) in ps generation
All pots = -2*Zval/r beyond r=  3.4178

VLOCAL1: 99.0% of the norm of Vloc inside      3.810 Ry
VLOCAL1: 99.9% of the norm of Vloc inside      8.683 Ry
atom: Maximum radius for 4*pi*r*r*local-pseudopot. charge    4.02088
atom: Maximum radius for r*vlocal+2*Zval:    3.54838
GHOST: No ghost state for L =  0
GHOST: No ghost state for L =  1
GHOST: No ghost state for L =  2
GHOST: No ghost state for L =  3

KBgen: Kleinman-Bylander projectors: 
   l= 0   rc=  3.417763   el= -1.365098   Ekb= -4.433130   kbcos= -0.707855
   l= 1   rc=  3.375302   el= -0.521201   Ekb=-13.264039   kbcos= -0.535594
   l= 2   rc=  3.872880   el=  0.001991   Ekb= -0.641094   kbcos= -0.062456
   l= 3   rc=  3.970931   el=  0.003093   Ekb= -0.474517   kbcos= -0.018236

KBgen: Total number of Kleinman-Bylander projectors:   16
atom: -------------------------------------------------------------------------

atom: SANKEY-TYPE ORBITALS:
atom: Selected multiple-zeta basis: split     

SPLIT: Orbitals with angular momentum L= 0

SPLIT: Basis orbitals for state 2s

SPLIT: PAO cut-off radius determined from an
SPLIT: energy shift=  0.002000 Ry

   izeta = 1
                 lambda =    1.000000
                     rc =    4.730425
                 energy =   -1.363399
                kinetic =    1.245246
    potential(screened) =   -2.608645
       potential(ionic) =   -8.121105

   izeta = 2
                 rmatch =    2.531849
              splitnorm =    0.280000
                 energy =   -0.959908
                kinetic =    2.409435
    potential(screened) =   -3.369343
       potential(ionic) =   -9.427975

SPLIT: Orbitals with angular momentum L= 1

SPLIT: Basis orbitals for state 2p

SPLIT: PAO cut-off radius determined from an
SPLIT: energy shift=  0.002000 Ry

   izeta = 1
                 lambda =    1.000000
                     rc =    5.924108
                 energy =   -0.519262
                kinetic =    3.672940
    potential(screened) =   -4.192202
       potential(ionic) =   -9.518354

   izeta = 2
                 rmatch =    2.531849
              splitnorm =    0.280000
                 energy =   -0.104258
                kinetic =    6.807538
    potential(screened) =   -6.911796
       potential(ionic) =  -13.149920

POLgen: Perturbative polarization orbital with L=  2

POLgen: Polarization orbital for state 2p

   izeta = 1
                     rc =    5.924108
                 energy =    1.427508
                kinetic =    2.872379
    potential(screened) =   -1.444871
       potential(ionic) =   -5.563644
atom: Total number of Sankey-type orbitals: 13

atm_pop: Valence configuration (for local Pseudopot. screening):
 2s( 2.00)                                                            
 2p( 3.00)                                                            
Vna: chval, zval:    5.00000   5.00000

Vna:  Cut-off radius for the neutral-atom potential:   5.924108

atom: _________________________________________________________________________

<basis_specs>
===============================================================================
Si                   Z=  14    Mass=  28.090        Charge= 0.17977+309
Lmxo=1 Lmxkb= 3    BasisType=split      Semic=F
L=0  Nsemic=0  Cnfigmx=3
          i=1  nzeta=2  polorb=0  (3s)
            splnorm:   0.28000    
               vcte:    0.0000    
               rinn:    0.0000    
               qcoe:    0.0000    
               qyuk:    0.0000    
               qwid:   0.10000E-01
                rcs:    0.0000      0.0000    
            lambdas:    1.0000      1.0000    
L=1  Nsemic=0  Cnfigmx=3
          i=1  nzeta=2  polorb=1  (3p)
            splnorm:   0.28000    
               vcte:    0.0000    
               rinn:    0.0000    
               qcoe:    0.0000    
               qyuk:    0.0000    
               qwid:   0.10000E-01
                rcs:    0.0000      0.0000    
            lambdas:    1.0000      1.0000    
-------------------------------------------------------------------------------
L=0  Nkbl=1  erefs: 0.17977+309
L=1  Nkbl=1  erefs: 0.17977+309
L=2  Nkbl=1  erefs: 0.17977+309
L=3  Nkbl=1  erefs: 0.17977+309
===============================================================================
</basis_specs>

atom: Called for Si                    (Z =  14)

read_vps: Pseudopotential generation method:
read_vps: ATM4.2.7  Troullier-Martins                       
Valence charge for ps generation:    4.00000

xc_check: Exchange-correlation functional:
xc_check: GGA Perdew, Burke & Ernzerhof 1996
V l=0 = -2*Zval/r beyond r=  2.7826
V l=1 = -2*Zval/r beyond r=  2.7826
V l=2 = -2*Zval/r beyond r=  2.9253
V l=3 = -2*Zval/r beyond r=  2.7826
All V_l potentials equal beyond r=  2.8530
This should be close to max(r_c) in ps generation
All pots = -2*Zval/r beyond r=  2.9253

VLOCAL1: 99.0% of the norm of Vloc inside      5.333 Ry
VLOCAL1: 99.9% of the norm of Vloc inside     12.154 Ry
atom: Maximum radius for 4*pi*r*r*local-pseudopot. charge    3.39869
atom: Maximum radius for r*vlocal+2*Zval:    2.96205
GHOST: No ghost state for L =  0
GHOST: No ghost state for L =  1
GHOST: No ghost state for L =  2
GHOST: No ghost state for L =  3

KBgen: Kleinman-Bylander projectors: 
   l= 0   rc=  3.075247   el= -0.794092   Ekb=  5.879390   kbcos=  0.167461
   l= 1   rc=  3.153101   el= -0.300068   Ekb=  2.642817   kbcos=  0.058301
   l= 2   rc=  3.273594   el=  0.001958   Ekb= -1.185135   kbcos= -0.104411
   l= 3   rc=  3.232927   el=  0.003046   Ekb= -0.497174   kbcos= -0.015889

KBgen: Total number of Kleinman-Bylander projectors:   16
atom: -------------------------------------------------------------------------

atom: SANKEY-TYPE ORBITALS:
atom: Selected multiple-zeta basis: split     

SPLIT: Orbitals with angular momentum L= 0

SPLIT: Basis orbitals for state 3s

SPLIT: PAO cut-off radius determined from an
SPLIT: energy shift=  0.002000 Ry

   izeta = 1
                 lambda =    1.000000
                     rc =    6.429618
                 energy =   -0.792283
                kinetic =    0.525293
    potential(screened) =   -1.317576
       potential(ionic) =   -3.744923

   izeta = 2
                 rmatch =    3.998416
              splitnorm =    0.280000
                 energy =   -0.583081
                kinetic =    1.069570
    potential(screened) =   -1.652651
       potential(ionic) =   -4.235185

SPLIT: Orbitals with angular momentum L= 1

SPLIT: Basis orbitals for state 3p

SPLIT: PAO cut-off radius determined from an
SPLIT: energy shift=  0.002000 Ry

   izeta = 1
                 lambda =    1.000000
                     rc =    8.464845
                 energy =   -0.298236
                kinetic =    0.785360
    potential(screened) =   -1.083596
       potential(ionic) =   -3.273779

   izeta = 2
                 rmatch =    4.587816
              splitnorm =    0.280000
                 energy =   -0.131871
                kinetic =    1.403687
    potential(screened) =   -1.535557
       potential(ionic) =   -4.015310

POLgen: Perturbative polarization orbital with L=  2

POLgen: Polarization orbital for state 3p

   izeta = 1
                     rc =    8.464845
                 energy =    0.321949
                kinetic =    1.055677
    potential(screened) =   -0.733728
       potential(ionic) =   -2.672950
atom: Total number of Sankey-type orbitals: 13

atm_pop: Valence configuration (for local Pseudopot. screening):
 3s( 2.00)                                                            
 3p( 2.00)                                                            
Vna: chval, zval:    4.00000   4.00000

Vna:  Cut-off radius for the neutral-atom potential:   8.464845

atom: _________________________________________________________________________

<basis_specs>
===============================================================================
H                    Z=   1    Mass=  1.0100        Charge= 0.17977+309
Lmxo=0 Lmxkb= 2    BasisType=split      Semic=F
L=0  Nsemic=0  Cnfigmx=1
          i=1  nzeta=2  polorb=1  (1s)
            splnorm:   0.62000    
               vcte:    0.0000    
               rinn:    0.0000    
               qcoe:    0.0000    
               qyuk:    0.0000    
               qwid:   0.10000E-01
                rcs:    0.0000      0.0000    
            lambdas:    1.0000      1.0000    
-------------------------------------------------------------------------------
L=0  Nkbl=1  erefs: 0.17977+309
L=1  Nkbl=1  erefs: 0.17977+309
L=2  Nkbl=1  erefs: 0.17977+309
===============================================================================
</basis_specs>

atom: Called for H                     (Z =   1)

read_vps: Pseudopotential generation method:
read_vps: ATM4.2.7  Troullier-Martins                       
Valence charge for ps generation:    1.00000

xc_check: Exchange-correlation functional:
xc_check: GGA Perdew, Burke & Ernzerhof 1996
V l=0 = -2*Zval/r beyond r=  0.0098
V l=1 = -2*Zval/r beyond r=  0.5817
V l=2 = -2*Zval/r beyond r=  1.9372
All V_l potentials equal beyond r=  1.9372
This should be close to max(r_c) in ps generation
All pots = -2*Zval/r beyond r=  1.9372

VLOCAL1: 99.0% of the norm of Vloc inside     11.567 Ry
VLOCAL1: 99.9% of the norm of Vloc inside     26.362 Ry
atom: Maximum radius for 4*pi*r*r*local-pseudopot. charge    2.25106
atom: Maximum radius for r*vlocal+2*Zval:    1.91306
GHOST: No ghost state for L =  0
GHOST: No ghost state for L =  1
GHOST: No ghost state for L =  2

KBgen: Kleinman-Bylander projectors: 
   l= 0   rc=  2.036604   el= -0.477180   Ekb= -6.081590   kbcos= -0.277285
   l= 1   rc=  2.195416   el=  0.001076   Ekb= -0.926943   kbcos= -0.034643
   l= 2   rc=  2.251056   el=  0.002010   Ekb= -0.130941   kbcos= -0.009788

KBgen: Total number of Kleinman-Bylander projectors:    9
atom: -------------------------------------------------------------------------

atom: SANKEY-TYPE ORBITALS:
atom: Selected multiple-zeta basis: split     

SPLIT: Orbitals with angular momentum L= 0

SPLIT: Basis orbitals for state 1s

SPLIT: PAO cut-off radius determined from an
SPLIT: energy shift=  0.002000 Ry

   izeta = 1
                 lambda =    1.000000
                     rc =    6.518340
                 energy =   -0.475305
                kinetic =    0.912139
    potential(screened) =   -1.387444
       potential(ionic) =   -1.907295

   izeta = 2
                 rmatch =    2.141150
              splitnorm =    0.620000
                 energy =    0.566467
                kinetic =    3.772856
    potential(screened) =   -3.206389
       potential(ionic) =   -3.759093

POLgen: Perturbative polarization orbital with L=  1

POLgen: Polarization orbital for state 1s

   izeta = 1
                     rc =    6.518340
                 energy =    0.533861
                kinetic =    1.121086
    potential(screened) =   -0.587225
       potential(ionic) =   -1.053027
atom: Total number of Sankey-type orbitals:  5

atm_pop: Valence configuration (for local Pseudopot. screening):
 1s( 1.00)                                                            
Vna: chval, zval:    1.00000   1.00000

Vna:  Cut-off radius for the neutral-atom potential:   6.518340

atom: _________________________________________________________________________

prinput: Basis input ----------------------------------------------------------

PAO.BasisType split     

%block ChemicalSpeciesLabel
    1    8 O                       # Species index, atomic number, species label
    2    7 N                       # Species index, atomic number, species label
    3   14 Si                      # Species index, atomic number, species label
    4    1 H                       # Species index, atomic number, species label
%endblock ChemicalSpeciesLabel

%block PAO.Basis                 # Define Basis set
O                     2                    # Species label, number of l-shells
 n=2   0   2                         # n, l, Nzeta 
   4.244      2.188   
   1.000      1.000   
 n=2   1   2 P   1                   # n, l, Nzeta, Polarization, NzetaPol
   5.315      2.161   
   1.000      1.000   
N                     2                    # Species label, number of l-shells
 n=2   0   2                         # n, l, Nzeta 
   4.730      2.532   
   1.000      1.000   
 n=2   1   2 P   1                   # n, l, Nzeta, Polarization, NzetaPol
   5.924      2.532   
   1.000      1.000   
Si                    2                    # Species label, number of l-shells
 n=3   0   2                         # n, l, Nzeta 
   6.430      3.998   
   1.000      1.000   
 n=3   1   2 P   1                   # n, l, Nzeta, Polarization, NzetaPol
   8.465      4.588   
   1.000      1.000   
H                     1                    # Species label, number of l-shells
 n=1   0   2 P   1                   # n, l, Nzeta, Polarization, NzetaPol
   6.518      2.141   
   1.000      1.000   
%endblock PAO.Basis

prinput: ----------------------------------------------------------------------

Dumping basis to NetCDF file O.ion.nc
Dumping basis to NetCDF file N.ion.nc
Dumping basis to NetCDF file Si.ion.nc
Dumping basis to NetCDF file H.ion.nc
coor:   Atomic-coordinates input format  =     Cartesian coordinates
coor:                                          (in Angstroms)

siesta: Atomic coordinates (Bohr) and species
siesta:      1.97217   7.44407   0.00000  1        1
siesta:     -5.74598   2.02405   0.00000  2        2
siesta:      3.88264   2.29334   0.00000  2        3
siesta:      1.88786  -3.27422   0.00000  2        4
siesta:     -4.02956  -3.42601   0.00000  2        5
siesta:      7.29471  -2.10194   0.00000  2        6
siesta:     -2.33605   2.17879   0.00000  3        7
siesta:     -1.00708  -1.77447   0.00000  3        8
siesta:      1.20122   4.48719   0.00000  3        9
siesta:      4.24276  -1.03929   0.00000  3       10
siesta:     -6.51921  -1.10297   0.00000  3       11
siesta:      5.60061   3.38449   0.00000  4       12
siesta:     -9.15684  -2.12320   0.00000  4       13
siesta:      7.57218  -4.06728   0.00000  4       14
siesta:      9.01814  -0.94924   0.00000  4       15
siesta:     -4.28099  -5.41332   0.00000  4       16
siesta:     11.05562  10.43619   0.00000  3       17
siesta:     14.65534  12.71641   0.00000  3       18
siesta:     13.71850   5.20857   0.00000  3       19
siesta:     17.64435   9.87472   0.00000  3       20
siesta:     11.16830   7.19072   0.00000  2       21
siesta:      8.14708  11.86043   0.00000  2       22
siesta:     16.84088   6.58776   0.00000  2       23
siesta:     15.01692  15.53617   0.00000  4       24
siesta:     20.44940  10.28806   0.00000  4       25
siesta:      7.93667  13.84313   0.00000  4       26
siesta:      6.38480  10.67952   0.00000  4       27
siesta:     13.69917   2.16968   0.00000  1       28
siesta:     18.30623   5.21452   0.00000  4       29

siesta: Automatic unit cell vectors (Ang):
siesta:   24.822219    0.000000    0.000000
siesta:    0.000000   19.783170    0.000000
siesta:    0.000000    0.000000    9.854683

siesta: System type = molecule  

initatomlists: Number of atoms, orbitals, and projectors:     29   297   394

siesta: ******************** Simulation parameters ****************************
siesta:
siesta: The following are some of the parameters of the simulation.
siesta: A complete list of the parameters used, including default values,
siesta: can be found in file out.fdf
siesta:
redata: Spin configuration                          = spin-orbit
redata: Number of spin components                   = 8
redata: Time-Reversal Symmetry                      = F
redata: Spin spiral                                 = F
############################################################
This spin-orbit implementation uses a local approximation.
From 4.2 and onwards the full non-local approximation is implemented
You are strongly advised to use >=4.2 versions!
############################################################
redata: Long output                                 =   F
redata: Number of Atomic Species                    =        4
redata: Charge density info will appear in .RHO file
redata: Write Mulliken Pop.                         = Atomic and Orbital charges
redata: Matel table size (NRTAB)                    =     1024
redata: Mesh Cutoff                                 =   340.0000 Ry
redata: Net charge of the system                    =     0.0000 |e|
redata: Min. number of SCF Iter                     =        1
redata: Max. number of SCF Iter                     =      200
redata: SCF mix quantity                            = Hamiltonian
redata: Mix DM or H after convergence               =   F
redata: Recompute H after scf cycle                 =   F
redata: Mix DM in first SCF step                    =   T
redata: Write Pulay info on disk                    =   F
redata: New DM Occupancy tolerance                  = 0.000000000001
redata: No kicks to SCF
redata: DM Mixing Weight for Kicks                  =     0.5000
redata: Require Harris convergence for SCF          =   F
redata: Harris energy tolerance for SCF             =     0.000100 eV
redata: Require DM convergence for SCF              =   T
redata: DM tolerance for SCF                        =     0.000008
redata: Require EDM convergence for SCF             =   F
redata: EDM tolerance for SCF                       =     0.001000 eV
redata: Require H convergence for SCF               =   T
redata: Hamiltonian tolerance for SCF               =     0.000001 eV
redata: Require (free) Energy convergence for SCF   =   F
redata: (free) Energy tolerance for SCF             =     0.000100 eV
redata: Using Saved Data (generic)                  =   F
redata: Use continuation files for DM               =   F
redata: Neglect nonoverlap interactions             =   F
redata: Method of Calculation                       = Diagonalization
redata: Electronic Temperature                      =   299.9978 K
redata: Fix the spin of the system                  =   F
redata: Dynamics option                             = Single-point calculation
mix.SCF: Pulay mixing                            = Pulay
mix.SCF:    Variant                              = stable
mix.SCF:    History steps                        = 6
mix.SCF:    Linear mixing weight                 =     0.250000
mix.SCF:    Mixing weight                        =     0.250000
mix.SCF:    SVD condition                        = 0.1000E-07
mix.SCF:    Restart steps                        = 24
mix.SCF:    Restart save steps                   = 3
mix.SCF: Spin-component mixing                   all
redata: Save all siesta data in one NC              =   F
redata: ***********************************************************************

%block SCF.Mixers
  Pulay
%endblock SCF.Mixers

%block SCF.Mixer.Pulay
  # Mixing method
  method pulay
  variant stable

  # Mixing options
  weight 0.2500
  weight.linear 0.2500
  history 6
  restart 24
  restart.save 3
%endblock SCF.Mixer.Pulay

DM_history_depth set to one: no extrapolation allowed by default for geometry relaxation
Size of DM history Fstack: 1
Total number of electrons:    98.000000
Total ionic charge:    98.000000

* ProcessorY, Blocksize:    2  24


* Orbital distribution balance (max,min):    81    72


Time-reversal symmetry not used.

siesta: k-grid: Number of k-points =     1
siesta: k-grid: Cutoff (effective) =     4.927 Ang
siesta: k-grid: Supercell and displacements
siesta: k-grid:    1   0   0      0.000
siesta: k-grid:    0   1   0      0.000
siesta: k-grid:    0   0   1      0.000

diag: Algorithm                                     = ELPA-1stage
diag: Parallel over k                               =   F
diag: Use parallel 2D distribution                  =   T
diag: Parallel block-size                           = 24
diag: Parallel distribution                         =     2 x     2
diag: Used triangular part                          = Lower
diag: Absolute tolerance                            =  0.100E-15
diag: Orthogonalization factor                      =  0.100E-05
diag: Memory factor                                 =  1.0000


ts: **************************************************************
ts: Save H and S matrices                           =    F
ts: Save DM and EDM matrices                        =    F
ts: Only save the overlap matrix S                  =    F
ts: **************************************************************

************************ Begin: TS CHECKS AND WARNINGS ************************
************************ End: TS CHECKS AND WARNINGS **************************


                     ====================================
                        Single-point calculation
                     ====================================

outcoor: Atomic coordinates (Ang):                          
    1.04362488    3.93922861    0.00000000   1       1  O
   -3.04064129    1.07107817    0.00000000   2       2  N
    2.05460145    1.21358207    0.00000000   2       3  N
    0.99901410   -1.73264380    0.00000000   2       4  N
   -2.13235164   -1.81296822    0.00000000   2       5  N
    3.86019055   -1.11229818    0.00000000   2       6  N
   -1.23618322    1.15296446    0.00000000   3       7  Si
   -0.53292426   -0.93900627    0.00000000   3       8  Si
    0.63566047    2.37451677    0.00000000   3       9  Si
    2.24517024   -0.54996710    0.00000000   3      10  Si
   -3.44981666   -0.58366503    0.00000000   3      11  Si
    2.96371409    1.79099263    0.00000000   4      12  H
   -4.84559135   -1.12354966    0.00000000   4      13  H
    4.00702091   -2.15230856    0.00000000   4      14  H
    4.77219438   -0.50231816    0.00000000   4      15  H
   -2.26539909   -2.86460511    0.00000000   4      16  H
    5.85038244    5.52259101    0.00000000   3      17  Si
    7.75526641    6.72922995    0.00000000   3      18  Si
    7.25951227    2.75625604    0.00000000   3      19  Si
    9.33698256    5.22547320    0.00000000   3      20  Si
    5.91000511    3.80516344    0.00000000   2      21  N
    4.31124738    6.27626832    0.00000000   2      22  N
    8.91180753    3.48609326    0.00000000   2      23  N
    7.94661121    8.22138370    0.00000000   4      24  H
   10.82135054    5.44420402    0.00000000   4      25  H
    4.19990210    7.32546343    0.00000000   4      26  H
    3.37868967    5.65135414    0.00000000   4      27  H
    7.24928544    1.14814492    0.00000000   1      28  O
    9.68723341    2.75940170    0.00000000   4      29  H

outcell: Unit cell vectors (Ang):
       24.822219    0.000000    0.000000
        0.000000   19.783170    0.000000
        0.000000    0.000000    9.854683

outcell: Cell vector modules (Ang)   :   24.822219   19.783170    9.854683
outcell: Cell angles (23,13,12) (deg):     90.0000     90.0000     90.0000
outcell: Cell volume (Ang**3)        :   4839.2623
<dSpData1D:S at geom step 0
  <sparsity:sparsity for geom step 0
    nrows_g=297 nrows=81 sparsity=.2045 nnzs=18043, refcount: 8>
  <dData1D:(new from dSpData1D) n=18043, refcount: 1>
refcount: 1>
new_DM -- step:     1
Initializing Density Matrix...
DM filled with atomic data:
<dSpData2D:DM initialized from atoms
  <sparsity:sparsity for geom step 0
    nrows_g=297 nrows=81 sparsity=.2045 nnzs=18043, refcount: 9>
  <dData2D:DM n=18043 m=8, refcount: 1>
refcount: 1>
     spin moment: S , {S} =   56.00000   0.00000   0.00000  56.00000
No. of atoms with KB's overlaping orbs in proc 0. Max # of overlaps:      29     171

Initializing spin-orbit part of the Hamiltonian
  Adding spin-orbit effects for O 
  Adding spin-orbit effects for N 
  Adding spin-orbit effects for Si
  Adding spin-orbit effects for H 


New grid distribution:   1
           1       1:  144    1:   60    1:   30
           2       1:  144    1:   60   31:   60
           3       1:  144   61:  120    1:   30
           4       1:  144   61:  120   31:   60

InitMesh: MESH =   288 x   240 x   120 =     8294400
InitMesh: (bp) =   144 x   120 x    60 =     1036800
InitMesh: Mesh cutoff (required, used) =   340.000   372.054 Ry
ExtMesh (bp) on 0 =   248 x   172 x   142 =     6057152
New grid distribution:   2
           1      41:  144    1:   30    1:   60
           2       1:   40    1:   29    1:   60
           3      41:  144   31:  120    1:   60
           4       1:   40   30:  120    1:   60
New grid distribution:   3
           1      49:  144    1:   35    1:   60
           2       1:   48    1:   40    1:   60
           3      49:  144   36:  120    1:   60
           4       1:   48   41:  120    1:   60
Setting up quadratic distribution...
ExtMesh (bp) on 0 =   208 x   142 x   172 =     5080192
PhiOnMesh: Number of (b)points on node 0 =               187200
PhiOnMesh: nlist on node 0 =              2781101

stepf: Fermi-Dirac step function

siesta: Program's energy decomposition (eV):
siesta: Ebs     =      -616.030229
siesta: Eions   =      3585.165840
siesta: Ena     =       382.001364
siesta: Ekin    =      3366.725539
siesta: Enl     =     -3295.641634
siesta: Eso     =        -0.003418
siesta: Edftu   =         0.000000
siesta: DEna    =       153.315115
siesta: DUscf   =        80.293267
siesta: DUext   =         0.000000
siesta: Exc     =     -1203.527636
siesta: eta*DQ  =         0.000000
siesta: Emadel  =         0.000000
siesta: Emeta   =         0.000000
siesta: Emolmec =         0.000000
siesta: Ekinion =         0.000000
siesta: Eharris =     -4024.936334
siesta: Etot    =     -4102.003241
siesta: FreeEng =     -4102.004642

        iscf     Eharris(eV)        E_KS(eV)     FreeEng(eV)     dDmax    Ef(eV) dHmax(eV)
   scf:    1    -4024.936334    -4102.003241    -4102.004642  0.963469 -4.904987 21.497753
     spin moment: S , {S} =    2.00720   0.00000  -0.00000   2.00720
timer: Routine,Calls,Time,% = IterSCF        1      13.390  18.58
   scf:    2    -4148.848334    -4137.230550    -4137.232090  0.456696 -4.211220 11.393541
     spin moment: S , {S} =    1.99096   0.00000   0.00000   1.99096
   scf:    3    -4110.593977    -4134.800352    -4134.814773  0.425770 -4.294028 11.481790
     spin moment: S , {S} =    2.00069  -0.00000   0.00000   2.00069
   scf:    4    -4150.257009    -4145.636144    -4145.636144  0.309421 -3.899188  6.287335
     spin moment: S , {S} =    0.00009  -0.00000   0.00000   0.00009
   scf:    5    -4146.809431    -4146.315034    -4146.315034  0.035297 -3.694789  4.316810
     spin moment: S , {S} =    0.00006  -0.00000   0.00000   0.00006
   scf:    6    -4147.060462    -4146.694159    -4146.694159  0.024685 -3.698849  2.109925
     spin moment: S , {S} =    0.00003   0.00000   0.00000   0.00003
   scf:    7    -4147.034770    -4146.861390    -4146.861390  0.021299 -3.697920  0.889349
     spin moment: S , {S} =    0.00001   0.00000  -0.00000   0.00001
   scf:    8    -4146.982037    -4146.919692    -4146.919692  0.012721 -3.768977  0.489618
     spin moment: S , {S} =    0.00000   0.00000   0.00000   0.00000
   scf:    9    -4146.958041    -4146.938208    -4146.938208  0.006603 -3.774436  0.355070
     spin moment: S , {S} =    0.00000   0.00000   0.00000   0.00000
   scf:   10    -4146.989306    -4146.958508    -4146.958508  0.020080 -3.794997  0.187184
     spin moment: S , {S} =    0.00000   0.00000  -0.00000  -0.00000
   scf:   11    -4146.961499    -4146.959972    -4146.959972  0.005092 -3.786447  0.055402
     spin moment: S , {S} =    0.00000   0.00000   0.00000  -0.00000
   scf:   12    -4146.960791    -4146.960393    -4146.960393  0.001280 -3.781519  0.024273
     spin moment: S , {S} =    0.00000  -0.00000   0.00000   0.00000
   scf:   13    -4146.960777    -4146.960580    -4146.960580  0.001435 -3.779523  0.017802
     spin moment: S , {S} =    0.00000   0.00000   0.00000   0.00000
   scf:   14    -4146.960825    -4146.960694    -4146.960694  0.001380 -3.779031  0.014019
     spin moment: S , {S} =    0.00000   0.00000  -0.00000   0.00000
   scf:   15    -4146.960848    -4146.960764    -4146.960764  0.001330 -3.778584  0.010041
     spin moment: S , {S} =    0.00000   0.00000   0.00000   0.00000
   scf:   16    -4146.960870    -4146.960809    -4146.960809  0.001405 -3.778655  0.005896
     spin moment: S , {S} =    0.00000   0.00000   0.00000   0.00000
   scf:   17    -4146.960839    -4146.960821    -4146.960821  0.000754 -3.778597  0.003798
     spin moment: S , {S} =    0.00000   0.00000   0.00000   0.00000
   scf:   18    -4146.960832    -4146.960826    -4146.960826  0.000456 -3.778652  0.001863
     spin moment: S , {S} =    0.00000   0.00000   0.00000   0.00000
   scf:   19    -4146.960829    -4146.960827    -4146.960827  0.000252 -3.778686  0.000932
     spin moment: S , {S} =    0.00000   0.00000   0.00000   0.00000
   scf:   20    -4146.960828    -4146.960827    -4146.960827  0.000100 -3.778682  0.000570
     spin moment: S , {S} =    0.00000  -0.00000   0.00000   0.00000
   scf:   21    -4146.960828    -4146.960828    -4146.960828  0.000094 -3.778682  0.000264
     spin moment: S , {S} =    0.00000   0.00000   0.00000   0.00000
   scf:   22    -4146.960828    -4146.960828    -4146.960828  0.000025 -3.778678  0.000091
     spin moment: S , {S} =    0.00000   0.00000   0.00000   0.00000
   scf:   23    -4146.960828    -4146.960828    -4146.960828  0.000007 -3.778680  0.000061
     spin moment: S , {S} =    0.00000  -0.00000   0.00000   0.00000
   scf:   24    -4146.960828    -4146.960828    -4146.960828  0.000002 -3.778681  0.000056
     spin moment: S , {S} =    0.00000  -0.00000   0.00000  -0.00000
mix: Pulay -- resetting history
   scf:   25    -4146.960828    -4146.960828    -4146.960828  0.000004 -3.778682  0.000036
     spin moment: S , {S} =    0.00000  -0.00000   0.00000  -0.00000
   scf:   26    -4146.960828    -4146.960828    -4146.960828  0.000004 -3.778682  0.000020
     spin moment: S , {S} =    0.00000  -0.00000   0.00000  -0.00000
   scf:   27    -4146.960828    -4146.960828    -4146.960828  0.000004 -3.778681  0.000006
     spin moment: S , {S} =    0.00000   0.00000   0.00000   0.00000
   scf:   28    -4146.960828    -4146.960828    -4146.960828  0.000001 -3.778681  0.000004
     spin moment: S , {S} =    0.00000   0.00000   0.00000   0.00000
   scf:   29    -4146.960828    -4146.960828    -4146.960828  0.000000 -3.778680  0.000003
     spin moment: S , {S} =    0.00000   0.00000   0.00000   0.00000
   scf:   30    -4146.960828    -4146.960828    -4146.960828  0.000000 -3.778680  0.000001
     spin moment: S , {S} =    0.00000   0.00000   0.00000   0.00000
   scf:   31    -4146.960828    -4146.960828    -4146.960828  0.000000 -3.778680  0.000001
     spin moment: S , {S} =    0.00000   0.00000   0.00000   0.00000

SCF Convergence by DM+H criterion
max |DM_out - DM_in|         :     0.0000001685
max |H_out - H_in|      (eV) :     0.0000006635
SCF cycle converged after 31 iterations

Using DM_out to compute the final energy and forces
No. of atoms with KB's overlaping orbs in proc 0. Max # of overlaps:      29     171

siesta: E_KS(eV) =            -4146.9608

siesta: E_KS - E_eggbox =     -4146.9608
     spin moment: S , {S} =    0.00000   0.00000   0.00000   0.00000

siesta: Atomic forces (eV/Ang):
     1   -1.716801    1.060897    0.000000
     2   -0.029445    0.026778   -0.000000
     3    0.627587   -0.276056    0.000000
     4    0.580906   -0.011807   -0.000000
     5    0.046314   -0.067763    0.000000
     6    1.627186    0.665843   -0.000000
     7    0.036166   -0.209204   -0.000000
     8   -0.323579    0.230393   -0.000000
     9   -0.108995    1.033358   -0.000000
    10   -0.780141    0.318416    0.000000
    11   -0.017033   -0.016773    0.000000
    12   -0.298938   -0.202391   -0.000000
    13    0.053488   -0.030107   -0.000000
    14    0.181383   -0.058557    0.000000
    15   -1.160653   -0.725061   -0.000000
    16   -0.010826    0.098045    0.000000
    17    0.788418   -0.925757    0.000000
    18   -0.176032    0.163154   -0.000000
    19   -0.177262   -0.968674    0.000000
    20   -0.020003   -0.333768   -0.000000
    21   -0.243471    0.810963   -0.000000
    22   -2.025708   -0.884765    0.000000
    23    0.203208    0.416597    0.000000
    24    0.049216    0.003084    0.000000
    25    0.094897   -0.004918   -0.000000
    26   -0.173279   -0.154288   -0.000000
    27    1.400638    1.233641   -0.000000
    28   -1.588642    1.347346   -0.000000
    29   -0.061464    0.105196    0.000000
----------------------------------------
   Tot   -3.222866    2.643823    0.000000
----------------------------------------
   Max    2.025708
   Res    0.570993    sqrt( Sum f_i^2 / 3N )
----------------------------------------
   Max    2.025708    constrained

Stress tensor Voigt[x,y,z,yz,xz,xy] (kbar):        0.37        1.66       -0.10        0.00       -0.00        1.61
(Free)E + p*V (eV/cell)    -4148.9091
Target enthalpy (eV/cell)    -4146.9608

mulliken: Atomic and Orbital Populations:

Species: O                   

Atom      Orb        Charge      Spin       Svec
----------------------------------------------------------------
    1  1 2s         1.74799   0.00000     -0.000   0.000  -0.000
    1  2 2s         0.06410   0.00000      0.000  -0.000  -0.000
    1  3 2py        1.43432   0.00000      0.000   0.000  -0.000
    1  4 2pz        1.56160   0.00000      0.000  -0.000  -0.000
    1  5 2px        1.63223   0.00000      0.000  -0.000  -0.000
    1  6 2py        0.03748   0.00000      0.000  -0.000   0.000
    1  7 2pz       -0.00939   0.00000     -0.000  -0.000  -0.000
    1  8 2px        0.00094   0.00000      0.000   0.000  -0.000
    1  9 3Pdxy      0.00655   0.00000     -0.000  -0.000   0.000
    1 10 3Pdyz      0.00862   0.00000     -0.000   0.000   0.000
    1 11 3Pdz2      0.00144   0.00000      0.000   0.000  -0.000
    1 12 3Pdxz      0.00030   0.00000      0.000   0.000   0.000
    1 13 3Pdx2-y2   0.00666   0.00000      0.000  -0.000   0.000
    1     Total     6.49284   0.00000      0.000  -0.000  -0.000

   28  1 2s         1.74481   0.00000     -0.000  -0.000   0.000
   28  2 2s         0.06624   0.00000      0.000   0.000  -0.000
   28  3 2py        1.41652   0.00000     -0.000   0.000  -0.000
   28  4 2pz        1.55944   0.00000      0.000   0.000  -0.000
   28  5 2px        1.64844   0.00000      0.000  -0.000  -0.000
   28  6 2py        0.04018   0.00000     -0.000  -0.000   0.000
   28  7 2pz       -0.00718   0.00000      0.000  -0.000   0.000
   28  8 2px        0.00593   0.00000      0.000  -0.000  -0.000
   28  9 3Pdxy      0.00619   0.00000      0.000   0.000   0.000
   28 10 3Pdyz      0.00942   0.00000      0.000  -0.000   0.000
   28 11 3Pdz2      0.00114   0.00000      0.000   0.000  -0.000
   28 12 3Pdxz     -0.00019   0.00000     -0.000  -0.000  -0.000
   28 13 3Pdx2-y2   0.00757   0.00000      0.000  -0.000   0.000
   28     Total     6.49851   0.00000      0.000   0.000  -0.000

----------------------------------------------------------------
Total              12.99135   0.00000      0.000   0.000  -0.000


Species: N                   

Atom      Orb        Charge      Spin       Svec
----------------------------------------------------------------
    2  1 2s         1.55016   0.00000      0.000   0.000  -0.000
    2  2 2s         0.08455   0.00000     -0.000  -0.000   0.000
    2  3 2py        1.04435   0.00000     -0.000   0.000  -0.000
    2  4 2pz        1.22438   0.00000     -0.000   0.000  -0.000
    2  5 2px        0.99151   0.00000     -0.000  -0.000  -0.000
    2  6 2py        0.18817   0.00000      0.000  -0.000   0.000
    2  7 2pz        0.05525   0.00000      0.000   0.000   0.000
    2  8 2px        0.19550   0.00000      0.000   0.000   0.000
    2  9 3Pdxy      0.00836   0.00000      0.000   0.000   0.000
    2 10 3Pdyz      0.01097   0.00000      0.000  -0.000   0.000
    2 11 3Pdz2      0.00194   0.00000      0.000  -0.000   0.000
    2 12 3Pdxz      0.00759   0.00000     -0.000  -0.000   0.000
    2 13 3Pdx2-y2   0.00907   0.00000      0.000  -0.000  -0.000
    2     Total     5.37179   0.00000     -0.000   0.000  -0.000

    3  1 2s         1.39493   0.00000      0.000   0.000  -0.000
    3  2 2s         0.11900   0.00000     -0.000  -0.000   0.000
    3  3 2py        0.94146   0.00000      0.000  -0.000  -0.000
    3  4 2pz        1.54428   0.00000      0.000   0.000  -0.000
    3  5 2px        1.08492   0.00000     -0.000  -0.000  -0.000
    3  6 2py        0.24915   0.00000     -0.000   0.000   0.000
    3  7 2pz        0.00621   0.00000     -0.000  -0.000   0.000
    3  8 2px        0.17802   0.00000      0.000   0.000   0.000
    3  9 3Pdxy      0.00387   0.00000      0.000  -0.000   0.000
    3 10 3Pdyz      0.00406   0.00000      0.000  -0.000   0.000
    3 11 3Pdz2      0.00070   0.00000      0.000  -0.000   0.000
    3 12 3Pdxz      0.00273   0.00000      0.000   0.000  -0.000
    3 13 3Pdx2-y2   0.00268   0.00000      0.000  -0.000  -0.000
    3     Total     5.53201   0.00000      0.000   0.000  -0.000

    4  1 2s         1.46061   0.00000     -0.000   0.000  -0.000
    4  2 2s         0.11871   0.00000      0.000  -0.000   0.000
    4  3 2py        1.12965   0.00000      0.000  -0.000  -0.000
    4  4 2pz        1.29510   0.00000     -0.000  -0.000  -0.000
    4  5 2px        0.82624   0.00000      0.000   0.000  -0.000
    4  6 2py        0.14990   0.00000     -0.000   0.000   0.000
    4  7 2pz        0.05324   0.00000      0.000   0.000   0.000
    4  8 2px        0.29237   0.00000     -0.000   0.000   0.000
    4  9 3Pdxy      0.00871   0.00000     -0.000  -0.000   0.000
    4 10 3Pdyz      0.01045   0.00000      0.000  -0.000   0.000
    4 11 3Pdz2      0.00126   0.00000      0.000   0.000   0.000
    4 12 3Pdxz      0.00489   0.00000     -0.000   0.000   0.000
    4 13 3Pdx2-y2   0.00799   0.00000     -0.000   0.000  -0.000
    4     Total     5.35911   0.00000      0.000   0.000  -0.000

    5  1 2s         1.37616   0.00000      0.000   0.000  -0.000
    5  2 2s         0.12800   0.00000     -0.000  -0.000   0.000
    5  3 2py        1.02653   0.00000     -0.000  -0.000  -0.000
    5  4 2pz        1.50086   0.00000      0.000  -0.000  -0.000
    5  5 2px        1.06001   0.00000      0.000   0.000  -0.000
    5  6 2py        0.20359   0.00000      0.000   0.000   0.000
    5  7 2pz        0.01337   0.00000     -0.000   0.000   0.000
    5  8 2px        0.20115   0.00000     -0.000  -0.000   0.000
    5  9 3Pdxy      0.00392   0.00000      0.000  -0.000   0.000
    5 10 3Pdyz      0.00242   0.00000      0.000  -0.000   0.000
    5 11 3Pdz2      0.00143   0.00000     -0.000  -0.000   0.000
    5 12 3Pdxz      0.00679   0.00000      0.000   0.000   0.000
    5 13 3Pdx2-y2   0.00560   0.00000     -0.000  -0.000   0.000
    5     Total     5.52982   0.00000      0.000   0.000  -0.000

    6  1 2s         1.26662   0.00000      0.000   0.000  -0.000
    6  2 2s         0.18082   0.00000     -0.000  -0.000   0.000
    6  3 2py        1.07868   0.00000      0.000   0.000  -0.000
    6  4 2pz        1.56352   0.00000      0.000  -0.000  -0.000
    6  5 2px        0.96336   0.00000     -0.000  -0.000  -0.000
    6  6 2py        0.18820   0.00000      0.000  -0.000   0.000
    6  7 2pz        0.03036   0.00000     -0.000   0.000   0.000
    6  8 2px        0.25474   0.00000      0.000   0.000   0.000
    6  9 3Pdxy      0.00219   0.00000     -0.000   0.000  -0.000
    6 10 3Pdyz      0.00012   0.00000      0.000   0.000  -0.000
    6 11 3Pdz2      0.00167   0.00000      0.000  -0.000   0.000
    6 12 3Pdxz      0.00337   0.00000      0.000  -0.000   0.000
    6 13 3Pdx2-y2   0.00401   0.00000      0.000   0.000   0.000
    6     Total     5.53765   0.00000     -0.000  -0.000  -0.000

   21  1 2s         1.41878   0.00000      0.000   0.000   0.000
   21  2 2s         0.12993   0.00000     -0.000  -0.000  -0.000
   21  3 2py        0.87405   0.00000     -0.000   0.000  -0.000
   21  4 2pz        1.30057   0.00000     -0.000   0.000  -0.000
   21  5 2px        1.16129   0.00000     -0.000  -0.000  -0.000
   21  6 2py        0.27495   0.00000      0.000  -0.000   0.000
   21  7 2pz        0.04785   0.00000      0.000  -0.000   0.000
   21  8 2px        0.16065   0.00000      0.000  -0.000   0.000
   21  9 3Pdxy      0.00626   0.00000     -0.000   0.000   0.000
   21 10 3Pdyz      0.00487   0.00000     -0.000  -0.000  -0.000
   21 11 3Pdz2      0.00010   0.00000      0.000   0.000   0.000
   21 12 3Pdxz      0.00581   0.00000     -0.000  -0.000   0.000
   21 13 3Pdx2-y2   0.00568   0.00000     -0.000  -0.000  -0.000
   21     Total     5.39078   0.00000     -0.000   0.000  -0.000

   22  1 2s         1.29047   0.00000      0.000   0.000   0.000
   22  2 2s         0.17008   0.00000     -0.000  -0.000  -0.000
   22  3 2py        1.06041   0.00000      0.000  -0.000  -0.000
   22  4 2pz        1.54312   0.00000      0.000   0.000  -0.000
   22  5 2px        0.99339   0.00000      0.000  -0.000  -0.000
   22  6 2py        0.19629   0.00000     -0.000   0.000   0.000
   22  7 2pz        0.02889   0.00000      0.000  -0.000   0.000
   22  8 2px        0.23347   0.00000     -0.000   0.000   0.000
   22  9 3Pdxy      0.00306   0.00000     -0.000  -0.000   0.000
   22 10 3Pdyz      0.00031   0.00000      0.000   0.000   0.000
   22 11 3Pdz2      0.00245   0.00000     -0.000  -0.000  -0.000
   22 12 3Pdxz      0.00333   0.00000     -0.000  -0.000   0.000
   22 13 3Pdx2-y2   0.00471   0.00000     -0.000  -0.000  -0.000
   22     Total     5.52997   0.00000      0.000   0.000  -0.000

   23  1 2s         1.39181   0.00000      0.000   0.000   0.000
   23  2 2s         0.12047   0.00000     -0.000  -0.000  -0.000
   23  3 2py        1.00818   0.00000      0.000  -0.000  -0.000
   23  4 2pz        1.52851   0.00000      0.000  -0.000  -0.000
   23  5 2px        1.06276   0.00000      0.000  -0.000  -0.000
   23  6 2py        0.21159   0.00000     -0.000   0.000   0.000
   23  7 2pz        0.00469   0.00000     -0.000  -0.000   0.000
   23  8 2px        0.19827   0.00000     -0.000  -0.000   0.000
   23  9 3Pdxy      0.00530   0.00000      0.000   0.000   0.000
   23 10 3Pdyz      0.00446   0.00000     -0.000  -0.000  -0.000
   23 11 3Pdz2      0.00070   0.00000     -0.000   0.000  -0.000
   23 12 3Pdxz      0.00245   0.00000      0.000  -0.000  -0.000
   23 13 3Pdx2-y2   0.00139   0.00000     -0.000   0.000  -0.000
   23     Total     5.54058   0.00000      0.000  -0.000  -0.000

----------------------------------------------------------------
Total              56.78306   0.00000      0.000   0.000  -0.000


Species: Si                  

Atom      Orb        Charge      Spin       Svec
----------------------------------------------------------------
    7  1 3s         0.66734   0.00000      0.000   0.000   0.000
    7  2 3s         0.36478   0.00000     -0.000  -0.000   0.000
    7  3 3py        0.48317   0.00000     -0.000  -0.000   0.000
    7  4 3pz        0.69522   0.00000      0.000   0.000  -0.000
    7  5 3px        0.12356   0.00000      0.000   0.000  -0.000
    7  6 3py        0.26773   0.00000      0.000  -0.000   0.000
    7  7 3pz        0.25924   0.00000     -0.000  -0.000   0.000
    7  8 3px        0.43887   0.00000     -0.000  -0.000   0.000
    7  9 3Pdxy      0.24551   0.00000      0.000   0.000   0.000
    7 10 3Pdyz      0.02904   0.00000     -0.000   0.000   0.000
    7 11 3Pdz2      0.01166   0.00000      0.000  -0.000   0.000
    7 12 3Pdxz      0.14562   0.00000      0.000   0.000  -0.000
    7 13 3Pdx2-y2   0.11293   0.00000     -0.000  -0.000  -0.000
    7     Total     3.84467   0.00000     -0.000   0.000   0.000

    8  1 3s         0.65615   0.00000      0.000   0.000   0.000
    8  2 3s         0.36859   0.00000     -0.000  -0.000   0.000
    8  3 3py        0.38928   0.00000      0.000  -0.000   0.000
    8  4 3pz        0.51920   0.00000     -0.000   0.000   0.000
    8  5 3px       -0.02888   0.00000      0.000  -0.000  -0.000
    8  6 3py        0.30829   0.00000     -0.000   0.000   0.000
    8  7 3pz        0.20303   0.00000     -0.000  -0.000   0.000
    8  8 3px        0.51480   0.00000     -0.000  -0.000   0.000
    8  9 3Pdxy      0.24679   0.00000      0.000   0.000   0.000
    8 10 3Pdyz      0.11226   0.00000     -0.000   0.000  -0.000
    8 11 3Pdz2      0.01423   0.00000     -0.000   0.000   0.000
    8 12 3Pdxz      0.15439   0.00000     -0.000   0.000   0.000
    8 13 3Pdx2-y2   0.20078   0.00000      0.000  -0.000   0.000
    8     Total     3.65892   0.00000     -0.000   0.000   0.000

    9  1 3s         0.60254   0.00000      0.000  -0.000   0.000
    9  2 3s         0.36786   0.00000     -0.000   0.000  -0.000
    9  3 3py        0.08198   0.00000      0.000  -0.000   0.000
    9  4 3pz        0.48414   0.00000      0.000  -0.000  -0.000
    9  5 3px        0.37651   0.00000     -0.000   0.000  -0.000
    9  6 3py        0.44042   0.00000     -0.000  -0.000   0.000
    9  7 3pz        0.18658   0.00000      0.000  -0.000   0.000
    9  8 3px        0.27533   0.00000     -0.000  -0.000   0.000
    9  9 3Pdxy      0.30831   0.00000     -0.000   0.000   0.000
    9 10 3Pdyz      0.19114   0.00000     -0.000  -0.000  -0.000
    9 11 3Pdz2      0.01553   0.00000     -0.000  -0.000   0.000
    9 12 3Pdxz      0.10010   0.00000     -0.000  -0.000  -0.000
    9 13 3Pdx2-y2   0.17376   0.00000      0.000  -0.000   0.000
    9     Total     3.60420   0.00000      0.000  -0.000   0.000

   10  1 3s         0.48046   0.00000     -0.000  -0.000   0.000
   10  2 3s         0.37868   0.00000      0.000   0.000   0.000
   10  3 3py        0.23936   0.00000      0.000  -0.000   0.000
   10  4 3pz        0.40736   0.00000      0.000   0.000   0.000
   10  5 3px        0.10087   0.00000     -0.000   0.000   0.000
   10  6 3py        0.32721   0.00000     -0.000   0.000   0.000
   10  7 3pz        0.22272   0.00000     -0.000  -0.000   0.000
   10  8 3px        0.43136   0.00000     -0.000  -0.000   0.000
   10  9 3Pdxy      0.16983   0.00000      0.000   0.000   0.000
   10 10 3Pdyz      0.13766   0.00000      0.000   0.000   0.000
   10 11 3Pdz2      0.01007   0.00000     -0.000  -0.000   0.000
   10 12 3Pdxz      0.17610   0.00000      0.000  -0.000   0.000
   10 13 3Pdx2-y2   0.30919   0.00000     -0.000  -0.000   0.000
   10     Total     3.39086   0.00000     -0.000  -0.000   0.000

   11  1 3s         0.55290   0.00000      0.000  -0.000   0.000
   11  2 3s         0.38511   0.00000      0.000   0.000   0.000
   11  3 3py        0.32251   0.00000     -0.000   0.000   0.000
   11  4 3pz        0.54186   0.00000      0.000  -0.000   0.000
   11  5 3px        0.12526   0.00000      0.000   0.000   0.000
   11  6 3py        0.28652   0.00000      0.000  -0.000   0.000
   11  7 3pz        0.17712   0.00000     -0.000  -0.000   0.000
   11  8 3px        0.44581   0.00000     -0.000  -0.000   0.000
   11  9 3Pdxy      0.22555   0.00000     -0.000   0.000   0.000
   11 10 3Pdyz      0.12658   0.00000     -0.000  -0.000   0.000
   11 11 3Pdz2      0.00960   0.00000     -0.000   0.000   0.000
   11 12 3Pdxz      0.05299   0.00000      0.000  -0.000   0.000
   11 13 3Pdx2-y2   0.20409   0.00000      0.000  -0.000   0.000
   11     Total     3.45590   0.00000      0.000  -0.000   0.000

   17  1 3s         0.63622   0.00000      0.000  -0.000   0.000
   17  2 3s         0.36172   0.00000     -0.000   0.000  -0.000
   17  3 3py        0.22306   0.00000      0.000  -0.000  -0.000
   17  4 3pz        0.41912   0.00000     -0.000   0.000   0.000
   17  5 3px        0.24362   0.00000     -0.000  -0.000   0.000
   17  6 3py        0.38664   0.00000     -0.000  -0.000   0.000
   17  7 3pz        0.21297   0.00000      0.000  -0.000   0.000
   17  8 3px        0.37207   0.00000     -0.000  -0.000  -0.000
   17  9 3Pdxy      0.29858   0.00000     -0.000  -0.000  -0.000
   17 10 3Pdyz      0.14155   0.00000      0.000   0.000   0.000
   17 11 3Pdz2      0.00880   0.00000      0.000  -0.000   0.000
   17 12 3Pdxz      0.14361   0.00000     -0.000   0.000   0.000
   17 13 3Pdx2-y2   0.16503   0.00000      0.000   0.000  -0.000
   17     Total     3.61300   0.00000      0.000  -0.000   0.000

   18  1 3s         0.74302   0.00000     -0.000   0.000   0.000
   18  2 3s         0.34084   0.00000      0.000  -0.000   0.000
   18  3 3py        0.07498   0.00000     -0.000   0.000   0.000
   18  4 3pz        0.81480   0.00000      0.000  -0.000   0.000
   18  5 3px        0.55493   0.00000     -0.000   0.000   0.000
   18  6 3py        0.52104   0.00000      0.000  -0.000   0.000
   18  7 3pz        0.19842   0.00000     -0.000   0.000   0.000
   18  8 3px        0.25151   0.00000      0.000  -0.000   0.000
   18  9 3Pdxy      0.10298   0.00000      0.000   0.000  -0.000
   18 10 3Pdyz      0.02763   0.00000      0.000  -0.000  -0.000
   18 11 3Pdz2      0.00860   0.00000     -0.000   0.000  -0.000
   18 12 3Pdxz      0.03061   0.00000     -0.000  -0.000  -0.000
   18 13 3Pdx2-y2   0.11181   0.00000     -0.000   0.000  -0.000
   18     Total     3.78118   0.00000     -0.000   0.000   0.000

   19  1 3s         0.46114   0.00000      0.000  -0.000   0.000
   19  2 3s         0.36445   0.00000     -0.000   0.000  -0.000
   19  3 3py        0.08667   0.00000     -0.000   0.000   0.000
   19  4 3pz        0.42694   0.00000     -0.000  -0.000   0.000
   19  5 3px        0.35052   0.00000     -0.000  -0.000   0.000
   19  6 3py        0.46551   0.00000      0.000  -0.000   0.000
   19  7 3pz        0.18292   0.00000      0.000  -0.000   0.000
   19  8 3px        0.24452   0.00000      0.000   0.000  -0.000
   19  9 3Pdxy      0.34100   0.00000     -0.000   0.000   0.000
   19 10 3Pdyz      0.18956   0.00000      0.000  -0.000   0.000
   19 11 3Pdz2      0.01542   0.00000     -0.000  -0.000  -0.000
   19 12 3Pdxz      0.09110   0.00000      0.000  -0.000   0.000
   19 13 3Pdx2-y2   0.24140   0.00000      0.000   0.000   0.000
   19     Total     3.46115   0.00000     -0.000  -0.000   0.000

   20  1 3s         0.67419   0.00000      0.000   0.000  -0.000
   20  2 3s         0.37758   0.00000     -0.000  -0.000  -0.000
   20  3 3py        0.33011   0.00000     -0.000   0.000  -0.000
   20  4 3pz        0.59565   0.00000     -0.000  -0.000  -0.000
   20  5 3px        0.13887   0.00000     -0.000  -0.000   0.000
   20  6 3py        0.29105   0.00000      0.000   0.000   0.000
   20  7 3pz        0.16348   0.00000     -0.000  -0.000  -0.000
   20  8 3px        0.49966   0.00000     -0.000  -0.000  -0.000
   20  9 3Pdxy      0.09979   0.00000     -0.000   0.000  -0.000
   20 10 3Pdyz      0.13278   0.00000     -0.000   0.000  -0.000
   20 11 3Pdz2      0.00740   0.00000     -0.000  -0.000   0.000
   20 12 3Pdxz      0.02681   0.00000      0.000   0.000  -0.000
   20 13 3Pdx2-y2   0.17308   0.00000     -0.000   0.000   0.000
   20     Total     3.51045   0.00000     -0.000  -0.000  -0.000

----------------------------------------------------------------
Total              89.10339   0.00000     -0.000  -0.000   0.000


Species: H                   

Atom      Orb        Charge      Spin       Svec
----------------------------------------------------------------
   12  1 1s         0.48984   0.00000     -0.000  -0.000  -0.000
   12  2 1s         0.18260   0.00000     -0.000  -0.000   0.000
   12  3 2Ppy       0.02923   0.00000     -0.000  -0.000   0.000
   12  4 2Ppz       0.03237   0.00000     -0.000  -0.000  -0.000
   12  5 2Ppx       0.02406   0.00000      0.000  -0.000   0.000
   12     Total     0.75810   0.00000     -0.000  -0.000   0.000

   13  1 1s         1.01966   0.00000     -0.000  -0.000  -0.000
   13  2 1s         0.09536   0.00000      0.000   0.000   0.000
   13  3 2Ppy       0.01807   0.00000     -0.000  -0.000  -0.000
   13  4 2Ppz       0.02014   0.00000      0.000  -0.000   0.000
   13  5 2Ppx       0.03507   0.00000     -0.000   0.000   0.000
   13     Total     1.18830   0.00000     -0.000  -0.000  -0.000

   14  1 1s         0.46392   0.00000      0.000  -0.000  -0.000
   14  2 1s         0.19960   0.00000     -0.000   0.000   0.000
   14  3 2Ppy       0.01830   0.00000     -0.000  -0.000   0.000
   14  4 2Ppz       0.04571   0.00000     -0.000   0.000  -0.000
   14  5 2Ppx       0.01745   0.00000     -0.000   0.000   0.000
   14     Total     0.74497   0.00000     -0.000   0.000   0.000

   15  1 1s         0.48261   0.00000      0.000   0.000   0.000
   15  2 1s         0.17947   0.00000     -0.000  -0.000   0.000
   15  3 2Ppy       0.00638   0.00000      0.000   0.000   0.000
   15  4 2Ppz       0.03844   0.00000      0.000   0.000  -0.000
   15  5 2Ppx       0.03502   0.00000     -0.000   0.000  -0.000
   15     Total     0.74192   0.00000      0.000   0.000   0.000

   16  1 1s         0.50926   0.00000      0.000   0.000   0.000
   16  2 1s         0.18739   0.00000      0.000  -0.000   0.000
   16  3 2Ppy       0.02977   0.00000     -0.000   0.000   0.000
   16  4 2Ppz       0.03974   0.00000     -0.000   0.000  -0.000
   16  5 2Ppx       0.02357   0.00000     -0.000  -0.000   0.000
   16     Total     0.78973   0.00000     -0.000   0.000   0.000

   24  1 1s         1.06249   0.00000      0.000  -0.000  -0.000
   24  2 1s         0.07424   0.00000     -0.000   0.000   0.000
   24  3 2Ppy       0.03225   0.00000     -0.000   0.000   0.000
   24  4 2Ppz       0.03048   0.00000      0.000   0.000   0.000
   24  5 2Ppx       0.01733   0.00000      0.000  -0.000  -0.000
   24     Total     1.21679   0.00000      0.000   0.000  -0.000

   25  1 1s         1.04287   0.00000      0.000   0.000  -0.000
   25  2 1s         0.08652   0.00000     -0.000   0.000  -0.000
   25  3 2Ppy       0.01225   0.00000      0.000  -0.000  -0.000
   25  4 2Ppz       0.01863   0.00000     -0.000  -0.000  -0.000
   25  5 2Ppx       0.03568   0.00000      0.000  -0.000   0.000
   25     Total     1.19596   0.00000      0.000  -0.000  -0.000

   26  1 1s         0.47579   0.00000      0.000   0.000  -0.000
   26  2 1s         0.19633   0.00000     -0.000  -0.000   0.000
   26  3 2Ppy       0.02145   0.00000      0.000  -0.000   0.000
   26  4 2Ppz       0.04824   0.00000     -0.000   0.000  -0.000
   26  5 2Ppx       0.01617   0.00000     -0.000   0.000  -0.000
   26     Total     0.75798   0.00000      0.000   0.000  -0.000

   27  1 1s         0.49481   0.00000      0.000   0.000   0.000
   27  2 1s         0.17033   0.00000     -0.000  -0.000   0.000
   27  3 2Ppy       0.00944   0.00000     -0.000   0.000  -0.000
   27  4 2Ppz       0.03389   0.00000     -0.000  -0.000   0.000
   27  5 2Ppx       0.03622   0.00000      0.000   0.000  -0.000
   27     Total     0.74468   0.00000      0.000   0.000   0.000

   29  1 1s         0.48635   0.00000      0.000   0.000   0.000
   29  2 1s         0.18741   0.00000      0.000  -0.000   0.000
   29  3 2Ppy       0.02509   0.00000     -0.000   0.000  -0.000
   29  4 2Ppz       0.03462   0.00000     -0.000  -0.000  -0.000
   29  5 2Ppx       0.02471   0.00000      0.000   0.000   0.000
   29     Total     0.75818   0.00000      0.000   0.000  -0.000

----------------------------------------------------------------
Total              98.00000   0.00000      0.000   0.000   0.000


siesta: Eigenvalues (eV):
ik =     1
  -22.0131  -22.0131  -21.7573  -21.7573  -21.5296  -21.5296  -21.4083  -21.4083  -21.2126  -21.2126
  -21.1295  -21.1295  -20.7043  -20.7043  -19.7334  -19.7334  -19.4578  -19.4578  -19.3515  -19.3515
  -14.7733  -14.7733  -13.8249  -13.8249  -13.3245  -13.3245  -13.1022  -13.1022  -13.0221  -13.0221
  -12.8265  -12.8265  -12.6445  -12.6445  -12.3059  -12.3059  -12.2699  -12.2699  -12.0175  -12.0175
  -11.3042  -11.3042  -10.8265  -10.8265  -10.6908  -10.6908  -10.6340  -10.6340  -10.1376  -10.1376
   -9.5817   -9.5817   -9.1634   -9.1634   -8.8494   -8.8494   -8.7178   -8.7178   -8.6651   -8.6651
   -8.5402   -8.5402   -8.4566   -8.4566   -8.1237   -8.1237   -7.8184   -7.8184   -7.7728   -7.7728
   -7.6627   -7.6627   -7.3453   -7.3453   -7.2180   -7.2180   -6.8310   -6.8310   -6.7605   -6.7605
   -6.6048   -6.6048   -6.4847   -6.4847   -6.1973   -6.1973   -6.1307   -6.1307   -6.0990   -6.0990
   -5.9946   -5.9946   -5.7480   -5.7480   -5.5180   -5.5180   -4.2974   -4.2974   -3.2602   -3.2602
   -2.3198   -2.3198   -2.3169   -2.3169   -2.2099   -2.2099   -1.8612   -1.8612   -1.8435   -1.8435
   -1.8075   -1.8075   -1.7867   -1.7867   -1.5930   -1.5930   -1.4152   -1.4152   -1.0809   -1.0809
   -0.9581   -0.9581   -0.7348   -0.7348   -0.3451   -0.3451   -0.2686   -0.2686    0.1250    0.1250
    0.4615    0.4615    0.4745    0.4745    0.6126    0.6126    0.7885    0.7885    0.9324    0.9324
    1.1377    1.1377    1.2385    1.2385    1.3717    1.3717    1.4173    1.4173    1.5524    1.5524
    1.7428    1.7428    1.8962    1.8962    2.0917    2.0917    2.4216    2.4216    2.7571    2.7571
    2.7611    2.7611    2.8246    2.8246    2.9187    2.9187    3.2994    3.2994    3.4290    3.4290
    3.5576    3.5576    3.8249    3.8249    3.9860    3.9860    4.0741    4.0741    4.3542    4.3542
    4.4770    4.4770    4.5708    4.5708    4.5939    4.5939    4.6488    4.6488    4.8233    4.8233
    4.9911    4.9911    5.0699    5.0699    5.2836    5.2836    5.5257    5.5257    5.6450    5.6450
    5.7841    5.7841    5.8804    5.8804    5.9954    5.9954    6.1757    6.1757    6.1986    6.1986
    6.3802    6.3802    6.3861    6.3861    6.5705    6.5705    6.7391    6.7391    6.9052    6.9052
    7.0138    7.0138    7.2330    7.2330    7.4748    7.4748    7.6613    7.6613    7.8059    7.8059
    7.9018    7.9018    8.0489    8.0489    8.0835    8.0835    8.3055    8.3055    8.5173    8.5173
    8.6444    8.6445    8.7643    8.7643    8.8397    8.8397    8.9496    8.9496    9.2848    9.2848
    9.2944    9.2944    9.4766    9.4766    9.8303    9.8303    9.8622    9.8622    9.9249    9.9249
   10.1065   10.1065   10.1777   10.1777   10.4915   10.4915   10.8882   10.8882   11.0505   11.0505
   11.1508   11.1508   11.2533   11.2533   11.4038   11.4038   11.8031   11.8031   11.8790   11.8790
   12.0034   12.0034   12.1164   12.1164   12.4742   12.4742   12.5133   12.5133   12.5747   12.5747
   12.7325   12.7325   12.7458   12.7458   13.5007   13.5007   13.5080   13.5080   13.6945   13.6945
   13.9350   13.9350   14.0606   14.0606   14.3531   14.3531   14.6724   14.6724   14.8790   14.8790
   14.9944   14.9944   15.3235   15.3235   16.0277   16.0277   16.5456   16.5456   16.6436   16.6436
   16.9870   16.9870   17.5239   17.5239   17.5885   17.5885   18.4906   18.4906   18.5803   18.5803
   18.7692   18.7692   19.0699   19.0699   19.5935   19.5935   20.0283   20.0283   20.2200   20.2200
   20.9624   20.9624   21.4511   21.4511   21.9188   21.9188   22.0670   22.0670   22.6211   22.6211
   23.2068   23.2068   23.5305   23.5305   23.8172   23.8172   24.0888   24.0888   24.1638   24.1638
   24.9673   24.9673   25.2526   25.2526   26.1861   26.1861   27.0108   27.0108   27.9685   27.9685
   28.7093   28.7093   29.0406   29.0406   29.1183   29.1183   29.5508   29.5508   29.8394   29.8394
   30.1458   30.1458   30.3234   30.3234   30.6783   30.6783   30.9542   30.9542   31.0782   31.0782
   31.0884   31.0884   31.3697   31.3697   31.6883   31.6883   32.4406   32.4406   32.6174   32.6174
   33.8353   33.8353   34.1439   34.1439   34.3599   34.3599   34.5188   34.5188   34.6403   34.6403
   35.0705   35.0705   35.2432   35.2432   35.3914   35.3914   35.6968   35.6968   36.1615   36.1615
   37.0113   37.0113   37.6294   37.6294   37.7211   37.7211   37.8336   37.8336   38.1324   38.1324
   38.7180   38.7180   39.1756   39.1756   39.4700   39.4700   39.8191   39.8191   40.2793   40.2793
   40.5242   40.5242   40.7318   40.7318   40.8456   40.8456   41.0573   41.0573   41.5570   41.5570
   42.3968   42.3968   42.6855   42.6855   43.0336   43.0336   43.0528   43.0528   43.6145   43.6145
   43.7424   43.7424   44.3269   44.3269   44.3631   44.3631   44.7320   44.7320   44.7910   44.7910
   44.9398   44.9398   45.2802   45.2802   45.6215   45.6215   46.1614   46.1614   46.4883   46.4883
   47.0766   47.0766   47.2870   47.2870   47.6834   47.6834   48.7689   48.7689   49.6463   49.6463
   49.8741   49.8741   50.2450   50.2450   50.7041   50.7041   50.7177   50.7177   51.1901   51.1901
   51.3072   51.3072   52.2928   52.2928   53.0171   53.0171   53.6897   53.6897   54.4708   54.4708
   54.8688   54.8688   54.9557   54.9557   55.6965   55.6965   55.8513   55.8513   56.6131   56.6131
   56.6287   56.6287   57.1278   57.1278   57.2619   57.2619   58.5989   58.5989   59.5051   59.5051
   60.1370   60.1370   60.6916   60.6916   60.8457   60.8457   61.4244   61.4244   61.9364   61.9364
   62.6163   62.6163   62.7445   62.7445   63.3803   63.3803   64.7676   64.7676   66.6337   66.6337
   67.3204   67.3204   67.7135   67.7135   68.2623   68.2623   69.5483   69.5483   70.9225   70.9225
   74.4579   74.4579   82.3519   82.3519   91.3975   91.3975   92.0032   92.0032   93.6737   93.6737
   98.6436   98.6436   99.4713   99.4713  100.9701  100.9701  103.5677  103.5677  104.5634  104.5634
  110.9960  110.9960  113.1185  113.1185  123.8779  123.8779  125.9645  125.9645  131.3242  131.3242
  135.9036  135.9036  139.1412  139.1412
siesta: Fermi energy =      -3.778680 eV

siesta: Program's energy decomposition (eV):
siesta: Ebs     =     -1133.165624
siesta: Eions   =      3585.165840
siesta: Ena     =       382.001364
siesta: Ekin    =      2903.417210
siesta: Enl     =     -2788.656885
siesta: Eso     =        -0.004280
siesta: Edftu   =         0.000000
siesta: DEna    =        47.245664
siesta: DUscf   =        14.144450
siesta: DUext   =         0.000000
siesta: Exc     =     -1119.942512
siesta: eta*DQ  =         0.000000
siesta: Emadel  =         0.000000
siesta: Emeta   =         0.000000
siesta: Emolmec =         0.000000
siesta: Ekinion =         0.000000
siesta: Eharris =     -4146.960828
siesta: Etot    =     -4146.960828
siesta: FreeEng =     -4146.960828

siesta: Final energy (eV):
siesta:  Band Struct. =   -1133.165624
siesta:       Kinetic =    2903.417210
siesta:       Hartree =    8502.738263
siesta:       Edftu   =       0.000000
siesta:       Eso     =      -0.004280
siesta:    Ext. field =       0.000000
siesta:   Exch.-corr. =   -1119.942512
siesta:  Ion-electron =  -19588.249781
siesta:       Ion-ion =    5155.080272
siesta:       Ekinion =       0.000000
siesta:         Total =   -4146.960828
siesta:         Fermi =      -3.778680

siesta: Atomic forces (eV/Ang):
siesta:      1   -1.716801    1.060897    0.000000
siesta:      2   -0.029445    0.026778   -0.000000
siesta:      3    0.627587   -0.276056    0.000000
siesta:      4    0.580906   -0.011807   -0.000000
siesta:      5    0.046314   -0.067763    0.000000
siesta:      6    1.627186    0.665843   -0.000000
siesta:      7    0.036166   -0.209204   -0.000000
siesta:      8   -0.323579    0.230393   -0.000000
siesta:      9   -0.108995    1.033358   -0.000000
siesta:     10   -0.780141    0.318416    0.000000
siesta:     11   -0.017033   -0.016773    0.000000
siesta:     12   -0.298938   -0.202391   -0.000000
siesta:     13    0.053488   -0.030107   -0.000000
siesta:     14    0.181383   -0.058557    0.000000
siesta:     15   -1.160653   -0.725061   -0.000000
siesta:     16   -0.010826    0.098045    0.000000
siesta:     17    0.788418   -0.925757    0.000000
siesta:     18   -0.176032    0.163154   -0.000000
siesta:     19   -0.177262   -0.968674    0.000000
siesta:     20   -0.020003   -0.333768   -0.000000
siesta:     21   -0.243471    0.810963   -0.000000
siesta:     22   -2.025708   -0.884765    0.000000
siesta:     23    0.203208    0.416597    0.000000
siesta:     24    0.049216    0.003084    0.000000
siesta:     25    0.094897   -0.004918   -0.000000
siesta:     26   -0.173279   -0.154288   -0.000000
siesta:     27    1.400638    1.233641   -0.000000
siesta:     28   -1.588642    1.347346   -0.000000
siesta:     29   -0.061464    0.105196    0.000000
siesta: ----------------------------------------
siesta:    Tot   -3.222866    2.643823    0.000000

siesta: Stress tensor (static) (eV/Ang**3):
siesta:     0.000234    0.001004    0.000000
siesta:     0.001004    0.001036   -0.000000
siesta:    -0.000000    0.000000   -0.000063

siesta: Cell volume =       4839.262334 Ang**3

siesta: Pressure (static):
siesta:                Solid            Molecule  Units
siesta:          -0.00000438          0.00000020  Ry/Bohr**3
siesta:          -0.00040259          0.00001864  eV/Ang**3
siesta:          -0.64502571          0.02987094  kBar
(Free)E+ p_basis*V_orbitals  =       -4127.110410
(Free)Eharris+ p_basis*V_orbitals  =       -4127.110410
     spin moment: S , {S} =    0.00000   0.00000   0.00000   0.00000

siesta: Electric dipole (a.u.)  =    1.635410    0.111855    0.000000
siesta: Electric dipole (Debye) =    4.156800    0.284308    0.000000

cite: Please see "GC.bib" for an exhaustive BiBTeX file.
cite: Please clearly indicate Siesta version in published work: v4.1.5-1-g384057250
cite: This calculation has made use of the following articles
cite: which are encouraged to be cited in a published work.
        Primary SIESTA paper
          DOI: www.doi.org/10.1088/0953-8984/14/11/302
        Spin-orbit coupling (on-site approximation)
          DOI: www.doi.org/10.1088/0953-8984/19/19/489001


WARNING: alloc-realloc-dealloc name mismatch
         Name: atomlist isa
         Size:              -116. Bytes
         Node:     0
         Subsequent mismatches will not be reported
>> End of run:  28-JUN-2023  15:24:35
Job completed
