Siesta Version  : v4.1.5-1-g384057250
Architecture    : gcc
Compiler version: GNU Fortran (Debian 10.2.1-6) 10.2.1 20210110
Compiler flags  : mpifort -O2 -fPIC -ftree-vectorize -fallow-argument-mismatch
PP flags        : -DFC_HAVE_ABORT -DMPI -DSIESTA__FLOOK -DSIESTA__METIS -DSIESTA__MUMPS -DCDF -DNCDF -DNCDF_4 -DNCDF_PARALLEL -DSIESTA__MRRR -DSIESTA__ELPA
Libraries       : libncdf.a libfdict.a  -lflookall -ldl -lnetcdff -lnetcdf -lhdf5_hl -lhdf5 -lhdf5_fortran -lz -lscalapack-openmpi -lopenblas -lmetis -lzmumps -lcmumps -ldmumps -lmumps_common -lpord -lsmumps -lesmumps -lscotch -lscotcherr -fopenmp -lelpa
PARALLEL version
NetCDF support
NetCDF-4 support
NetCDF-4 MPI-IO support
METIS ordering support
Lua support

* Running on 6 nodes in parallel
>> Start of run:  22-MAY-2023  10:38:56

                           ***********************       
                           *  WELCOME TO SIESTA  *       
                           ***********************       

reinit: Reading from standard input
reinit: Dumped input in INPUT_TMP.39363
************************** Dump of input data file ****************************
SystemLabel      AT
NumberOfAtoms    30
NumberOfSpecies  4
%block ChemicalSpeciesLabel
    1    1  H
    2    7  N
    3   14  Si
    4    8  O
%endblock ChemicalSpeciesLabel
# Single point calculation
MD.TypeOfRun                CG
MD.Steps                    0
SCF.MustConverge            F # In case it does not. There can be 2 very close atoms
AtomicCoordinatesFormat NotScaledCartesianAng
%block AtomicCoordinatesAndAtomicSpecies
2.582377650    -5.776830440   0.000000000       1
1.654759240    -5.269361980   0.000000000       2
0.063128840    -6.101704590   0.000000000       3
0.119223240    -7.596849500   0.000000000       1
-1.376892050   -5.182603740   0.000000000       2
-0.824371900   -3.460866440   0.000000000       3
-1.170571480   -1.270002100   0.000000000       3
-2.706933680   -0.417515780   0.000000000       2
-2.754569660   0.634858620    0.000000000       1
-3.637675640   -0.909967860   0.000000000       1
0.218091790    -0.234193970   0.000000000       2
1.872004100    -0.697162300   0.000000000       3
2.828001130    0.461464770    0.000000000       1
2.648150080    -2.255024470   0.000000000       2
1.391921380    -3.454727220   0.000000000       3
1.833258071    8.631640399    0.000000000       2
0.505886551    9.841844699    0.000000000       3
1.145887821    11.203162939   0.000000000       1
-1.579859389   9.171313349    0.000000000       3
-3.609421989   10.301429539   0.000000000       3
-3.455186219   11.461659749   0.940305280       1
-4.595356709   9.279508919    0.512613700       1
-4.025636949   10.777655389   -1.366678340      1
-1.513363969   6.897336729    0.000000000       3
-2.552412699   5.704277229    0.000000000       4
0.143627611    6.263361539    0.000000000       2
0.125610241    5.200916709    0.000000000       1
1.767230681    6.860431749    0.000000000       3
2.962246851    5.846006549    0.000000000       4
2.833295441    8.977147499    0.000000000       1
%endblock AtomicCoordinatesAndAtomicSpecies
%include ../../../Defaults.fdf
************************** End of input data file *****************************

reinit: -----------------------------------------------------------------------
reinit: System Name: 
reinit: -----------------------------------------------------------------------
reinit: System Label: AT
reinit: -----------------------------------------------------------------------

initatom: Reading input for the pseudopotentials and atomic orbitals ----------
Species number:   1 Atomic number:    1 Label: H
Species number:   2 Atomic number:    7 Label: N
Species number:   3 Atomic number:   14 Label: Si
Species number:   4 Atomic number:    8 Label: O

Ground state valence configuration:   1s01
Reading pseudopotential information in formatted form from H.psf

Pseudopotential generated from a relativistic atomic calculation

Valence configuration for pseudopotential generation:
1s( 1.00) rc: 0.01
2p( 0.00) rc: 0.60
3d( 0.00) rc: 1.99
4f( 0.00) rc: 2.49
Ground state valence configuration:   2s02  2p03
Reading pseudopotential information in formatted form from N.psf

Pseudopotential generated from a relativistic atomic calculation

Valence configuration for pseudopotential generation:
2s( 2.00) rc: 0.94
2p( 3.00) rc: 0.59
3d( 0.00) rc: 3.46
4f( 0.00) rc: 2.47
Ground state valence configuration:   3s02  3p02
Reading pseudopotential information in formatted form from Si.psf

Pseudopotential generated from a relativistic atomic calculation

Valence configuration for pseudopotential generation:
3s( 2.00) rc: 1.67
3p( 2.00) rc: 2.04
3d( 0.00) rc: 2.89
4f( 0.00) rc: 2.49
Ground state valence configuration:   2s02  2p04
Reading pseudopotential information in formatted form from O.psf

Pseudopotential generated from a relativistic atomic calculation

Valence configuration for pseudopotential generation:
2s( 2.00) rc: 0.45
2p( 4.00) rc: 0.92
3d( 0.00) rc: 2.24
4f( 0.00) rc: 0.25
For H, standard SIESTA heuristics set lmxkb to 2
 (one more than the basis l, including polarization orbitals).
Use PS.lmax or PS.KBprojectors blocks to override.
For N, standard SIESTA heuristics set lmxkb to 3
 (one more than the basis l, including polarization orbitals).
Use PS.lmax or PS.KBprojectors blocks to override.
For Si, standard SIESTA heuristics set lmxkb to 3
 (one more than the basis l, including polarization orbitals).
Use PS.lmax or PS.KBprojectors blocks to override.
For O, standard SIESTA heuristics set lmxkb to 3
 (one more than the basis l, including polarization orbitals).
Use PS.lmax or PS.KBprojectors blocks to override.

<basis_specs>
===============================================================================
H                    Z=   1    Mass=  1.0100        Charge= 0.17977+309
Lmxo=0 Lmxkb= 2    BasisType=split      Semic=F
L=0  Nsemic=0  Cnfigmx=1
          i=1  nzeta=2  polorb=1  (1s)
            splnorm:   0.62000    
               vcte:    0.0000    
               rinn:    0.0000    
               qcoe:    0.0000    
               qyuk:    0.0000    
               qwid:   0.10000E-01
                rcs:    0.0000      0.0000    
            lambdas:    1.0000      1.0000    
-------------------------------------------------------------------------------
L=0  Nkbl=1  erefs: 0.17977+309
L=1  Nkbl=1  erefs: 0.17977+309
L=2  Nkbl=1  erefs: 0.17977+309
===============================================================================
</basis_specs>

atom: Called for H                     (Z =   1)

read_vps: Pseudopotential generation method:
read_vps: ATM4.2.7  Troullier-Martins                       
Valence charge for ps generation:    1.00000

xc_check: Exchange-correlation functional:
xc_check: GGA Perdew, Burke & Ernzerhof 1996
V l=0 = -2*Zval/r beyond r=  0.0098
V l=1 = -2*Zval/r beyond r=  0.5817
V l=2 = -2*Zval/r beyond r=  1.9372
All V_l potentials equal beyond r=  1.9372
This should be close to max(r_c) in ps generation
All pots = -2*Zval/r beyond r=  1.9372

VLOCAL1: 99.0% of the norm of Vloc inside     11.567 Ry
VLOCAL1: 99.9% of the norm of Vloc inside     26.362 Ry
atom: Maximum radius for 4*pi*r*r*local-pseudopot. charge    2.25106
atom: Maximum radius for r*vlocal+2*Zval:    1.91306
GHOST: No ghost state for L =  0
GHOST: No ghost state for L =  1
GHOST: No ghost state for L =  2

KBgen: Kleinman-Bylander projectors: 
   l= 0   rc=  2.036604   el= -0.477180   Ekb= -6.081590   kbcos= -0.277285
   l= 1   rc=  2.195416   el=  0.001076   Ekb= -0.926943   kbcos= -0.034643
   l= 2   rc=  2.251056   el=  0.002010   Ekb= -0.130941   kbcos= -0.009788

KBgen: Total number of Kleinman-Bylander projectors:    9
atom: -------------------------------------------------------------------------

atom: SANKEY-TYPE ORBITALS:
atom: Selected multiple-zeta basis: split     

SPLIT: Orbitals with angular momentum L= 0

SPLIT: Basis orbitals for state 1s

SPLIT: PAO cut-off radius determined from an
SPLIT: energy shift=  0.002000 Ry

   izeta = 1
                 lambda =    1.000000
                     rc =    6.518340
                 energy =   -0.475305
                kinetic =    0.912139
    potential(screened) =   -1.387444
       potential(ionic) =   -1.907295

   izeta = 2
                 rmatch =    2.141150
              splitnorm =    0.620000
                 energy =    0.566467
                kinetic =    3.772856
    potential(screened) =   -3.206389
       potential(ionic) =   -3.759093

POLgen: Perturbative polarization orbital with L=  1

POLgen: Polarization orbital for state 1s

   izeta = 1
                     rc =    6.518340
                 energy =    0.533861
                kinetic =    1.121086
    potential(screened) =   -0.587225
       potential(ionic) =   -1.053027
atom: Total number of Sankey-type orbitals:  5

atm_pop: Valence configuration (for local Pseudopot. screening):
 1s( 1.00)                                                            
Vna: chval, zval:    1.00000   1.00000

Vna:  Cut-off radius for the neutral-atom potential:   6.518340

atom: _________________________________________________________________________

<basis_specs>
===============================================================================
N                    Z=   7    Mass=  14.010        Charge= 0.17977+309
Lmxo=1 Lmxkb= 3    BasisType=split      Semic=F
L=0  Nsemic=0  Cnfigmx=2
          i=1  nzeta=2  polorb=0  (2s)
            splnorm:   0.28000    
               vcte:    0.0000    
               rinn:    0.0000    
               qcoe:    0.0000    
               qyuk:    0.0000    
               qwid:   0.10000E-01
                rcs:    0.0000      0.0000    
            lambdas:    1.0000      1.0000    
L=1  Nsemic=0  Cnfigmx=2
          i=1  nzeta=2  polorb=1  (2p)
            splnorm:   0.28000    
               vcte:    0.0000    
               rinn:    0.0000    
               qcoe:    0.0000    
               qyuk:    0.0000    
               qwid:   0.10000E-01
                rcs:    0.0000      0.0000    
            lambdas:    1.0000      1.0000    
-------------------------------------------------------------------------------
L=0  Nkbl=1  erefs: 0.17977+309
L=1  Nkbl=1  erefs: 0.17977+309
L=2  Nkbl=1  erefs: 0.17977+309
L=3  Nkbl=1  erefs: 0.17977+309
===============================================================================
</basis_specs>

atom: Called for N                     (Z =   7)

read_vps: Pseudopotential generation method:
read_vps: ATM4.2.7  Troullier-Martins                       
Valence charge for ps generation:    5.00000

xc_check: Exchange-correlation functional:
xc_check: GGA Perdew, Burke & Ernzerhof 1996
V l=0 = -2*Zval/r beyond r=  1.2889
V l=1 = -2*Zval/r beyond r=  1.2889
V l=2 = -2*Zval/r beyond r=  3.4178
V l=3 = -2*Zval/r beyond r=  2.4084
All V_l potentials equal beyond r=  3.3753
This should be close to max(r_c) in ps generation
All pots = -2*Zval/r beyond r=  3.4178

VLOCAL1: 99.0% of the norm of Vloc inside      3.810 Ry
VLOCAL1: 99.9% of the norm of Vloc inside      8.683 Ry
atom: Maximum radius for 4*pi*r*r*local-pseudopot. charge    4.02088
atom: Maximum radius for r*vlocal+2*Zval:    3.54838
GHOST: No ghost state for L =  0
GHOST: No ghost state for L =  1
GHOST: No ghost state for L =  2
GHOST: No ghost state for L =  3

KBgen: Kleinman-Bylander projectors: 
   l= 0   rc=  3.417763   el= -1.365098   Ekb= -4.433130   kbcos= -0.707855
   l= 1   rc=  3.375302   el= -0.521201   Ekb=-13.264039   kbcos= -0.535594
   l= 2   rc=  3.872880   el=  0.001991   Ekb= -0.641094   kbcos= -0.062456
   l= 3   rc=  3.970931   el=  0.003093   Ekb= -0.474517   kbcos= -0.018236

KBgen: Total number of Kleinman-Bylander projectors:   16
atom: -------------------------------------------------------------------------

atom: SANKEY-TYPE ORBITALS:
atom: Selected multiple-zeta basis: split     

SPLIT: Orbitals with angular momentum L= 0

SPLIT: Basis orbitals for state 2s

SPLIT: PAO cut-off radius determined from an
SPLIT: energy shift=  0.002000 Ry

   izeta = 1
                 lambda =    1.000000
                     rc =    4.730425
                 energy =   -1.363399
                kinetic =    1.245246
    potential(screened) =   -2.608645
       potential(ionic) =   -8.121105

   izeta = 2
                 rmatch =    2.531849
              splitnorm =    0.280000
                 energy =   -0.959908
                kinetic =    2.409435
    potential(screened) =   -3.369343
       potential(ionic) =   -9.427975

SPLIT: Orbitals with angular momentum L= 1

SPLIT: Basis orbitals for state 2p

SPLIT: PAO cut-off radius determined from an
SPLIT: energy shift=  0.002000 Ry

   izeta = 1
                 lambda =    1.000000
                     rc =    5.924108
                 energy =   -0.519262
                kinetic =    3.672940
    potential(screened) =   -4.192202
       potential(ionic) =   -9.518354

   izeta = 2
                 rmatch =    2.531849
              splitnorm =    0.280000
                 energy =   -0.104258
                kinetic =    6.807538
    potential(screened) =   -6.911796
       potential(ionic) =  -13.149920

POLgen: Perturbative polarization orbital with L=  2

POLgen: Polarization orbital for state 2p

   izeta = 1
                     rc =    5.924108
                 energy =    1.427508
                kinetic =    2.872379
    potential(screened) =   -1.444871
       potential(ionic) =   -5.563644
atom: Total number of Sankey-type orbitals: 13

atm_pop: Valence configuration (for local Pseudopot. screening):
 2s( 2.00)                                                            
 2p( 3.00)                                                            
Vna: chval, zval:    5.00000   5.00000

Vna:  Cut-off radius for the neutral-atom potential:   5.924108

atom: _________________________________________________________________________

<basis_specs>
===============================================================================
Si                   Z=  14    Mass=  28.090        Charge= 0.17977+309
Lmxo=1 Lmxkb= 3    BasisType=split      Semic=F
L=0  Nsemic=0  Cnfigmx=3
          i=1  nzeta=2  polorb=0  (3s)
            splnorm:   0.28000    
               vcte:    0.0000    
               rinn:    0.0000    
               qcoe:    0.0000    
               qyuk:    0.0000    
               qwid:   0.10000E-01
                rcs:    0.0000      0.0000    
            lambdas:    1.0000      1.0000    
L=1  Nsemic=0  Cnfigmx=3
          i=1  nzeta=2  polorb=1  (3p)
            splnorm:   0.28000    
               vcte:    0.0000    
               rinn:    0.0000    
               qcoe:    0.0000    
               qyuk:    0.0000    
               qwid:   0.10000E-01
                rcs:    0.0000      0.0000    
            lambdas:    1.0000      1.0000    
-------------------------------------------------------------------------------
L=0  Nkbl=1  erefs: 0.17977+309
L=1  Nkbl=1  erefs: 0.17977+309
L=2  Nkbl=1  erefs: 0.17977+309
L=3  Nkbl=1  erefs: 0.17977+309
===============================================================================
</basis_specs>

atom: Called for Si                    (Z =  14)

read_vps: Pseudopotential generation method:
read_vps: ATM4.2.7  Troullier-Martins                       
Valence charge for ps generation:    4.00000

xc_check: Exchange-correlation functional:
xc_check: GGA Perdew, Burke & Ernzerhof 1996
V l=0 = -2*Zval/r beyond r=  2.7826
V l=1 = -2*Zval/r beyond r=  2.7826
V l=2 = -2*Zval/r beyond r=  2.9253
V l=3 = -2*Zval/r beyond r=  2.7826
All V_l potentials equal beyond r=  2.8530
This should be close to max(r_c) in ps generation
All pots = -2*Zval/r beyond r=  2.9253

VLOCAL1: 99.0% of the norm of Vloc inside      5.333 Ry
VLOCAL1: 99.9% of the norm of Vloc inside     12.154 Ry
atom: Maximum radius for 4*pi*r*r*local-pseudopot. charge    3.39869
atom: Maximum radius for r*vlocal+2*Zval:    2.96205
GHOST: No ghost state for L =  0
GHOST: No ghost state for L =  1
GHOST: No ghost state for L =  2
GHOST: No ghost state for L =  3

KBgen: Kleinman-Bylander projectors: 
   l= 0   rc=  3.075247   el= -0.794092   Ekb=  5.879390   kbcos=  0.167461
   l= 1   rc=  3.153101   el= -0.300068   Ekb=  2.642817   kbcos=  0.058301
   l= 2   rc=  3.273594   el=  0.001958   Ekb= -1.185135   kbcos= -0.104411
   l= 3   rc=  3.232927   el=  0.003046   Ekb= -0.497174   kbcos= -0.015889

KBgen: Total number of Kleinman-Bylander projectors:   16
atom: -------------------------------------------------------------------------

atom: SANKEY-TYPE ORBITALS:
atom: Selected multiple-zeta basis: split     

SPLIT: Orbitals with angular momentum L= 0

SPLIT: Basis orbitals for state 3s

SPLIT: PAO cut-off radius determined from an
SPLIT: energy shift=  0.002000 Ry

   izeta = 1
                 lambda =    1.000000
                     rc =    6.429618
                 energy =   -0.792283
                kinetic =    0.525293
    potential(screened) =   -1.317576
       potential(ionic) =   -3.744923

   izeta = 2
                 rmatch =    3.998416
              splitnorm =    0.280000
                 energy =   -0.583081
                kinetic =    1.069570
    potential(screened) =   -1.652651
       potential(ionic) =   -4.235185

SPLIT: Orbitals with angular momentum L= 1

SPLIT: Basis orbitals for state 3p

SPLIT: PAO cut-off radius determined from an
SPLIT: energy shift=  0.002000 Ry

   izeta = 1
                 lambda =    1.000000
                     rc =    8.464845
                 energy =   -0.298236
                kinetic =    0.785360
    potential(screened) =   -1.083596
       potential(ionic) =   -3.273779

   izeta = 2
                 rmatch =    4.587816
              splitnorm =    0.280000
                 energy =   -0.131871
                kinetic =    1.403687
    potential(screened) =   -1.535557
       potential(ionic) =   -4.015310

POLgen: Perturbative polarization orbital with L=  2

POLgen: Polarization orbital for state 3p

   izeta = 1
                     rc =    8.464845
                 energy =    0.321949
                kinetic =    1.055677
    potential(screened) =   -0.733728
       potential(ionic) =   -2.672950
atom: Total number of Sankey-type orbitals: 13

atm_pop: Valence configuration (for local Pseudopot. screening):
 3s( 2.00)                                                            
 3p( 2.00)                                                            
Vna: chval, zval:    4.00000   4.00000

Vna:  Cut-off radius for the neutral-atom potential:   8.464845

atom: _________________________________________________________________________

<basis_specs>
===============================================================================
O                    Z=   8    Mass=  16.000        Charge= 0.17977+309
Lmxo=1 Lmxkb= 3    BasisType=split      Semic=F
L=0  Nsemic=0  Cnfigmx=2
          i=1  nzeta=2  polorb=0  (2s)
            splnorm:   0.28000    
               vcte:    0.0000    
               rinn:    0.0000    
               qcoe:    0.0000    
               qyuk:    0.0000    
               qwid:   0.10000E-01
                rcs:    0.0000      0.0000    
            lambdas:    1.0000      1.0000    
L=1  Nsemic=0  Cnfigmx=2
          i=1  nzeta=2  polorb=1  (2p)
            splnorm:   0.28000    
               vcte:    0.0000    
               rinn:    0.0000    
               qcoe:    0.0000    
               qyuk:    0.0000    
               qwid:   0.10000E-01
                rcs:    0.0000      0.0000    
            lambdas:    1.0000      1.0000    
-------------------------------------------------------------------------------
L=0  Nkbl=1  erefs: 0.17977+309
L=1  Nkbl=1  erefs: 0.17977+309
L=2  Nkbl=1  erefs: 0.17977+309
L=3  Nkbl=1  erefs: 0.17977+309
===============================================================================
</basis_specs>

atom: Called for O                     (Z =   8)

read_vps: Pseudopotential generation method:
read_vps: ATM4.2.7  Troullier-Martins                       
Valence charge for ps generation:    6.00000

xc_check: Exchange-correlation functional:
xc_check: GGA Perdew, Burke & Ernzerhof 1996
V l=0 = -2*Zval/r beyond r=  1.1000
V l=1 = -2*Zval/r beyond r=  1.1000
V l=2 = -2*Zval/r beyond r=  2.2154
V l=3 = -2*Zval/r beyond r=  1.1000
All V_l potentials equal beyond r=  2.2154
This should be close to max(r_c) in ps generation
All pots = -2*Zval/r beyond r=  2.2154

VLOCAL1: 99.0% of the norm of Vloc inside      8.845 Ry
VLOCAL1: 99.9% of the norm of Vloc inside     20.157 Ry
atom: Maximum radius for 4*pi*r*r*local-pseudopot. charge    2.67231
atom: Maximum radius for r*vlocal+2*Zval:    2.32897
GHOST: No ghost state for L =  0
GHOST: No ghost state for L =  1
GHOST: No ghost state for L =  2
GHOST: No ghost state for L =  3

KBgen: Kleinman-Bylander projectors: 
   l= 0   rc=  2.243238   el= -1.759686   Ekb=**********   kbcos= -0.171774
   l= 1   rc=  2.328968   el= -0.663873   Ekb=-14.506792   kbcos= -0.519897
   l= 2   rc=  2.573941   el=  0.002031   Ekb= -1.137373   kbcos= -0.019581
   l= 3   rc=  2.606321   el=  0.003153   Ekb= -1.013546   kbcos= -0.003122

KBgen: Total number of Kleinman-Bylander projectors:   16
atom: -------------------------------------------------------------------------

atom: SANKEY-TYPE ORBITALS:
atom: Selected multiple-zeta basis: split     

SPLIT: Orbitals with angular momentum L= 0

SPLIT: Basis orbitals for state 2s

SPLIT: PAO cut-off radius determined from an
SPLIT: energy shift=  0.002000 Ry

   izeta = 1
                 lambda =    1.000000
                     rc =    4.243912
                 energy =   -1.758270
                kinetic =    3.286084
    potential(screened) =   -5.044353
       potential(ionic) =  -12.921184

   izeta = 2
                 rmatch =    2.187845
              splitnorm =    0.280000
                 energy =   -0.885018
                kinetic =    8.134434
    potential(screened) =   -9.019452
       potential(ionic) =  -17.710645

SPLIT: Orbitals with angular momentum L= 1

SPLIT: Basis orbitals for state 2p

SPLIT: PAO cut-off radius determined from an
SPLIT: energy shift=  0.002000 Ry

   izeta = 1
                 lambda =    1.000000
                     rc =    5.314825
                 energy =   -0.661986
                kinetic =    4.917472
    potential(screened) =   -5.579458
       potential(ionic) =  -13.236259

   izeta = 2
                 rmatch =    2.160663
              splitnorm =    0.280000
                 energy =   -0.068760
                kinetic =    9.183374
    potential(screened) =   -9.252135
       potential(ionic) =  -18.274251

POLgen: Perturbative polarization orbital with L=  2

POLgen: Polarization orbital for state 2p

   izeta = 1
                     rc =    5.314825
                 energy =    1.970580
                kinetic =    3.886128
    potential(screened) =   -1.915547
       potential(ionic) =   -7.749584
atom: Total number of Sankey-type orbitals: 13

atm_pop: Valence configuration (for local Pseudopot. screening):
 2s( 2.00)                                                            
 2p( 4.00)                                                            
Vna: chval, zval:    6.00000   6.00000

Vna:  Cut-off radius for the neutral-atom potential:   5.314825

atom: _________________________________________________________________________

prinput: Basis input ----------------------------------------------------------

PAO.BasisType split     

%block ChemicalSpeciesLabel
    1    1 H                       # Species index, atomic number, species label
    2    7 N                       # Species index, atomic number, species label
    3   14 Si                      # Species index, atomic number, species label
    4    8 O                       # Species index, atomic number, species label
%endblock ChemicalSpeciesLabel

%block PAO.Basis                 # Define Basis set
H                     1                    # Species label, number of l-shells
 n=1   0   2 P   1                   # n, l, Nzeta, Polarization, NzetaPol
   6.518      2.141   
   1.000      1.000   
N                     2                    # Species label, number of l-shells
 n=2   0   2                         # n, l, Nzeta 
   4.730      2.532   
   1.000      1.000   
 n=2   1   2 P   1                   # n, l, Nzeta, Polarization, NzetaPol
   5.924      2.532   
   1.000      1.000   
Si                    2                    # Species label, number of l-shells
 n=3   0   2                         # n, l, Nzeta 
   6.430      3.998   
   1.000      1.000   
 n=3   1   2 P   1                   # n, l, Nzeta, Polarization, NzetaPol
   8.465      4.588   
   1.000      1.000   
O                     2                    # Species label, number of l-shells
 n=2   0   2                         # n, l, Nzeta 
   4.244      2.188   
   1.000      1.000   
 n=2   1   2 P   1                   # n, l, Nzeta, Polarization, NzetaPol
   5.315      2.161   
   1.000      1.000   
%endblock PAO.Basis

prinput: ----------------------------------------------------------------------

Dumping basis to NetCDF file H.ion.nc
Dumping basis to NetCDF file N.ion.nc
Dumping basis to NetCDF file Si.ion.nc
Dumping basis to NetCDF file O.ion.nc
coor:   Atomic-coordinates input format  =     Cartesian coordinates
coor:                                          (in Angstroms)

siesta: Atomic coordinates (Bohr) and species
siesta:      4.87999 -10.91663   0.00000  1        1
siesta:      3.12704  -9.95765   0.00000  2        2
siesta:      0.11930 -11.53056   0.00000  3        3
siesta:      0.22530 -14.35597   0.00000  1        4
siesta:     -2.60195  -9.79371   0.00000  2        5
siesta:     -1.55784  -6.54009   0.00000  3        6
siesta:     -2.21206  -2.39996   0.00000  3        7
siesta:     -5.11537  -0.78899   0.00000  2        8
siesta:     -5.20538   1.19971   0.00000  1        9
siesta:     -6.87421  -1.71959   0.00000  1       10
siesta:      0.41213  -0.44256   0.00000  2       11
siesta:      3.53758  -1.31745   0.00000  3       12
siesta:      5.34415   0.87204   0.00000  1       13
siesta:      5.00428  -4.26138   0.00000  2       14
siesta:      2.63035  -6.52849   0.00000  3       15
siesta:      3.46436  16.31144   0.00000  2       16
siesta:      0.95599  18.59840   0.00000  3       17
siesta:      2.16542  21.17092   0.00000  1       18
siesta:     -2.98550  17.33128   0.00000  3       19
siesta:     -6.82082  19.46689   0.00000  3       20
siesta:     -6.52936  21.65941   1.77692  1       21
siesta:     -8.68397  17.53574   0.96870  1       22
siesta:     -7.60735  20.36683  -2.58265  1       23
siesta:     -2.85984  13.03408   0.00000  3       24
siesta:     -4.82336  10.77953   0.00000  4       25
siesta:      0.27142  11.83604   0.00000  2       26
siesta:      0.23737   9.82831   0.00000  1       27
siesta:      3.33958  12.96434   0.00000  3       28
siesta:      5.59784  11.04736   0.00000  4       29
siesta:      5.35415  16.96436   0.00000  1       30

siesta: Automatic unit cell vectors (Ang):
siesta:   15.884252    0.000000    0.000000
siesta:    0.000000   28.552943    0.000000
siesta:    0.000000    0.000000   10.224979

siesta: System type = molecule  

initatomlists: Number of atoms, orbitals, and projectors:     30   302   403

siesta: ******************** Simulation parameters ****************************
siesta:
siesta: The following are some of the parameters of the simulation.
siesta: A complete list of the parameters used, including default values,
siesta: can be found in file out.fdf
siesta:
redata: Spin configuration                          = spin-orbit
redata: Number of spin components                   = 8
redata: Time-Reversal Symmetry                      = F
redata: Spin spiral                                 = F
############################################################
This spin-orbit implementation uses a local approximation.
From 4.2 and onwards the full non-local approximation is implemented
You are strongly advised to use >=4.2 versions!
############################################################
redata: Long output                                 =   F
redata: Number of Atomic Species                    =        4
redata: Charge density info will appear in .RHO file
redata: Write Mulliken Pop.                         = Atomic and Orbital charges
redata: Matel table size (NRTAB)                    =     1024
redata: Mesh Cutoff                                 =   340.0000 Ry
redata: Net charge of the system                    =     0.0000 |e|
redata: Min. number of SCF Iter                     =        1
redata: Max. number of SCF Iter                     =      200
redata: SCF mix quantity                            = Hamiltonian
redata: Mix DM or H after convergence               =   F
redata: Recompute H after scf cycle                 =   F
redata: Mix DM in first SCF step                    =   T
redata: Write Pulay info on disk                    =   F
redata: New DM Occupancy tolerance                  = 0.000000000001
redata: No kicks to SCF
redata: DM Mixing Weight for Kicks                  =     0.5000
redata: Require Harris convergence for SCF          =   F
redata: Harris energy tolerance for SCF             =     0.000100 eV
redata: Require DM convergence for SCF              =   T
redata: DM tolerance for SCF                        =     0.000008
redata: Require EDM convergence for SCF             =   F
redata: EDM tolerance for SCF                       =     0.001000 eV
redata: Require H convergence for SCF               =   T
redata: Hamiltonian tolerance for SCF               =     0.000001 eV
redata: Require (free) Energy convergence for SCF   =   F
redata: (free) Energy tolerance for SCF             =     0.000100 eV
redata: Using Saved Data (generic)                  =   F
redata: Use continuation files for DM               =   F
redata: Neglect nonoverlap interactions             =   F
redata: Method of Calculation                       = Diagonalization
redata: Electronic Temperature                      =   299.9978 K
redata: Fix the spin of the system                  =   F
redata: Dynamics option                             = Single-point calculation
mix.SCF: Pulay mixing                            = Pulay
mix.SCF:    Variant                              = stable
mix.SCF:    History steps                        = 6
mix.SCF:    Linear mixing weight                 =     0.250000
mix.SCF:    Mixing weight                        =     0.250000
mix.SCF:    SVD condition                        = 0.1000E-07
mix.SCF:    Restart steps                        = 24
mix.SCF:    Restart save steps                   = 3
mix.SCF: Spin-component mixing                   all
redata: Save all siesta data in one NC              =   F
redata: ***********************************************************************

%block SCF.Mixers
  Pulay
%endblock SCF.Mixers

%block SCF.Mixer.Pulay
  # Mixing method
  method pulay
  variant stable

  # Mixing options
  weight 0.2500
  weight.linear 0.2500
  history 6
  restart 24
  restart.save 3
%endblock SCF.Mixer.Pulay

DM_history_depth set to one: no extrapolation allowed by default for geometry relaxation
Size of DM history Fstack: 1
Total number of electrons:    98.000000
Total ionic charge:    98.000000

* ProcessorY, Blocksize:    2  24


* Orbital distribution balance (max,min):    62    48


Time-reversal symmetry not used.

siesta: k-grid: Number of k-points =     1
siesta: k-grid: Cutoff (effective) =     5.112 Ang
siesta: k-grid: Supercell and displacements
siesta: k-grid:    1   0   0      0.000
siesta: k-grid:    0   1   0      0.000
siesta: k-grid:    0   0   1      0.000

diag: Algorithm                                     = ELPA-1stage
diag: Parallel over k                               =   F
diag: Use parallel 2D distribution                  =   T
diag: Parallel block-size                           = 24
diag: Parallel distribution                         =     2 x     3
diag: Used triangular part                          = Lower
diag: Absolute tolerance                            =  0.100E-15
diag: Orthogonalization factor                      =  0.100E-05
diag: Memory factor                                 =  1.0000


ts: **************************************************************
ts: Save H and S matrices                           =    F
ts: Save DM and EDM matrices                        =    F
ts: Only save the overlap matrix S                  =    F
ts: **************************************************************

************************ Begin: TS CHECKS AND WARNINGS ************************
************************ End: TS CHECKS AND WARNINGS **************************


                     ====================================
                        Single-point calculation
                     ====================================

outcoor: Atomic coordinates (Ang):                          
    2.58237765   -5.77683044    0.00000000   1       1  H
    1.65475924   -5.26936198    0.00000000   2       2  N
    0.06312884   -6.10170459    0.00000000   3       3  Si
    0.11922324   -7.59684950    0.00000000   1       4  H
   -1.37689205   -5.18260374    0.00000000   2       5  N
   -0.82437190   -3.46086644    0.00000000   3       6  Si
   -1.17057148   -1.27000210    0.00000000   3       7  Si
   -2.70693368   -0.41751578    0.00000000   2       8  N
   -2.75456966    0.63485862    0.00000000   1       9  H
   -3.63767564   -0.90996786    0.00000000   1      10  H
    0.21809179   -0.23419397    0.00000000   2      11  N
    1.87200410   -0.69716230    0.00000000   3      12  Si
    2.82800113    0.46146477    0.00000000   1      13  H
    2.64815008   -2.25502447    0.00000000   2      14  N
    1.39192138   -3.45472722    0.00000000   3      15  Si
    1.83325807    8.63164040    0.00000000   2      16  N
    0.50588655    9.84184470    0.00000000   3      17  Si
    1.14588782   11.20316294    0.00000000   1      18  H
   -1.57985939    9.17131335    0.00000000   3      19  Si
   -3.60942199   10.30142954    0.00000000   3      20  Si
   -3.45518622   11.46165975    0.94030528   1      21  H
   -4.59535671    9.27950892    0.51261370   1      22  H
   -4.02563695   10.77765539   -1.36667834   1      23  H
   -1.51336397    6.89733673    0.00000000   3      24  Si
   -2.55241270    5.70427723    0.00000000   4      25  O
    0.14362761    6.26336154    0.00000000   2      26  N
    0.12561024    5.20091671    0.00000000   1      27  H
    1.76723068    6.86043175    0.00000000   3      28  Si
    2.96224685    5.84600655    0.00000000   4      29  O
    2.83329544    8.97714750    0.00000000   1      30  H

outcell: Unit cell vectors (Ang):
       15.884252    0.000000    0.000000
        0.000000   28.552943    0.000000
        0.000000    0.000000   10.224979

outcell: Cell vector modules (Ang)   :   15.884252   28.552943   10.224979
outcell: Cell angles (23,13,12) (deg):     90.0000     90.0000     90.0000
outcell: Cell volume (Ang**3)        :   4637.4590
<dSpData1D:S at geom step 0
  <sparsity:sparsity for geom step 0
    nrows_g=302 nrows=62 sparsity=.1009 nnzs=9198, refcount: 8>
  <dData1D:(new from dSpData1D) n=9198, refcount: 1>
refcount: 1>
new_DM -- step:     1
Initializing Density Matrix...
DM filled with atomic data:
<dSpData2D:DM initialized from atoms
  <sparsity:sparsity for geom step 0
    nrows_g=302 nrows=62 sparsity=.1009 nnzs=9198, refcount: 9>
  <dData2D:DM n=9198 m=8, refcount: 1>
refcount: 1>
     spin moment: S , {S} =   56.00000   0.00000   0.00000  56.00000
No. of atoms with KB's overlaping orbs in proc 0. Max # of overlaps:      24     133

Initializing spin-orbit part of the Hamiltonian
  Adding spin-orbit effects for H 
  Adding spin-orbit effects for N 
  Adding spin-orbit effects for Si
  Adding spin-orbit effects for O 


New grid distribution:   1
           1       1:   90    1:   80    1:   20
           2       1:   90    1:   80   21:   40
           3       1:   90    1:   80   41:   60
           4       1:   90   81:  160    1:   20
           5       1:   90   81:  160   21:   40
           6       1:   90   81:  160   41:   60

InitMesh: MESH =   180 x   320 x   120 =     6912000
InitMesh: (bp) =    90 x   160 x    60 =      864000
InitMesh: Mesh cutoff (required, used) =   340.000   347.136 Ry
ExtMesh (bp) on 0 =   194 x   184 x   128 =     4569088
New grid distribution:   2
           1      14:   90   44:   63    1:   60
           2       1:   11   64:  160    1:   60
           3       1:   13    1:   63    1:   60
           4      12:   90   64:  141    1:   60
           5      14:   90    1:   43    1:   60
           6      12:   90  142:  160    1:   60
New grid distribution:   3
           1       1:   19   64:  160    1:   60
           2      22:   90   39:   63    1:   60
           3       1:   21    1:   63    1:   60
           4      20:   90   64:  130    1:   60
           5      22:   90    1:   38    1:   60
           6      20:   90  131:  160    1:   60
Setting up quadratic distribution...
ExtMesh (bp) on 0 =   181 x   124 x   168 =     3770592
PhiOnMesh: Number of (b)points on node 0 =                92400
PhiOnMesh: nlist on node 0 =              1696882

stepf: Fermi-Dirac step function

siesta: Program's energy decomposition (eV):
siesta: Ebs     =      -635.580636
siesta: Eions   =      3553.971015
siesta: Ena     =       377.805312
siesta: Ekin    =      3183.460622
siesta: Enl     =     -2998.353773
siesta: Eso     =        -0.003899
siesta: Edftu   =         0.000000
siesta: DEna    =       130.429414
siesta: DUscf   =        76.828471
siesta: DUext   =         0.000000
siesta: Exc     =     -1171.392154
siesta: eta*DQ  =         0.000000
siesta: Emadel  =         0.000000
siesta: Emeta   =         0.000000
siesta: Emolmec =         0.000000
siesta: Ekinion =         0.000000
siesta: Eharris =     -3882.090784
siesta: Etot    =     -3955.197021
siesta: FreeEng =     -3955.201271

        iscf     Eharris(eV)        E_KS(eV)     FreeEng(eV)     dDmax    Ef(eV) dHmax(eV)
   scf:    1    -3882.090784    -3955.197021    -3955.201271  0.971546 -4.940984 21.579078
     spin moment: S , {S} =    2.03216   0.00003   0.00001   2.03216
timer: Routine,Calls,Time,% = IterSCF        1       5.517  21.65
   scf:    2    -3997.485485    -3989.085738    -3989.085740  0.457092 -4.370358 10.929303
     spin moment: S , {S} =    2.00010  -0.00001   0.00004   2.00010
   scf:    3    -3970.892255    -3989.107067    -3989.139780  0.415084 -4.283095 10.013800
     spin moment: S , {S} =    1.45172   0.00002   0.00001   1.45172
   scf:    4    -4001.439860    -3997.327369    -3997.327373  0.240008 -3.979358  5.650253
     spin moment: S , {S} =    0.00011   0.00001  -0.00000   0.00011
   scf:    5    -3998.616479    -3998.063584    -3998.063584  0.039502 -3.908998  3.206421
     spin moment: S , {S} =    0.00006   0.00001  -0.00000   0.00006
   scf:    6    -3998.752146    -3998.416819    -3998.416819  0.023261 -3.902747  1.810854
     spin moment: S , {S} =    0.00003   0.00000  -0.00000   0.00003
   scf:    7    -3998.817519    -3998.609391    -3998.609391  0.024254 -3.953078  0.749287
     spin moment: S , {S} =    0.00001   0.00000  -0.00000   0.00001
   scf:    8    -3998.725338    -3998.665152    -3998.665152  0.011793 -3.992601  0.434318
     spin moment: S , {S} =    0.00000   0.00000  -0.00000   0.00000
   scf:    9    -3998.708146    -3998.685719    -3998.685719  0.006637 -4.008041  0.337177
     spin moment: S , {S} =    0.00000   0.00000  -0.00000   0.00000
   scf:   10    -3998.740910    -3998.706309    -3998.706318  0.020724 -4.032506  0.184392
     spin moment: S , {S} =    0.00002   0.00000   0.00000  -0.00002
   scf:   11    -3998.709875    -3998.708161    -3998.708174  0.004096 -4.020560  0.053214
     spin moment: S , {S} =    0.00000   0.00000   0.00000   0.00000
   scf:   12    -3998.708741    -3998.708458    -3998.708473  0.001242 -4.018584  0.028870
     spin moment: S , {S} =    0.00000   0.00000   0.00000   0.00000
   scf:   13    -3998.708836    -3998.708644    -3998.708660  0.000954 -4.016640  0.014493
     spin moment: S , {S} =    0.00000   0.00000   0.00000   0.00000
   scf:   14    -3998.708836    -3998.708736    -3998.708753  0.000966 -4.015885  0.011570
     spin moment: S , {S} =    0.00000   0.00000   0.00000   0.00000
   scf:   15    -3998.708851    -3998.708790    -3998.708807  0.000950 -4.015526  0.008283
     spin moment: S , {S} =    0.00000   0.00000   0.00000   0.00000
   scf:   16    -3998.708850    -3998.708817    -3998.708834  0.000795 -4.015546  0.005397
     spin moment: S , {S} =    0.00000   0.00000   0.00000  -0.00000
   scf:   17    -3998.708841    -3998.708828    -3998.708845  0.000555 -4.015615  0.003873
     spin moment: S , {S} =    0.00000   0.00000   0.00000  -0.00000
   scf:   18    -3998.708835    -3998.708831    -3998.708848  0.000290 -4.015678  0.002545
     spin moment: S , {S} =    0.00000   0.00000   0.00000  -0.00000
   scf:   19    -3998.708836    -3998.708833    -3998.708850  0.000323 -4.015679  0.001324
     spin moment: S , {S} =    0.00000   0.00000   0.00000  -0.00000
   scf:   20    -3998.708834    -3998.708834    -3998.708851  0.000103 -4.015685  0.000903
     spin moment: S , {S} =    0.00000   0.00000   0.00000  -0.00000
   scf:   21    -3998.708834    -3998.708834    -3998.708851  0.000114 -4.015685  0.000408
     spin moment: S , {S} =    0.00000   0.00000   0.00000  -0.00000
   scf:   22    -3998.708834    -3998.708834    -3998.708851  0.000075 -4.015694  0.000143
     spin moment: S , {S} =    0.00000   0.00000   0.00000  -0.00000
   scf:   23    -3998.708834    -3998.708834    -3998.708851  0.000020 -4.015699  0.000082
     spin moment: S , {S} =    0.00000   0.00000  -0.00000  -0.00000
   scf:   24    -3998.708834    -3998.708834    -3998.708851  0.000005 -4.015700  0.000052
     spin moment: S , {S} =    0.00000   0.00000  -0.00000  -0.00000
mix: Pulay -- resetting history
   scf:   25    -3998.708834    -3998.708834    -3998.708851  0.000004 -4.015698  0.000030
     spin moment: S , {S} =    0.00000   0.00000  -0.00000  -0.00000
   scf:   26    -3998.708834    -3998.708834    -3998.708851  0.000002 -4.015697  0.000016
     spin moment: S , {S} =    0.00000   0.00000  -0.00000  -0.00000
   scf:   27    -3998.708834    -3998.708834    -3998.708851  0.000001 -4.015696  0.000011
     spin moment: S , {S} =    0.00000   0.00000  -0.00000  -0.00000
   scf:   28    -3998.708834    -3998.708834    -3998.708851  0.000001 -4.015696  0.000008
     spin moment: S , {S} =    0.00000   0.00000  -0.00000  -0.00000
   scf:   29    -3998.708834    -3998.708834    -3998.708851  0.000000 -4.015697  0.000005
     spin moment: S , {S} =    0.00000   0.00000  -0.00000   0.00000
   scf:   30    -3998.708834    -3998.708834    -3998.708851  0.000000 -4.015697  0.000003
     spin moment: S , {S} =    0.00000   0.00000  -0.00000   0.00000
   scf:   31    -3998.708834    -3998.708834    -3998.708851  0.000000 -4.015697  0.000002
     spin moment: S , {S} =    0.00000   0.00000  -0.00000   0.00000
   scf:   32    -3998.708834    -3998.708834    -3998.708851  0.000000 -4.015697  0.000001
     spin moment: S , {S} =    0.00000   0.00000  -0.00000   0.00000
   scf:   33    -3998.708834    -3998.708834    -3998.708851  0.000000 -4.015697  0.000001
     spin moment: S , {S} =    0.00000   0.00000  -0.00000   0.00000

SCF Convergence by DM+H criterion
max |DM_out - DM_in|         :     0.0000002035
max |H_out - H_in|      (eV) :     0.0000007489
SCF cycle converged after 33 iterations

Using DM_out to compute the final energy and forces
No. of atoms with KB's overlaping orbs in proc 0. Max # of overlaps:      24     133

siesta: E_KS(eV) =            -3998.7088

siesta: E_KS - E_eggbox =     -3998.7088
     spin moment: S , {S} =    0.00000   0.00000  -0.00000   0.00000

siesta: Atomic forces (eV/Ang):
     1   -0.047215   -0.026797    0.000002
     2   -0.011429   -0.046635   -0.000002
     3   -0.003459    0.040503    0.000004
     4   -0.050529    0.017187    0.000001
     5    0.016903   -0.042332   -0.000003
     6    0.022213    0.004021   -0.000000
     7   -0.058177    0.105171    0.000004
     8    0.052503   -0.041645   -0.000016
     9    0.082104   -0.079611    0.000022
    10    0.126620    0.116548    0.000004
    11   -0.040879   -0.038608   -0.000006
    12    0.038209    0.060354    0.000001
    13   -0.098180   -0.198954   -0.000000
    14   -0.011226   -0.066241    0.000000
    15    0.000393    0.065996   -0.000000
    16   -0.003902    0.082774    0.008012
    17   -0.011726   -0.044476   -0.039747
    18   -0.080254    0.087550    0.008228
    19    0.007530    0.031262   -0.041209
    20    0.041236   -0.057096    0.026832
    21   -0.084575    0.130413    0.070547
    22    0.182989    0.059626   -0.010736
    23   -0.016239    0.068097   -0.053076
    24    0.033088   -0.118390   -0.026627
    25   -2.030598    1.684669    0.003079
    26   -0.026533    0.070413    0.006526
    27   -0.009284   -0.108588    0.002788
    28    0.012862   -0.128460   -0.000879
    29    3.319892   -0.031888   -0.001102
    30    0.017663    0.194083    0.008279
----------------------------------------
   Tot    1.370003    1.788947   -0.039074
----------------------------------------
   Max    3.319892
   Res    0.451169    sqrt( Sum f_i^2 / 3N )
----------------------------------------
   Max    3.319892    constrained

Stress tensor Voigt[x,y,z,yz,xz,xy] (kbar):       -1.61       -0.42       -0.20       -0.04        0.05        0.26
(Free)E + p*V (eV/cell)    -3996.5663
Target enthalpy (eV/cell)    -3998.7089

mulliken: Atomic and Orbital Populations:

Species: H                   

Atom      Orb        Charge      Spin       Svec
----------------------------------------------------------------
    1  1 1s         0.50849   0.00000     -0.000  -0.000  -0.000
    1  2 1s         0.18810   0.00000      0.000   0.000   0.000
    1  3 2Ppy       0.02792   0.00000     -0.000  -0.000   0.000
    1  4 2Ppz       0.03994   0.00000     -0.000  -0.000  -0.000
    1  5 2Ppx       0.02505   0.00000     -0.000   0.000   0.000
    1     Total     0.78951   0.00000     -0.000  -0.000   0.000

    4  1 1s         1.02392   0.00000     -0.000   0.000  -0.000
    4  2 1s         0.09510   0.00000      0.000  -0.000   0.000
    4  3 2Ppy       0.03907   0.00000      0.000  -0.000   0.000
    4  4 2Ppz       0.01987   0.00000     -0.000   0.000   0.000
    4  5 2Ppx       0.01356   0.00000     -0.000   0.000  -0.000
    4     Total     1.19152   0.00000     -0.000   0.000  -0.000

    9  1 1s         0.47903   0.00000     -0.000   0.000  -0.000
    9  2 1s         0.19543   0.00000     -0.000  -0.000   0.000
    9  3 2Ppy       0.02298   0.00000     -0.000  -0.000   0.000
    9  4 2Ppz       0.04898   0.00000      0.000   0.000   0.000
    9  5 2Ppx       0.01235   0.00000      0.000  -0.000  -0.000
    9     Total     0.75877   0.00000      0.000   0.000  -0.000

   10  1 1s         0.48222   0.00000      0.000  -0.000  -0.000
   10  2 1s         0.19604   0.00000     -0.000   0.000   0.000
   10  3 2Ppy       0.00685   0.00000     -0.000   0.000   0.000
   10  4 2Ppz       0.05300   0.00000     -0.000  -0.000   0.000
   10  5 2Ppx       0.02900   0.00000      0.000  -0.000  -0.000
   10     Total     0.76711   0.00000      0.000  -0.000  -0.000

   13  1 1s         1.01357   0.00000      0.000   0.000  -0.000
   13  2 1s         0.09947   0.00000      0.000  -0.000   0.000
   13  3 2Ppy       0.02473   0.00000     -0.000   0.000   0.000
   13  4 2Ppz       0.01444   0.00000     -0.000   0.000  -0.000
   13  5 2Ppx       0.01752   0.00000     -0.000   0.000   0.000
   13     Total     1.16974   0.00000      0.000   0.000  -0.000

   18  1 1s         1.05035   0.00000     -0.000  -0.000  -0.000
   18  2 1s         0.08379   0.00000      0.000   0.000   0.000
   18  3 2Ppy       0.02779   0.00000     -0.000  -0.000   0.000
   18  4 2Ppz       0.01893   0.00000      0.000   0.000  -0.000
   18  5 2Ppx       0.01767   0.00000      0.000  -0.000   0.000
   18     Total     1.19852   0.00000      0.000  -0.000  -0.000

   21  1 1s         1.06688   0.00000     -0.000  -0.000  -0.000
   21  2 1s         0.08250   0.00000      0.000   0.000   0.000
   21  3 2Ppy       0.02229   0.00000      0.000  -0.000   0.000
   21  4 2Ppz       0.02110   0.00000      0.000   0.000   0.000
   21  5 2Ppx       0.01160   0.00000      0.000  -0.000  -0.000
   21     Total     1.20437   0.00000     -0.000  -0.000  -0.000

   22  1 1s         1.05170   0.00000      0.000  -0.000  -0.000
   22  2 1s         0.08385   0.00000      0.000  -0.000   0.000
   22  3 2Ppy       0.02013   0.00000      0.000  -0.000  -0.000
   22  4 2Ppz       0.01767   0.00000      0.000  -0.000   0.000
   22  5 2Ppx       0.01708   0.00000     -0.000  -0.000   0.000
   22     Total     1.19044   0.00000      0.000  -0.000  -0.000

   23  1 1s         1.06502   0.00000     -0.000   0.000  -0.000
   23  2 1s         0.08209   0.00000      0.000  -0.000   0.000
   23  3 2Ppy       0.01684   0.00000     -0.000   0.000   0.000
   23  4 2Ppz       0.02462   0.00000     -0.000  -0.000   0.000
   23  5 2Ppx       0.01349   0.00000      0.000  -0.000   0.000
   23     Total     1.20206   0.00000     -0.000   0.000  -0.000

   27  1 1s         0.46430   0.00000     -0.000   0.000   0.000
   27  2 1s         0.19049   0.00000      0.000   0.000   0.000
   27  3 2Ppy       0.02017   0.00000     -0.000   0.000  -0.000
   27  4 2Ppz       0.02563   0.00000     -0.000   0.000  -0.000
   27  5 2Ppx       0.02933   0.00000      0.000   0.000   0.000
   27     Total     0.72993   0.00000     -0.000   0.000   0.000

   30  1 1s         0.48346   0.00000     -0.000  -0.000  -0.000
   30  2 1s         0.18901   0.00000      0.000   0.000   0.000
   30  3 2Ppy       0.02652   0.00000      0.000  -0.000  -0.000
   30  4 2Ppz       0.03452   0.00000      0.000  -0.000   0.000
   30  5 2Ppx       0.02315   0.00000      0.000  -0.000   0.000
   30     Total     0.75666   0.00000     -0.000  -0.000   0.000

----------------------------------------------------------------
Total              10.95861   0.00000     -0.000  -0.000  -0.000


Species: N                   

Atom      Orb        Charge      Spin       Svec
----------------------------------------------------------------
    2  1 2s         1.38107   0.00000     -0.000   0.000  -0.000
    2  2 2s         0.12660   0.00000      0.000  -0.000   0.000
    2  3 2py        1.06822   0.00000      0.000   0.000  -0.000
    2  4 2pz        1.49543   0.00000      0.000  -0.000  -0.000
    2  5 2px        1.01740   0.00000     -0.000   0.000  -0.000
    2  6 2py        0.19598   0.00000     -0.000  -0.000   0.000
    2  7 2pz        0.01427   0.00000     -0.000   0.000   0.000
    2  8 2px        0.20998   0.00000      0.000  -0.000   0.000
    2  9 3Pdxy      0.00673   0.00000      0.000  -0.000   0.000
    2 10 3Pdyz      0.00606   0.00000      0.000  -0.000   0.000
    2 11 3Pdz2      0.00151   0.00000      0.000  -0.000   0.000
    2 12 3Pdxz      0.00304   0.00000     -0.000   0.000   0.000
    2 13 3Pdx2-y2   0.00297   0.00000      0.000  -0.000  -0.000
    2     Total     5.52925   0.00000      0.000   0.000  -0.000

    5  1 2s         1.55815   0.00000     -0.000   0.000  -0.000
    5  2 2s         0.08112   0.00000      0.000  -0.000  -0.000
    5  3 2py        0.90447   0.00000     -0.000   0.000  -0.000
    5  4 2pz        1.22248   0.00000     -0.000   0.000  -0.000
    5  5 2px        1.14177   0.00000      0.000   0.000  -0.000
    5  6 2py        0.23017   0.00000      0.000  -0.000   0.000
    5  7 2pz        0.05522   0.00000     -0.000  -0.000   0.000
    5  8 2px        0.14631   0.00000      0.000   0.000   0.000
    5  9 3Pdxy      0.00854   0.00000      0.000  -0.000  -0.000
    5 10 3Pdyz      0.00700   0.00000     -0.000   0.000   0.000
    5 11 3Pdz2      0.00189   0.00000      0.000  -0.000   0.000
    5 12 3Pdxz      0.01129   0.00000      0.000   0.000   0.000
    5 13 3Pdx2-y2   0.00920   0.00000     -0.000  -0.000   0.000
    5     Total     5.37761   0.00000     -0.000   0.000  -0.000

    8  1 2s         1.28485   0.00000      0.000  -0.000  -0.000
    8  2 2s         0.17152   0.00000      0.000  -0.000  -0.000
    8  3 2py        1.06190   0.00000     -0.000   0.000  -0.000
    8  4 2pz        1.57169   0.00000     -0.000  -0.000  -0.000
    8  5 2px        1.00428   0.00000     -0.000  -0.000  -0.000
    8  6 2py        0.19484   0.00000      0.000  -0.000   0.000
    8  7 2pz        0.02737   0.00000     -0.000   0.000  -0.000
    8  8 2px        0.22880   0.00000      0.000   0.000   0.000
    8  9 3Pdxy      0.00270   0.00000     -0.000  -0.000  -0.000
    8 10 3Pdyz      0.00082   0.00000     -0.000  -0.000  -0.000
    8 11 3Pdz2      0.00273   0.00000      0.000  -0.000   0.000
    8 12 3Pdxz      0.00243   0.00000     -0.000   0.000  -0.000
    8 13 3Pdx2-y2   0.00435   0.00000      0.000  -0.000   0.000
    8     Total     5.55827   0.00000     -0.000  -0.000  -0.000

   11  1 2s         1.45894   0.00000     -0.000   0.000   0.000
   11  2 2s         0.11395   0.00000      0.000  -0.000  -0.000
   11  3 2py        1.22282   0.00000      0.000  -0.000  -0.000
   11  4 2pz        1.28757   0.00000     -0.000  -0.000   0.000
   11  5 2px        0.79914   0.00000      0.000  -0.000   0.000
   11  6 2py        0.11196   0.00000     -0.000   0.000  -0.000
   11  7 2pz        0.04625   0.00000      0.000  -0.000  -0.000
   11  8 2px        0.31779   0.00000     -0.000   0.000   0.000
   11  9 3Pdxy      0.00736   0.00000     -0.000  -0.000   0.000
   11 10 3Pdyz      0.00608   0.00000     -0.000   0.000   0.000
   11 11 3Pdz2      0.00055   0.00000     -0.000   0.000  -0.000
   11 12 3Pdxz      0.00496   0.00000      0.000  -0.000  -0.000
   11 13 3Pdx2-y2   0.00527   0.00000      0.000  -0.000   0.000
   11     Total     5.38265   0.00000      0.000  -0.000   0.000

   14  1 2s         1.50659   0.00000      0.000   0.000  -0.000
   14  2 2s         0.10226   0.00000      0.000  -0.000   0.000
   14  3 2py        0.84400   0.00000      0.000  -0.000  -0.000
   14  4 2pz        1.23726   0.00000      0.000   0.000   0.000
   14  5 2px        1.17748   0.00000      0.000   0.000  -0.000
   14  6 2py        0.27745   0.00000     -0.000  -0.000   0.000
   14  7 2pz        0.05439   0.00000      0.000  -0.000   0.000
   14  8 2px        0.13197   0.00000      0.000  -0.000   0.000
   14  9 3Pdxy      0.00949   0.00000      0.000   0.000  -0.000
   14 10 3Pdyz      0.00491   0.00000      0.000  -0.000  -0.000
   14 11 3Pdz2      0.00146   0.00000     -0.000  -0.000  -0.000
   14 12 3Pdxz      0.01066   0.00000      0.000  -0.000  -0.000
   14 13 3Pdx2-y2   0.00792   0.00000     -0.000   0.000   0.000
   14     Total     5.36583   0.00000      0.000  -0.000   0.000

   16  1 2s         1.37898   0.00000     -0.000   0.000  -0.000
   16  2 2s         0.12572   0.00000      0.000  -0.000   0.000
   16  3 2py        0.99131   0.00000      0.000  -0.000  -0.000
   16  4 2pz        1.54768   0.00000      0.000   0.000  -0.000
   16  5 2px        1.08048   0.00000      0.000   0.000  -0.000
   16  6 2py        0.23940   0.00000     -0.000  -0.000   0.000
   16  7 2pz        0.00324   0.00000     -0.000  -0.000   0.000
   16  8 2px        0.18041   0.00000     -0.000  -0.000  -0.000
   16  9 3Pdxy      0.00153   0.00000      0.000   0.000   0.000
   16 10 3Pdyz      0.00477   0.00000     -0.000   0.000  -0.000
   16 11 3Pdz2      0.00088   0.00000      0.000  -0.000   0.000
   16 12 3Pdxz      0.00237   0.00000     -0.000   0.000  -0.000
   16 13 3Pdx2-y2   0.00610   0.00000      0.000   0.000   0.000
   16     Total     5.56286   0.00000      0.000   0.000  -0.000

   26  1 2s         1.37344   0.00000      0.000  -0.000  -0.000
   26  2 2s         0.12518   0.00000     -0.000   0.000  -0.000
   26  3 2py        1.11266   0.00000      0.000  -0.000  -0.000
   26  4 2pz        1.53082   0.00000     -0.000  -0.000  -0.000
   26  5 2px        0.94650   0.00000     -0.000  -0.000  -0.000
   26  6 2py        0.16920   0.00000      0.000   0.000   0.000
   26  7 2pz        0.00502   0.00000      0.000   0.000   0.000
   26  8 2px        0.26504   0.00000     -0.000   0.000   0.000
   26  9 3Pdxy      0.00064   0.00000     -0.000  -0.000  -0.000
   26 10 3Pdyz      0.00079   0.00000     -0.000   0.000   0.000
   26 11 3Pdz2     -0.00127   0.00000     -0.000  -0.000  -0.000
   26 12 3Pdxz      0.00470   0.00000      0.000   0.000  -0.000
   26 13 3Pdx2-y2   0.00220   0.00000     -0.000  -0.000   0.000
   26     Total     5.53492   0.00000      0.000  -0.000  -0.000

----------------------------------------------------------------
Total              49.27001   0.00000      0.000  -0.000  -0.000


Species: Si                  

Atom      Orb        Charge      Spin       Svec
----------------------------------------------------------------
    3  1 3s         0.55111   0.00000     -0.000  -0.000   0.000
    3  2 3s         0.38749   0.00000      0.000   0.000   0.000
    3  3 3py        0.08168   0.00000      0.000  -0.000   0.000
    3  4 3pz        0.53540   0.00000      0.000   0.000   0.000
    3  5 3px        0.36832   0.00000      0.000  -0.000   0.000
    3  6 3py        0.49915   0.00000     -0.000   0.000   0.000
    3  7 3pz        0.17603   0.00000      0.000   0.000   0.000
    3  8 3px        0.23722   0.00000     -0.000   0.000   0.000
    3  9 3Pdxy      0.10814   0.00000      0.000   0.000   0.000
    3 10 3Pdyz      0.05204   0.00000      0.000  -0.000   0.000
    3 11 3Pdz2      0.01014   0.00000     -0.000  -0.000   0.000
    3 12 3Pdxz      0.13294   0.00000     -0.000   0.000   0.000
    3 13 3Pdx2-y2   0.32436   0.00000      0.000   0.000   0.000
    3     Total     3.46402   0.00000      0.000  -0.000   0.000

    6  1 3s         0.66186   0.00000      0.000  -0.000   0.000
    6  2 3s         0.37045   0.00000     -0.000   0.000   0.000
    6  3 3py        0.13102   0.00000     -0.000  -0.000  -0.000
    6  4 3pz        0.69471   0.00000      0.000   0.000   0.000
    6  5 3px        0.49061   0.00000     -0.000  -0.000   0.000
    6  6 3py        0.46528   0.00000      0.000   0.000   0.000
    6  7 3pz        0.24294   0.00000     -0.000  -0.000   0.000
    6  8 3px        0.24557   0.00000      0.000  -0.000   0.000
    6  9 3Pdxy      0.18506   0.00000      0.000  -0.000   0.000
    6 10 3Pdyz      0.14726   0.00000      0.000   0.000  -0.000
    6 11 3Pdz2      0.01171   0.00000      0.000   0.000   0.000
    6 12 3Pdxz      0.03652   0.00000      0.000  -0.000  -0.000
    6 13 3Pdx2-y2   0.18879   0.00000     -0.000   0.000   0.000
    6     Total     3.87178   0.00000      0.000  -0.000   0.000

    7  1 3s         0.62620   0.00000      0.000  -0.000   0.000
    7  2 3s         0.36988   0.00000     -0.000  -0.000  -0.000
    7  3 3py        0.37247   0.00000     -0.000   0.000   0.000
    7  4 3pz        0.49263   0.00000     -0.000   0.000  -0.000
    7  5 3px        0.08014   0.00000     -0.000   0.000   0.000
    7  6 3py        0.30336   0.00000      0.000  -0.000   0.000
    7  7 3pz        0.20859   0.00000      0.000   0.000  -0.000
    7  8 3px        0.42166   0.00000      0.000  -0.000   0.000
    7  9 3Pdxy      0.20444   0.00000      0.000   0.000   0.000
    7 10 3Pdyz      0.14273   0.00000      0.000   0.000  -0.000
    7 11 3Pdz2      0.01065   0.00000      0.000   0.000   0.000
    7 12 3Pdxz      0.15012   0.00000     -0.000  -0.000   0.000
    7 13 3Pdx2-y2   0.24201   0.00000      0.000  -0.000  -0.000
    7     Total     3.62489   0.00000     -0.000   0.000  -0.000

   12  1 3s         0.52715   0.00000     -0.000   0.000  -0.000
   12  2 3s         0.40224   0.00000     -0.000  -0.000   0.000
   12  3 3py        0.23007   0.00000      0.000  -0.000   0.000
   12  4 3pz        0.43820   0.00000      0.000   0.000  -0.000
   12  5 3px        0.29011   0.00000     -0.000  -0.000   0.000
   12  6 3py        0.39449   0.00000     -0.000   0.000   0.000
   12  7 3pz        0.17072   0.00000     -0.000  -0.000  -0.000
   12  8 3px        0.34394   0.00000      0.000   0.000   0.000
   12  9 3Pdxy      0.38717   0.00000     -0.000   0.000   0.000
   12 10 3Pdyz      0.08020   0.00000      0.000  -0.000  -0.000
   12 11 3Pdz2      0.01044   0.00000     -0.000  -0.000   0.000
   12 12 3Pdxz      0.09251   0.00000      0.000  -0.000   0.000
   12 13 3Pdx2-y2   0.16490   0.00000      0.000  -0.000   0.000
   12     Total     3.53212   0.00000      0.000  -0.000  -0.000

   15  1 3s         0.66097   0.00000     -0.000  -0.000   0.000
   15  2 3s         0.36715   0.00000     -0.000   0.000   0.000
   15  3 3py       -0.03264   0.00000     -0.000   0.000   0.000
   15  4 3pz        0.51028   0.00000     -0.000   0.000   0.000
   15  5 3px        0.38865   0.00000     -0.000   0.000  -0.000
   15  6 3py        0.47449   0.00000     -0.000   0.000   0.000
   15  7 3pz        0.20038   0.00000      0.000  -0.000   0.000
   15  8 3px        0.34014   0.00000      0.000  -0.000   0.000
   15  9 3Pdxy      0.14150   0.00000     -0.000   0.000   0.000
   15 10 3Pdyz      0.12584   0.00000     -0.000  -0.000   0.000
   15 11 3Pdz2      0.01383   0.00000      0.000  -0.000   0.000
   15 12 3Pdxz      0.12450   0.00000     -0.000  -0.000   0.000
   15 13 3Pdx2-y2   0.30181   0.00000      0.000  -0.000   0.000
   15     Total     3.61690   0.00000     -0.000   0.000   0.000

   17  1 3s         0.73194   0.00000     -0.000   0.000   0.000
   17  2 3s         0.35620   0.00000      0.000   0.000   0.000
   17  3 3py        0.09600   0.00000      0.000   0.000   0.000
   17  4 3pz        0.62725   0.00000      0.000   0.000  -0.000
   17  5 3px        0.35542   0.00000     -0.000  -0.000   0.000
   17  6 3py        0.45292   0.00000     -0.000  -0.000   0.000
   17  7 3pz        0.15079   0.00000     -0.000   0.000   0.000
   17  8 3px        0.33540   0.00000      0.000   0.000   0.000
   17  9 3Pdxy      0.15132   0.00000      0.000  -0.000   0.000
   17 10 3Pdyz      0.02343   0.00000      0.000   0.000  -0.000
   17 11 3Pdz2      0.00920   0.00000     -0.000   0.000  -0.000
   17 12 3Pdxz      0.12868   0.00000     -0.000   0.000  -0.000
   17 13 3Pdx2-y2   0.12692   0.00000      0.000   0.000   0.000
   17     Total     3.54548   0.00000      0.000   0.000   0.000

   19  1 3s         0.86244   0.00000      0.000   0.000   0.000
   19  2 3s         0.31302   0.00000     -0.000  -0.000  -0.000
   19  3 3py        0.44670   0.00000     -0.000  -0.000  -0.000
   19  4 3pz        0.66008   0.00000     -0.000  -0.000   0.000
   19  5 3px        0.35323   0.00000     -0.000  -0.000   0.000
   19  6 3py        0.32171   0.00000      0.000   0.000  -0.000
   19  7 3pz        0.26794   0.00000      0.000   0.000   0.000
   19  8 3px        0.35630   0.00000     -0.000   0.000  -0.000
   19  9 3Pdxy      0.09359   0.00000     -0.000   0.000   0.000
   19 10 3Pdyz      0.02942   0.00000     -0.000  -0.000   0.000
   19 11 3Pdz2      0.01456   0.00000      0.000  -0.000   0.000
   19 12 3Pdxz      0.05653   0.00000     -0.000  -0.000   0.000
   19 13 3Pdx2-y2   0.13123   0.00000     -0.000   0.000   0.000
   19     Total     3.90674   0.00000     -0.000  -0.000   0.000

   20  1 3s         0.54043   0.00000      0.000  -0.000   0.000
   20  2 3s         0.44404   0.00000     -0.000   0.000   0.000
   20  3 3py        0.31073   0.00000      0.000  -0.000   0.000
   20  4 3pz        0.25487   0.00000      0.000   0.000   0.000
   20  5 3px        0.45534   0.00000     -0.000   0.000   0.000
   20  6 3py        0.38734   0.00000     -0.000   0.000   0.000
   20  7 3pz        0.42307   0.00000     -0.000  -0.000   0.000
   20  8 3px        0.27754   0.00000      0.000  -0.000   0.000
   20  9 3Pdxy      0.06995   0.00000      0.000  -0.000  -0.000
   20 10 3Pdyz      0.08427   0.00000      0.000  -0.000  -0.000
   20 11 3Pdz2      0.05092   0.00000      0.000   0.000  -0.000
   20 12 3Pdxz      0.07241   0.00000      0.000   0.000   0.000
   20 13 3Pdx2-y2   0.04585   0.00000      0.000   0.000  -0.000
   20     Total     3.41676   0.00000      0.000   0.000   0.000

   24  1 3s         0.60622   0.00000      0.000   0.000   0.000
   24  2 3s         0.36927   0.00000     -0.000  -0.000  -0.000
   24  3 3py        0.27099   0.00000     -0.000   0.000  -0.000
   24  4 3pz        0.41027   0.00000     -0.000  -0.000   0.000
   24  5 3px        0.16824   0.00000      0.000   0.000   0.000
   24  6 3py        0.39792   0.00000      0.000  -0.000   0.000
   24  7 3pz        0.19291   0.00000      0.000  -0.000   0.000
   24  8 3px        0.36020   0.00000     -0.000  -0.000  -0.000
   24  9 3Pdxy      0.14202   0.00000      0.000   0.000   0.000
   24 10 3Pdyz      0.14016   0.00000      0.000   0.000  -0.000
   24 11 3Pdz2      0.01537   0.00000     -0.000   0.000  -0.000
   24 12 3Pdxz      0.12092   0.00000     -0.000   0.000   0.000
   24 13 3Pdx2-y2   0.34961   0.00000     -0.000  -0.000   0.000
   24     Total     3.54411   0.00000     -0.000  -0.000   0.000

   28  1 3s         0.43283   0.00000      0.000   0.000   0.000
   28  2 3s         0.37768   0.00000     -0.000  -0.000  -0.000
   28  3 3py        0.16119   0.00000     -0.000  -0.000  -0.000
   28  4 3pz        0.40059   0.00000      0.000   0.000   0.000
   28  5 3px        0.16684   0.00000      0.000  -0.000   0.000
   28  6 3py        0.36814   0.00000      0.000   0.000   0.000
   28  7 3pz        0.20469   0.00000      0.000   0.000   0.000
   28  8 3px        0.38525   0.00000      0.000   0.000   0.000
   28  9 3Pdxy      0.14403   0.00000     -0.000  -0.000   0.000
   28 10 3Pdyz      0.12401   0.00000      0.000   0.000   0.000
   28 11 3Pdz2      0.01557   0.00000      0.000  -0.000   0.000
   28 12 3Pdxz      0.15675   0.00000      0.000   0.000   0.000
   28 13 3Pdx2-y2   0.35093   0.00000      0.000   0.000   0.000
   28     Total     3.28852   0.00000      0.000   0.000   0.000

----------------------------------------------------------------
Total              85.08133   0.00000      0.000  -0.000  -0.000


Species: O                   

Atom      Orb        Charge      Spin       Svec
----------------------------------------------------------------
   25  1 2s         1.73773   0.00000     -0.000   0.000   0.000
   25  2 2s         0.07223   0.00000      0.000  -0.000  -0.000
   25  3 2py        1.46354   0.00000     -0.000   0.000   0.000
   25  4 2pz        1.50805   0.00000      0.000   0.000   0.000
   25  5 2px        1.58905   0.00000     -0.000   0.000  -0.000
   25  6 2py        0.03534   0.00000      0.000   0.000  -0.000
   25  7 2pz        0.00124   0.00000      0.000   0.000   0.000
   25  8 2px        0.02453   0.00000      0.000  -0.000   0.000
   25  9 3Pdxy      0.00725   0.00000      0.000   0.000  -0.000
   25 10 3Pdyz      0.00623   0.00000      0.000  -0.000  -0.000
   25 11 3Pdz2      0.00137   0.00000     -0.000  -0.000  -0.000
   25 12 3Pdxz      0.00443   0.00000     -0.000  -0.000  -0.000
   25 13 3Pdx2-y2   0.00745   0.00000     -0.000  -0.000  -0.000
   25     Total     6.45843   0.00000      0.000   0.000   0.000

   29  1 2s         1.74339   0.00000     -0.000  -0.000  -0.000
   29  2 2s         0.06485   0.00000      0.000   0.000   0.000
   29  3 2py        1.48389   0.00000     -0.000  -0.000   0.000
   29  4 2pz        1.52796   0.00000     -0.000  -0.000   0.000
   29  5 2px        1.52596   0.00000      0.000  -0.000  -0.000
   29  6 2py        0.04304   0.00000      0.000   0.000  -0.000
   29  7 2pz        0.00421   0.00000      0.000   0.000   0.000
   29  8 2px        0.03832   0.00000     -0.000   0.000   0.000
   29  9 3Pdxy      0.00818   0.00000     -0.000   0.000   0.000
   29 10 3Pdyz      0.00487   0.00000      0.000  -0.000   0.000
   29 11 3Pdz2      0.00139   0.00000      0.000   0.000   0.000
   29 12 3Pdxz      0.00630   0.00000     -0.000   0.000  -0.000
   29 13 3Pdx2-y2   0.00788   0.00000     -0.000   0.000   0.000
   29     Total     6.46024   0.00000     -0.000  -0.000   0.000

----------------------------------------------------------------
Total              98.00000   0.00000      0.000  -0.000   0.000


siesta: Eigenvalues (eV):
ik =     1
  -22.9090  -22.9090  -22.5312  -22.5312  -21.9729  -21.9729  -21.2602  -21.2602  -21.0915  -21.0915
  -20.8337  -20.8337  -19.5002  -19.5002  -19.3113  -19.3113  -18.7067  -18.7067  -15.3117  -15.3117
  -14.3751  -14.3751  -13.6964  -13.6964  -13.6850  -13.6850  -13.3012  -13.3012  -12.9825  -12.9825
  -12.5754  -12.5754  -12.0913  -12.0913  -12.0303  -12.0303  -11.6153  -11.6153  -11.5029  -11.5029
  -11.0060  -11.0060  -10.7630  -10.7630  -10.2795  -10.2795   -9.8317   -9.8317   -9.5746   -9.5746
   -9.3293   -9.3293   -9.2044   -9.2044   -9.1836   -9.1836   -8.9080   -8.9080   -8.7239   -8.7239
   -8.4014   -8.4014   -8.2612   -8.2612   -8.2145   -8.2145   -8.1299   -8.1299   -8.0087   -8.0087
   -7.9056   -7.9056   -7.4159   -7.4159   -7.4109   -7.4109   -7.3111   -7.3111   -6.8373   -6.8373
   -6.8307   -6.8307   -6.6407   -6.6407   -6.4611   -6.4611   -6.3578   -6.3578   -6.1957   -6.1957
   -5.9439   -5.9439   -5.8242   -5.8242   -5.6280   -5.6280   -4.3054   -4.3054   -3.7260   -3.7260
   -2.8433   -2.8433   -2.4687   -2.4687   -2.2930   -2.2930   -2.1798   -2.1798   -2.1210   -2.1210
   -1.9629   -1.9629   -1.7357   -1.7357   -1.6572   -1.6572   -1.5930   -1.5930   -1.4332   -1.4332
   -1.0934   -1.0934   -0.7017   -0.7017   -0.3945   -0.3945   -0.3104   -0.3104   -0.2487   -0.2487
   -0.2049   -0.2049   -0.0695   -0.0695    0.2662    0.2662    0.4076    0.4076    0.4967    0.4967
    0.5416    0.5416    0.7260    0.7260    1.0625    1.0625    1.2339    1.2339    1.2720    1.2720
    1.3333    1.3333    1.5410    1.5410    1.8555    1.8555    2.0482    2.0482    2.1398    2.1398
    2.4946    2.4946    2.6168    2.6168    2.7771    2.7771    2.8019    2.8019    2.8842    2.8842
    2.9766    2.9766    3.0504    3.0504    3.0900    3.0900    3.1389    3.1389    3.5692    3.5692
    3.6973    3.6973    3.9149    3.9149    4.1134    4.1134    4.2523    4.2523    4.3903    4.3903
    4.5111    4.5111    4.6178    4.6178    4.6541    4.6541    4.6918    4.6918    4.9929    4.9929
    5.0529    5.0529    5.2042    5.2042    5.4148    5.4148    5.5843    5.5843    5.8149    5.8149
    5.8565    5.8565    6.0166    6.0166    6.0603    6.0603    6.2767    6.2767    6.3734    6.3734
    6.5292    6.5292    6.6146    6.6146    6.7908    6.7908    6.9828    6.9828    7.0634    7.0634
    7.1669    7.1669    7.4983    7.4983    7.7147    7.7147    7.7152    7.7152    7.8987    7.8987
    7.9205    7.9205    8.2785    8.2785    8.2886    8.2886    8.3378    8.3378    8.4978    8.4978
    8.5445    8.5445    8.8944    8.8944    8.9083    8.9083    9.3175    9.3175    9.6026    9.6026
    9.6781    9.6781    9.8326    9.8326    9.8912    9.8912    9.8976    9.8976    9.9643    9.9643
   10.0002   10.0002   10.3847   10.3847   10.6469   10.6469   10.8977   10.8977   11.1208   11.1208
   11.3220   11.3220   11.3650   11.3650   11.5071   11.5071   11.7026   11.7026   11.7968   11.7968
   11.8700   11.8700   12.3065   12.3065   12.3981   12.3981   12.6714   12.6714   12.7433   12.7433
   12.9268   12.9268   13.0298   13.0298   13.2383   13.2383   13.2697   13.2697   13.4420   13.4420
   13.6421   13.6421   13.8930   13.8930   14.3603   14.3603   14.5238   14.5238   14.7406   14.7406
   14.7809   14.7809   15.0833   15.0833   15.5544   15.5544   16.0856   16.0856   16.3190   16.3190
   16.3687   16.3687   16.7995   16.7995   16.8819   16.8819   17.2295   17.2295   17.2983   17.2983
   17.8819   17.8819   18.0403   18.0403   18.3587   18.3587   18.5663   18.5663   18.7014   18.7014
   18.7667   18.7667   19.7768   19.7768   19.9638   19.9638   20.3005   20.3005   20.5892   20.5892
   20.9121   20.9121   21.0442   21.0442   21.2759   21.2759   21.4161   21.4161   22.2116   22.2116
   22.4494   22.4494   22.8140   22.8140   22.9674   22.9674   23.0283   23.0283   23.0652   23.0652
   24.2278   24.2278   24.6351   24.6351   25.1065   25.1065   25.5851   25.5851   25.8852   25.8852
   26.1425   26.1425   26.5918   26.5918   27.0458   27.0458   27.9401   27.9401   28.1558   28.1558
   28.4713   28.4713   28.5280   28.5280   29.8525   29.8525   29.9045   29.9045   30.5106   30.5106
   30.7681   30.7681   30.8346   30.8346   31.2908   31.2908   31.4204   31.4204   31.7141   31.7141
   31.7429   31.7429   32.3766   32.3766   32.3843   32.3843   33.4567   33.4567   33.6260   33.6260
   34.0075   34.0075   34.2726   34.2726   34.4899   34.4899   34.8889   34.8889   35.4614   35.4614
   35.8882   35.8882   36.0865   36.0865   36.3920   36.3920   37.1719   37.1719   37.5923   37.5923
   37.6087   37.6087   37.6794   37.6794   38.4817   38.4817   38.8366   38.8366   38.9602   38.9602
   39.8940   39.8940   40.4442   40.4442   40.7156   40.7156   41.3745   41.3745   41.6330   41.6330
   41.7417   41.7417   41.8610   41.8610   42.0320   42.0320   42.8974   42.8974   43.2716   43.2716
   43.8627   43.8627   44.4777   44.4777   44.7358   44.7358   44.9071   44.9071   45.2253   45.2253
   45.2416   45.2416   45.8534   45.8534   46.4445   46.4445   46.5618   46.5618   47.1643   47.1643
   47.6374   47.6374   48.0136   48.0136   48.5719   48.5719   48.8112   48.8113   49.2083   49.2083
   49.8746   49.8746   50.1957   50.1957   50.4281   50.4281   50.6026   50.6026   50.6929   50.6929
   51.8806   51.8806   52.2622   52.2622   53.9820   53.9820   54.0613   54.0613   54.9072   54.9072
   55.0747   55.0747   55.5172   55.5172   56.3303   56.3303   56.3894   56.3894   56.5201   56.5201
   56.8731   56.8731   57.5570   57.5570   58.5549   58.5549   59.0227   59.0227   59.6618   59.6618
   60.2459   60.2459   61.1999   61.1999   61.6071   61.6071   62.1837   62.1837   62.8319   62.8319
   65.6072   65.6072   66.3521   66.3521   67.1097   67.1097   67.2589   67.2589   68.1886   68.1886
   68.8222   68.8222   71.3906   71.3906   73.6425   73.6425   78.7039   78.7039   91.3926   91.3926
   92.4568   92.4568   92.9220   92.9220   95.5677   95.5677   97.7800   97.7800  100.4127  100.4127
  100.6535  100.6535  102.9738  102.9738  113.3474  113.3474  120.3579  120.3579  123.0334  123.0334
  135.6017  135.6017  140.4273  140.4273
siesta: Fermi energy =      -4.015697 eV

siesta: Program's energy decomposition (eV):
siesta: Ebs     =     -1120.343282
siesta: Eions   =      3553.971015
siesta: Ena     =       377.805312
siesta: Ekin    =      2751.268523
siesta: Enl     =     -2532.066580
siesta: Eso     =        -0.004697
siesta: Edftu   =         0.000000
siesta: DEna    =        37.131730
siesta: DUscf   =        14.134570
siesta: DUext   =         0.000000
siesta: Exc     =     -1093.006679
siesta: eta*DQ  =         0.000000
siesta: Emadel  =         0.000000
siesta: Emeta   =         0.000000
siesta: Emolmec =         0.000000
siesta: Ekinion =         0.000000
siesta: Eharris =     -3998.708834
siesta: Etot    =     -3998.708834
siesta: FreeEng =     -3998.708851

siesta: Final energy (eV):
siesta:  Band Struct. =   -1120.343282
siesta:       Kinetic =    2751.268523
siesta:       Hartree =    6994.220853
siesta:       Edftu   =       0.000000
siesta:       Eso     =      -0.004697
siesta:    Ext. field =       0.000000
siesta:   Exch.-corr. =   -1093.006679
siesta:  Ion-electron =  -16441.489901
siesta:       Ion-ion =    3790.303066
siesta:       Ekinion =       0.000000
siesta:         Total =   -3998.708834
siesta:         Fermi =      -4.015697

siesta: Atomic forces (eV/Ang):
siesta:      1   -0.047215   -0.026797    0.000002
siesta:      2   -0.011429   -0.046635   -0.000002
siesta:      3   -0.003459    0.040503    0.000004
siesta:      4   -0.050529    0.017187    0.000001
siesta:      5    0.016903   -0.042332   -0.000003
siesta:      6    0.022213    0.004021   -0.000000
siesta:      7   -0.058177    0.105171    0.000004
siesta:      8    0.052503   -0.041645   -0.000016
siesta:      9    0.082104   -0.079611    0.000022
siesta:     10    0.126620    0.116548    0.000004
siesta:     11   -0.040879   -0.038608   -0.000006
siesta:     12    0.038209    0.060354    0.000001
siesta:     13   -0.098180   -0.198954   -0.000000
siesta:     14   -0.011226   -0.066241    0.000000
siesta:     15    0.000393    0.065996   -0.000000
siesta:     16   -0.003902    0.082774    0.008012
siesta:     17   -0.011726   -0.044476   -0.039747
siesta:     18   -0.080254    0.087550    0.008228
siesta:     19    0.007530    0.031262   -0.041209
siesta:     20    0.041236   -0.057096    0.026832
siesta:     21   -0.084575    0.130413    0.070547
siesta:     22    0.182989    0.059626   -0.010736
siesta:     23   -0.016239    0.068097   -0.053076
siesta:     24    0.033088   -0.118390   -0.026627
siesta:     25   -2.030598    1.684669    0.003079
siesta:     26   -0.026533    0.070413    0.006526
siesta:     27   -0.009284   -0.108588    0.002788
siesta:     28    0.012862   -0.128460   -0.000879
siesta:     29    3.319892   -0.031888   -0.001102
siesta:     30    0.017663    0.194083    0.008279
siesta: ----------------------------------------
siesta:    Tot    1.370003    1.788947   -0.039074

siesta: Stress tensor (static) (eV/Ang**3):
siesta:    -0.001003    0.000165    0.000029
siesta:     0.000165   -0.000261   -0.000026
siesta:     0.000029   -0.000026   -0.000123

siesta: Cell volume =       4637.458964 Ang**3

siesta: Pressure (static):
siesta:                Solid            Molecule  Units
siesta:           0.00000503         -0.00001173  Ry/Bohr**3
siesta:           0.00046202         -0.00107718  eV/Ang**3
siesta:           0.74024498         -1.72585256  kBar
(Free)E+ p_basis*V_orbitals  =       -3977.580766
(Free)Eharris+ p_basis*V_orbitals  =       -3977.580766
     spin moment: S , {S} =    0.00000   0.00000  -0.00000   0.00000

siesta: Electric dipole (a.u.)  =   -0.322798    2.542941   -0.012924
siesta: Electric dipole (Debye) =   -0.820472    6.463516   -0.032849

cite: Please see "AT.bib" for an exhaustive BiBTeX file.
cite: Please clearly indicate Siesta version in published work: v4.1.5-1-g384057250
cite: This calculation has made use of the following articles
cite: which are encouraged to be cited in a published work.
        Primary SIESTA paper
          DOI: www.doi.org/10.1088/0953-8984/14/11/302
        Spin-orbit coupling (on-site approximation)
          DOI: www.doi.org/10.1088/0953-8984/19/19/489001


WARNING: alloc-realloc-dealloc name mismatch
         Name: atomlist isa
         Size:              -120. Bytes
         Node:     0
         Subsequent mismatches will not be reported
>> End of run:  22-MAY-2023  10:40:59
Job completed
