Siesta Version  : v4.1.5-1-g384057250
Architecture    : gcc
Compiler version: GNU Fortran (Debian 12.2.0-14) 12.2.0
Compiler flags  : mpifort -O2 -fPIC -ftree-vectorize -fallow-argument-mismatch
PP flags        : -DFC_HAVE_ABORT -DMPI -DSIESTA__FLOOK -DSIESTA__METIS -DSIESTA__MUMPS -DCDF -DNCDF -DNCDF_4 -DNCDF_PARALLEL -DSIESTA__MRRR -DSIESTA__ELPA
Libraries       : libncdf.a libfdict.a  -lflookall -ldl -lnetcdff -lnetcdf -lz -lscalapack-openmpi -lopenblas -lmetis -lzmumps -lcmumps -ldmumps -lmumps_common -lpord -lsmumps -lesmumps -lscotch -lscotcherr -fopenmp -lelpa
PARALLEL version
NetCDF support
NetCDF-4 support
NetCDF-4 MPI-IO support
METIS ordering support
Lua support

* Running on 32 nodes in parallel
>> Start of run:  16-OCT-2023  20:11:28

                           ***********************       
                           *  WELCOME TO SIESTA  *       
                           ***********************       

reinit: Reading from standard input
reinit: Dumped input in INPUT_TMP.03003
************************** Dump of input data file ****************************
# mpirun -np 4 siesta-4.1.5 < AT.fdf > AT.out &
SystemLabel      AT
NumberOfAtoms    30
NumberOfSpecies  4
%block ChemicalSpeciesLabel
    1    1  H
    2    7  N
    3   14  Si
    4    8  O
%endblock ChemicalSpeciesLabel
############################################
# This overrides Defaults.fdf configuration
############################################
MD.TypeOfRun                Verlet # CG, Verlet
MD.Steps                    0
MaxSCFIterations            300
AtomicCoordinatesFormat NotScaledCartesianAng
%block AtomicCoordinatesAndAtomicSpecies
    2.28494382 -5.19529124 0.0  1  1  H
    1.37433094 -4.6647107 0.0  2  2  N
    -0.21830245 -5.49458215 0.0  3  3  Si
    -0.17484108 -6.98516892 0.0  1  4  H
    -1.66171682 -4.58600741 0.0  2  5  N
    -1.09026419 -2.87456374 0.0  3  6  Si
    -1.53038332 -0.70765692 0.0  3  7  Si
    -3.14415959 -0.09186471 0.0  2  8  N
    -3.40268075 0.95848335 0.0  1  9  H
    -3.95073599 -0.76720972 0.0  1  10  H
    -0.17836637 0.41349951 0.0  2  11  N
    1.49520211 -0.0473996 0.0  3  12  Si
    2.45603905 1.10727302 0.0  1  13  H
    2.30451743 -1.58574382 0.0  2  14  N
    1.10725559 -2.84610319 0.0  3  15  Si
    0.6532899095209563 6.9511413387957255 0.0  1  16  H
    -0.15542077047904368 6.258935458795725 0.0  2  17  N
    -1.8120106104790437 6.972055558795725 0.0  3  18  Si
    -1.7151454404790436 8.482780768795726 0.0  1  19  H
    -3.5381669604790438 5.629007428795725 0.0  3  20  Si
    -5.892621210479044 5.621020498795725 0.0  3  21  Si
    -6.455039330479044 6.355510148795725 -1.20183078  1  22  H
    -6.192434960479044 4.141929368795725 -0.08618332  1  23  H
    -6.455151790479044 6.185852958795725 1.28814761  1  24  H
    -2.608776320479044 3.5584361987957256 0.0  3  25  Si
    -3.558244680479044 2.2699000687957254 0.0  4  26  O
    -0.8178314504790437 3.3847007287957256 0.0  2  27  N
    -0.48684009047904364 2.3523437487957257 0.0  1  28  H
    0.4906267695209563 4.579247148795725 0.0  3  29  Si
    2.056563699520956 4.312000298795725 0.0  4  30  O
%endblock AtomicCoordinatesAndAtomicSpecies
%include ../../../../Defaults.fdf
************************** End of input data file *****************************

reinit: -----------------------------------------------------------------------
reinit: System Name: 
reinit: -----------------------------------------------------------------------
reinit: System Label: AT
reinit: -----------------------------------------------------------------------

initatom: Reading input for the pseudopotentials and atomic orbitals ----------
Species number:   1 Atomic number:    1 Label: H
Species number:   2 Atomic number:    7 Label: N
Species number:   3 Atomic number:   14 Label: Si
Species number:   4 Atomic number:    8 Label: O

Ground state valence configuration:   1s01
Reading pseudopotential information in formatted form from H.psf

Pseudopotential generated from a relativistic atomic calculation

Valence configuration for pseudopotential generation:
1s( 1.00) rc: 0.01
2p( 0.00) rc: 0.60
3d( 0.00) rc: 1.99
4f( 0.00) rc: 2.49
Ground state valence configuration:   2s02  2p03
Reading pseudopotential information in formatted form from N.psf

Pseudopotential generated from a relativistic atomic calculation

Valence configuration for pseudopotential generation:
2s( 2.00) rc: 0.94
2p( 3.00) rc: 0.59
3d( 0.00) rc: 3.46
4f( 0.00) rc: 2.47
Ground state valence configuration:   3s02  3p02
Reading pseudopotential information in formatted form from Si.psf

Pseudopotential generated from a relativistic atomic calculation

Valence configuration for pseudopotential generation:
3s( 2.00) rc: 1.67
3p( 2.00) rc: 2.04
3d( 0.00) rc: 2.89
4f( 0.00) rc: 2.49
Ground state valence configuration:   2s02  2p04
Reading pseudopotential information in formatted form from O.psf

Pseudopotential generated from a relativistic atomic calculation

Valence configuration for pseudopotential generation:
2s( 2.00) rc: 0.45
2p( 4.00) rc: 0.92
3d( 0.00) rc: 2.24
4f( 0.00) rc: 0.25
For H, standard SIESTA heuristics set lmxkb to 2
 (one more than the basis l, including polarization orbitals).
Use PS.lmax or PS.KBprojectors blocks to override.
For N, standard SIESTA heuristics set lmxkb to 3
 (one more than the basis l, including polarization orbitals).
Use PS.lmax or PS.KBprojectors blocks to override.
For Si, standard SIESTA heuristics set lmxkb to 3
 (one more than the basis l, including polarization orbitals).
Use PS.lmax or PS.KBprojectors blocks to override.
For O, standard SIESTA heuristics set lmxkb to 3
 (one more than the basis l, including polarization orbitals).
Use PS.lmax or PS.KBprojectors blocks to override.

<basis_specs>
===============================================================================
H                    Z=   1    Mass=  1.0100        Charge= 0.17977+309
Lmxo=0 Lmxkb= 2    BasisType=split      Semic=F
L=0  Nsemic=0  Cnfigmx=1
          i=1  nzeta=2  polorb=1  (1s)
            splnorm:   0.62000    
               vcte:    0.0000    
               rinn:    0.0000    
               qcoe:    0.0000    
               qyuk:    0.0000    
               qwid:   0.10000E-01
                rcs:    0.0000      0.0000    
            lambdas:    1.0000      1.0000    
-------------------------------------------------------------------------------
L=0  Nkbl=1  erefs: 0.17977+309
L=1  Nkbl=1  erefs: 0.17977+309
L=2  Nkbl=1  erefs: 0.17977+309
===============================================================================
</basis_specs>

atom: Called for H                     (Z =   1)

read_vps: Pseudopotential generation method:
read_vps: ATM4.2.7  Troullier-Martins                       
Valence charge for ps generation:    1.00000

xc_check: Exchange-correlation functional:
xc_check: GGA Perdew, Burke & Ernzerhof 1996
V l=0 = -2*Zval/r beyond r=  0.0098
V l=1 = -2*Zval/r beyond r=  0.5817
V l=2 = -2*Zval/r beyond r=  1.9372
All V_l potentials equal beyond r=  1.9372
This should be close to max(r_c) in ps generation
All pots = -2*Zval/r beyond r=  1.9372

VLOCAL1: 99.0% of the norm of Vloc inside     11.567 Ry
VLOCAL1: 99.9% of the norm of Vloc inside     26.362 Ry
atom: Maximum radius for 4*pi*r*r*local-pseudopot. charge    2.25106
atom: Maximum radius for r*vlocal+2*Zval:    1.91306
GHOST: No ghost state for L =  0
GHOST: No ghost state for L =  1
GHOST: No ghost state for L =  2

KBgen: Kleinman-Bylander projectors: 
   l= 0   rc=  2.036604   el= -0.477180   Ekb= -6.081590   kbcos= -0.277285
   l= 1   rc=  2.195416   el=  0.001076   Ekb= -0.926943   kbcos= -0.034643
   l= 2   rc=  2.251056   el=  0.002010   Ekb= -0.130941   kbcos= -0.009788

KBgen: Total number of Kleinman-Bylander projectors:    9
atom: -------------------------------------------------------------------------

atom: SANKEY-TYPE ORBITALS:
atom: Selected multiple-zeta basis: split     

SPLIT: Orbitals with angular momentum L= 0

SPLIT: Basis orbitals for state 1s

SPLIT: PAO cut-off radius determined from an
SPLIT: energy shift=  0.002000 Ry

   izeta = 1
                 lambda =    1.000000
                     rc =    6.518340
                 energy =   -0.475305
                kinetic =    0.912139
    potential(screened) =   -1.387444
       potential(ionic) =   -1.907295

   izeta = 2
                 rmatch =    2.141150
              splitnorm =    0.620000
                 energy =    0.566467
                kinetic =    3.772856
    potential(screened) =   -3.206389
       potential(ionic) =   -3.759093

POLgen: Perturbative polarization orbital with L=  1

POLgen: Polarization orbital for state 1s

   izeta = 1
                     rc =    6.518340
                 energy =    0.533861
                kinetic =    1.121086
    potential(screened) =   -0.587225
       potential(ionic) =   -1.053027
atom: Total number of Sankey-type orbitals:  5

atm_pop: Valence configuration (for local Pseudopot. screening):
 1s( 1.00)                                                            
Vna: chval, zval:    1.00000   1.00000

Vna:  Cut-off radius for the neutral-atom potential:   6.518340

atom: _________________________________________________________________________

<basis_specs>
===============================================================================
N                    Z=   7    Mass=  14.010        Charge= 0.17977+309
Lmxo=1 Lmxkb= 3    BasisType=split      Semic=F
L=0  Nsemic=0  Cnfigmx=2
          i=1  nzeta=2  polorb=0  (2s)
            splnorm:   0.28000    
               vcte:    0.0000    
               rinn:    0.0000    
               qcoe:    0.0000    
               qyuk:    0.0000    
               qwid:   0.10000E-01
                rcs:    0.0000      0.0000    
            lambdas:    1.0000      1.0000    
L=1  Nsemic=0  Cnfigmx=2
          i=1  nzeta=2  polorb=1  (2p)
            splnorm:   0.28000    
               vcte:    0.0000    
               rinn:    0.0000    
               qcoe:    0.0000    
               qyuk:    0.0000    
               qwid:   0.10000E-01
                rcs:    0.0000      0.0000    
            lambdas:    1.0000      1.0000    
-------------------------------------------------------------------------------
L=0  Nkbl=1  erefs: 0.17977+309
L=1  Nkbl=1  erefs: 0.17977+309
L=2  Nkbl=1  erefs: 0.17977+309
L=3  Nkbl=1  erefs: 0.17977+309
===============================================================================
</basis_specs>

atom: Called for N                     (Z =   7)

read_vps: Pseudopotential generation method:
read_vps: ATM4.2.7  Troullier-Martins                       
Valence charge for ps generation:    5.00000

xc_check: Exchange-correlation functional:
xc_check: GGA Perdew, Burke & Ernzerhof 1996
V l=0 = -2*Zval/r beyond r=  1.2889
V l=1 = -2*Zval/r beyond r=  1.2889
V l=2 = -2*Zval/r beyond r=  3.4178
V l=3 = -2*Zval/r beyond r=  2.4084
All V_l potentials equal beyond r=  3.3753
This should be close to max(r_c) in ps generation
All pots = -2*Zval/r beyond r=  3.4178

VLOCAL1: 99.0% of the norm of Vloc inside      3.810 Ry
VLOCAL1: 99.9% of the norm of Vloc inside      8.683 Ry
atom: Maximum radius for 4*pi*r*r*local-pseudopot. charge    4.02088
atom: Maximum radius for r*vlocal+2*Zval:    3.54838
GHOST: No ghost state for L =  0
GHOST: No ghost state for L =  1
GHOST: No ghost state for L =  2
GHOST: No ghost state for L =  3

KBgen: Kleinman-Bylander projectors: 
   l= 0   rc=  3.417763   el= -1.365098   Ekb= -4.433130   kbcos= -0.707855
   l= 1   rc=  3.375302   el= -0.521201   Ekb=-13.264039   kbcos= -0.535594
   l= 2   rc=  3.872880   el=  0.001991   Ekb= -0.641094   kbcos= -0.062456
   l= 3   rc=  3.970931   el=  0.003093   Ekb= -0.474517   kbcos= -0.018236

KBgen: Total number of Kleinman-Bylander projectors:   16
atom: -------------------------------------------------------------------------

atom: SANKEY-TYPE ORBITALS:
atom: Selected multiple-zeta basis: split     

SPLIT: Orbitals with angular momentum L= 0

SPLIT: Basis orbitals for state 2s

SPLIT: PAO cut-off radius determined from an
SPLIT: energy shift=  0.002000 Ry

   izeta = 1
                 lambda =    1.000000
                     rc =    4.730425
                 energy =   -1.363399
                kinetic =    1.245246
    potential(screened) =   -2.608645
       potential(ionic) =   -8.121105

   izeta = 2
                 rmatch =    2.531849
              splitnorm =    0.280000
                 energy =   -0.959908
                kinetic =    2.409435
    potential(screened) =   -3.369343
       potential(ionic) =   -9.427975

SPLIT: Orbitals with angular momentum L= 1

SPLIT: Basis orbitals for state 2p

SPLIT: PAO cut-off radius determined from an
SPLIT: energy shift=  0.002000 Ry

   izeta = 1
                 lambda =    1.000000
                     rc =    5.924108
                 energy =   -0.519262
                kinetic =    3.672940
    potential(screened) =   -4.192202
       potential(ionic) =   -9.518354

   izeta = 2
                 rmatch =    2.531849
              splitnorm =    0.280000
                 energy =   -0.104258
                kinetic =    6.807538
    potential(screened) =   -6.911796
       potential(ionic) =  -13.149920

POLgen: Perturbative polarization orbital with L=  2

POLgen: Polarization orbital for state 2p

   izeta = 1
                     rc =    5.924108
                 energy =    1.427508
                kinetic =    2.872379
    potential(screened) =   -1.444871
       potential(ionic) =   -5.563644
atom: Total number of Sankey-type orbitals: 13

atm_pop: Valence configuration (for local Pseudopot. screening):
 2s( 2.00)                                                            
 2p( 3.00)                                                            
Vna: chval, zval:    5.00000   5.00000

Vna:  Cut-off radius for the neutral-atom potential:   5.924108

atom: _________________________________________________________________________

<basis_specs>
===============================================================================
Si                   Z=  14    Mass=  28.090        Charge= 0.17977+309
Lmxo=1 Lmxkb= 3    BasisType=split      Semic=F
L=0  Nsemic=0  Cnfigmx=3
          i=1  nzeta=2  polorb=0  (3s)
            splnorm:   0.28000    
               vcte:    0.0000    
               rinn:    0.0000    
               qcoe:    0.0000    
               qyuk:    0.0000    
               qwid:   0.10000E-01
                rcs:    0.0000      0.0000    
            lambdas:    1.0000      1.0000    
L=1  Nsemic=0  Cnfigmx=3
          i=1  nzeta=2  polorb=1  (3p)
            splnorm:   0.28000    
               vcte:    0.0000    
               rinn:    0.0000    
               qcoe:    0.0000    
               qyuk:    0.0000    
               qwid:   0.10000E-01
                rcs:    0.0000      0.0000    
            lambdas:    1.0000      1.0000    
-------------------------------------------------------------------------------
L=0  Nkbl=1  erefs: 0.17977+309
L=1  Nkbl=1  erefs: 0.17977+309
L=2  Nkbl=1  erefs: 0.17977+309
L=3  Nkbl=1  erefs: 0.17977+309
===============================================================================
</basis_specs>

atom: Called for Si                    (Z =  14)

read_vps: Pseudopotential generation method:
read_vps: ATM4.2.7  Troullier-Martins                       
Valence charge for ps generation:    4.00000

xc_check: Exchange-correlation functional:
xc_check: GGA Perdew, Burke & Ernzerhof 1996
V l=0 = -2*Zval/r beyond r=  2.7826
V l=1 = -2*Zval/r beyond r=  2.7826
V l=2 = -2*Zval/r beyond r=  2.9253
V l=3 = -2*Zval/r beyond r=  2.7826
All V_l potentials equal beyond r=  2.8530
This should be close to max(r_c) in ps generation
All pots = -2*Zval/r beyond r=  2.9253

VLOCAL1: 99.0% of the norm of Vloc inside      5.333 Ry
VLOCAL1: 99.9% of the norm of Vloc inside     12.154 Ry
atom: Maximum radius for 4*pi*r*r*local-pseudopot. charge    3.39869
atom: Maximum radius for r*vlocal+2*Zval:    2.96205
GHOST: No ghost state for L =  0
GHOST: No ghost state for L =  1
GHOST: No ghost state for L =  2
GHOST: No ghost state for L =  3

KBgen: Kleinman-Bylander projectors: 
   l= 0   rc=  3.075247   el= -0.794092   Ekb=  5.879390   kbcos=  0.167461
   l= 1   rc=  3.153101   el= -0.300068   Ekb=  2.642817   kbcos=  0.058301
   l= 2   rc=  3.273594   el=  0.001958   Ekb= -1.185135   kbcos= -0.104411
   l= 3   rc=  3.232927   el=  0.003046   Ekb= -0.497174   kbcos= -0.015889

KBgen: Total number of Kleinman-Bylander projectors:   16
atom: -------------------------------------------------------------------------

atom: SANKEY-TYPE ORBITALS:
atom: Selected multiple-zeta basis: split     

SPLIT: Orbitals with angular momentum L= 0

SPLIT: Basis orbitals for state 3s

SPLIT: PAO cut-off radius determined from an
SPLIT: energy shift=  0.002000 Ry

   izeta = 1
                 lambda =    1.000000
                     rc =    6.429618
                 energy =   -0.792283
                kinetic =    0.525293
    potential(screened) =   -1.317576
       potential(ionic) =   -3.744923

   izeta = 2
                 rmatch =    3.998416
              splitnorm =    0.280000
                 energy =   -0.583081
                kinetic =    1.069570
    potential(screened) =   -1.652651
       potential(ionic) =   -4.235185

SPLIT: Orbitals with angular momentum L= 1

SPLIT: Basis orbitals for state 3p

SPLIT: PAO cut-off radius determined from an
SPLIT: energy shift=  0.002000 Ry

   izeta = 1
                 lambda =    1.000000
                     rc =    8.464845
                 energy =   -0.298236
                kinetic =    0.785360
    potential(screened) =   -1.083596
       potential(ionic) =   -3.273779

   izeta = 2
                 rmatch =    4.587816
              splitnorm =    0.280000
                 energy =   -0.131871
                kinetic =    1.403687
    potential(screened) =   -1.535557
       potential(ionic) =   -4.015310

POLgen: Perturbative polarization orbital with L=  2

POLgen: Polarization orbital for state 3p

   izeta = 1
                     rc =    8.464845
                 energy =    0.321949
                kinetic =    1.055677
    potential(screened) =   -0.733728
       potential(ionic) =   -2.672950
atom: Total number of Sankey-type orbitals: 13

atm_pop: Valence configuration (for local Pseudopot. screening):
 3s( 2.00)                                                            
 3p( 2.00)                                                            
Vna: chval, zval:    4.00000   4.00000

Vna:  Cut-off radius for the neutral-atom potential:   8.464845

atom: _________________________________________________________________________

<basis_specs>
===============================================================================
O                    Z=   8    Mass=  16.000        Charge= 0.17977+309
Lmxo=1 Lmxkb= 3    BasisType=split      Semic=F
L=0  Nsemic=0  Cnfigmx=2
          i=1  nzeta=2  polorb=0  (2s)
            splnorm:   0.28000    
               vcte:    0.0000    
               rinn:    0.0000    
               qcoe:    0.0000    
               qyuk:    0.0000    
               qwid:   0.10000E-01
                rcs:    0.0000      0.0000    
            lambdas:    1.0000      1.0000    
L=1  Nsemic=0  Cnfigmx=2
          i=1  nzeta=2  polorb=1  (2p)
            splnorm:   0.28000    
               vcte:    0.0000    
               rinn:    0.0000    
               qcoe:    0.0000    
               qyuk:    0.0000    
               qwid:   0.10000E-01
                rcs:    0.0000      0.0000    
            lambdas:    1.0000      1.0000    
-------------------------------------------------------------------------------
L=0  Nkbl=1  erefs: 0.17977+309
L=1  Nkbl=1  erefs: 0.17977+309
L=2  Nkbl=1  erefs: 0.17977+309
L=3  Nkbl=1  erefs: 0.17977+309
===============================================================================
</basis_specs>

atom: Called for O                     (Z =   8)

read_vps: Pseudopotential generation method:
read_vps: ATM4.2.7  Troullier-Martins                       
Valence charge for ps generation:    6.00000

xc_check: Exchange-correlation functional:
xc_check: GGA Perdew, Burke & Ernzerhof 1996
V l=0 = -2*Zval/r beyond r=  1.1000
V l=1 = -2*Zval/r beyond r=  1.1000
V l=2 = -2*Zval/r beyond r=  2.2154
V l=3 = -2*Zval/r beyond r=  1.1000
All V_l potentials equal beyond r=  2.2154
This should be close to max(r_c) in ps generation
All pots = -2*Zval/r beyond r=  2.2154

VLOCAL1: 99.0% of the norm of Vloc inside      8.845 Ry
VLOCAL1: 99.9% of the norm of Vloc inside     20.157 Ry
atom: Maximum radius for 4*pi*r*r*local-pseudopot. charge    2.67231
atom: Maximum radius for r*vlocal+2*Zval:    2.32897
GHOST: No ghost state for L =  0
GHOST: No ghost state for L =  1
GHOST: No ghost state for L =  2
GHOST: No ghost state for L =  3

KBgen: Kleinman-Bylander projectors: 
   l= 0   rc=  2.243238   el= -1.759686   Ekb=**********   kbcos= -0.171774
   l= 1   rc=  2.328968   el= -0.663873   Ekb=-14.506792   kbcos= -0.519897
   l= 2   rc=  2.573941   el=  0.002031   Ekb= -1.137373   kbcos= -0.019581
   l= 3   rc=  2.606321   el=  0.003153   Ekb= -1.013546   kbcos= -0.003122

KBgen: Total number of Kleinman-Bylander projectors:   16
atom: -------------------------------------------------------------------------

atom: SANKEY-TYPE ORBITALS:
atom: Selected multiple-zeta basis: split     

SPLIT: Orbitals with angular momentum L= 0

SPLIT: Basis orbitals for state 2s

SPLIT: PAO cut-off radius determined from an
SPLIT: energy shift=  0.002000 Ry

   izeta = 1
                 lambda =    1.000000
                     rc =    4.243912
                 energy =   -1.758270
                kinetic =    3.286084
    potential(screened) =   -5.044353
       potential(ionic) =  -12.921184

   izeta = 2
                 rmatch =    2.187845
              splitnorm =    0.280000
                 energy =   -0.885018
                kinetic =    8.134434
    potential(screened) =   -9.019452
       potential(ionic) =  -17.710645

SPLIT: Orbitals with angular momentum L= 1

SPLIT: Basis orbitals for state 2p

SPLIT: PAO cut-off radius determined from an
SPLIT: energy shift=  0.002000 Ry

   izeta = 1
                 lambda =    1.000000
                     rc =    5.314825
                 energy =   -0.661986
                kinetic =    4.917472
    potential(screened) =   -5.579458
       potential(ionic) =  -13.236259

   izeta = 2
                 rmatch =    2.160663
              splitnorm =    0.280000
                 energy =   -0.068760
                kinetic =    9.183374
    potential(screened) =   -9.252135
       potential(ionic) =  -18.274251

POLgen: Perturbative polarization orbital with L=  2

POLgen: Polarization orbital for state 2p

   izeta = 1
                     rc =    5.314825
                 energy =    1.970580
                kinetic =    3.886128
    potential(screened) =   -1.915547
       potential(ionic) =   -7.749584
atom: Total number of Sankey-type orbitals: 13

atm_pop: Valence configuration (for local Pseudopot. screening):
 2s( 2.00)                                                            
 2p( 4.00)                                                            
Vna: chval, zval:    6.00000   6.00000

Vna:  Cut-off radius for the neutral-atom potential:   5.314825

atom: _________________________________________________________________________

prinput: Basis input ----------------------------------------------------------

PAO.BasisType split     

%block ChemicalSpeciesLabel
    1    1 H                       # Species index, atomic number, species label
    2    7 N                       # Species index, atomic number, species label
    3   14 Si                      # Species index, atomic number, species label
    4    8 O                       # Species index, atomic number, species label
%endblock ChemicalSpeciesLabel

%block PAO.Basis                 # Define Basis set
H                     1                    # Species label, number of l-shells
 n=1   0   2 P   1                   # n, l, Nzeta, Polarization, NzetaPol
   6.518      2.141   
   1.000      1.000   
N                     2                    # Species label, number of l-shells
 n=2   0   2                         # n, l, Nzeta 
   4.730      2.532   
   1.000      1.000   
 n=2   1   2 P   1                   # n, l, Nzeta, Polarization, NzetaPol
   5.924      2.532   
   1.000      1.000   
Si                    2                    # Species label, number of l-shells
 n=3   0   2                         # n, l, Nzeta 
   6.430      3.998   
   1.000      1.000   
 n=3   1   2 P   1                   # n, l, Nzeta, Polarization, NzetaPol
   8.465      4.588   
   1.000      1.000   
O                     2                    # Species label, number of l-shells
 n=2   0   2                         # n, l, Nzeta 
   4.244      2.188   
   1.000      1.000   
 n=2   1   2 P   1                   # n, l, Nzeta, Polarization, NzetaPol
   5.315      2.161   
   1.000      1.000   
%endblock PAO.Basis

prinput: ----------------------------------------------------------------------

Dumping basis to NetCDF file H.ion.nc
Dumping basis to NetCDF file N.ion.nc
Dumping basis to NetCDF file Si.ion.nc
Dumping basis to NetCDF file O.ion.nc
coor:   Atomic-coordinates input format  =     Cartesian coordinates
coor:                                          (in Angstroms)

siesta: Atomic coordinates (Bohr) and species
siesta:      4.31792  -9.81768   0.00000  1        1
siesta:      2.59711  -8.81503   0.00000  2        2
siesta:     -0.41253 -10.38326   0.00000  3        3
siesta:     -0.33040 -13.20006   0.00000  1        4
siesta:     -3.14019  -8.66630   0.00000  2        5
siesta:     -2.06030  -5.43214   0.00000  3        6
siesta:     -2.89201  -1.33728   0.00000  3        7
siesta:     -5.94160  -0.17360   0.00000  2        8
siesta:     -6.43014   1.81127   0.00000  1        9
siesta:     -7.46581  -1.44982   0.00000  1       10
siesta:     -0.33706   0.78140   0.00000  2       11
siesta:      2.82552  -0.08957   0.00000  3       12
siesta:      4.64124   2.09244   0.00000  1       13
siesta:      4.35491  -2.99662   0.00000  2       14
siesta:      2.09241  -5.37836   0.00000  3       15
siesta:      1.23454  13.13576   0.00000  1       16
siesta:     -0.29370  11.82768   0.00000  2       17
siesta:     -3.42421  13.17528   0.00000  3       18
siesta:     -3.24116  16.03014   0.00000  1       19
siesta:     -6.68617  10.63729   0.00000  3       20
siesta:    -11.13544  10.62219   0.00000  3       21
siesta:    -12.19826  12.01018  -2.27113  1       22
siesta:    -11.70201   7.82712  -0.16286  1       23
siesta:    -12.19847  11.68957   2.43425  1       24
siesta:     -4.92987   6.72447   0.00000  3       25
siesta:     -6.72411   4.28949   0.00000  4       26
siesta:     -1.54548   6.39616   0.00000  2       27
siesta:     -0.91999   4.44529   0.00000  1       28
siesta:      0.92715   8.65353   0.00000  3       29
siesta:      3.88634   8.14850   0.00000  4       30

siesta: Automatic unit cell vectors (Ang):
siesta:   17.981289    0.000000    0.000000
siesta:    0.000000   24.603327    0.000000
siesta:    0.000000    0.000000   10.327559

siesta: System type = molecule  

initatomlists: Number of atoms, orbitals, and projectors:     30   302   403

siesta: ******************** Simulation parameters ****************************
siesta:
siesta: The following are some of the parameters of the simulation.
siesta: A complete list of the parameters used, including default values,
siesta: can be found in file out.fdf
siesta:
redata: Spin configuration                          = spin-orbit
redata: Number of spin components                   = 8
redata: Time-Reversal Symmetry                      = F
redata: Spin spiral                                 = F
############################################################
This spin-orbit implementation uses a local approximation.
From 4.2 and onwards the full non-local approximation is implemented
You are strongly advised to use >=4.2 versions!
############################################################
redata: Long output                                 =   F
redata: Number of Atomic Species                    =        4
redata: Charge density info will appear in .RHO file
redata: Write Mulliken Pop.                         = NO
redata: Matel table size (NRTAB)                    =     1024
redata: Mesh Cutoff                                 =   340.0000 Ry
redata: Net charge of the system                    =     0.0000 |e|
redata: Min. number of SCF Iter                     =        1
redata: Max. number of SCF Iter                     =      300
redata: SCF convergence failure will abort job
redata: SCF mix quantity                            = Hamiltonian
redata: Mix DM or H after convergence               =   F
redata: Recompute H after scf cycle                 =   F
redata: Mix DM in first SCF step                    =   T
redata: Write Pulay info on disk                    =   F
redata: New DM Occupancy tolerance                  = 0.000000000001
redata: No kicks to SCF
redata: DM Mixing Weight for Kicks                  =     0.5000
redata: Require Harris convergence for SCF          =   F
redata: Harris energy tolerance for SCF             =     0.000100 eV
redata: Require DM convergence for SCF              =   T
redata: DM tolerance for SCF                        =     0.000008
redata: Require EDM convergence for SCF             =   F
redata: EDM tolerance for SCF                       =     0.001000 eV
redata: Require H convergence for SCF               =   T
redata: Hamiltonian tolerance for SCF               =     0.000001 eV
redata: Require (free) Energy convergence for SCF   =   F
redata: (free) Energy tolerance for SCF             =     0.000100 eV
redata: Using Saved Data (generic)                  =   F
redata: Use continuation files for DM               =   T
redata: Neglect nonoverlap interactions             =   F
redata: Method of Calculation                       = Diagonalization
redata: Electronic Temperature                      =   299.9978 K
redata: Fix the spin of the system                  =   F
redata: Dynamics option                             = Verlet MD run
redata: Initial MD time step                        =        1
redata:   Final MD time step                        =        1
redata: Length of MD time step                      =     0.5000 fs
redata: Initial Temperature of MD run               =     0.0000 K
redata: Perform a MD quench                         =   F
mix.SCF: Pulay mixing                            = Pulay
mix.SCF:    Variant                              = stable
mix.SCF:    History steps                        = 6
mix.SCF:    Linear mixing weight                 =     0.250000
mix.SCF:    Mixing weight                        =     0.250000
mix.SCF:    SVD condition                        = 0.1000E-07
mix.SCF:    Restart steps                        = 24
mix.SCF:    Restart save steps                   = 3
mix.SCF: Spin-component mixing                   all
redata: Save all siesta data in one NC              =   F
redata: ***********************************************************************

%block SCF.Mixers
  Pulay
%endblock SCF.Mixers

%block SCF.Mixer.Pulay
  # Mixing method
  method pulay
  variant stable

  # Mixing options
  weight 0.2500
  weight.linear 0.2500
  history 6
  restart 24
  restart.save 3
%endblock SCF.Mixer.Pulay

Size of DM history Fstack: 3
Total number of electrons:    98.000000
Total ionic charge:    98.000000

* ProcessorY, Blocksize:    4   9


* Orbital distribution balance (max,min):    18     9


Time-reversal symmetry not used.

siesta: k-grid: Number of k-points =     1
siesta: k-grid: Cutoff (effective) =     5.164 Ang
siesta: k-grid: Supercell and displacements
siesta: k-grid:    1   0   0      0.000
siesta: k-grid:    0   1   0      0.000
siesta: k-grid:    0   0   1      0.000

diag: Algorithm                                     = ELPA-1stage
diag: Parallel over k                               =   F
diag: Use parallel 2D distribution                  =   T
diag: Parallel block-size                           = 9
diag: Parallel distribution                         =     4 x     8
diag: Used triangular part                          = Lower
diag: Absolute tolerance                            =  0.100E-15
diag: Orthogonalization factor                      =  0.100E-05
diag: Memory factor                                 =  1.0000


ts: **************************************************************
ts: Save H and S matrices                           =    F
ts: Save DM and EDM matrices                        =    F
ts: Only save the overlap matrix S                  =    F
ts: **************************************************************

************************ Begin: TS CHECKS AND WARNINGS ************************
************************ End: TS CHECKS AND WARNINGS **************************


                     ====================================
                        Begin MD step =      1
                     ====================================

outcoor: Atomic coordinates (Ang):                          
    2.28494382   -5.19529124    0.00000000   1       1  H
    1.37433094   -4.66471070    0.00000000   2       2  N
   -0.21830245   -5.49458215    0.00000000   3       3  Si
   -0.17484108   -6.98516892    0.00000000   1       4  H
   -1.66171682   -4.58600741    0.00000000   2       5  N
   -1.09026419   -2.87456374    0.00000000   3       6  Si
   -1.53038332   -0.70765692    0.00000000   3       7  Si
   -3.14415959   -0.09186471    0.00000000   2       8  N
   -3.40268075    0.95848335    0.00000000   1       9  H
   -3.95073599   -0.76720972    0.00000000   1      10  H
   -0.17836637    0.41349951    0.00000000   2      11  N
    1.49520211   -0.04739960    0.00000000   3      12  Si
    2.45603905    1.10727302    0.00000000   1      13  H
    2.30451743   -1.58574382    0.00000000   2      14  N
    1.10725559   -2.84610319    0.00000000   3      15  Si
    0.65328991    6.95114134    0.00000000   1      16  H
   -0.15542077    6.25893546    0.00000000   2      17  N
   -1.81201061    6.97205556    0.00000000   3      18  Si
   -1.71514544    8.48278077    0.00000000   1      19  H
   -3.53816696    5.62900743    0.00000000   3      20  Si
   -5.89262121    5.62102050    0.00000000   3      21  Si
   -6.45503933    6.35551015   -1.20183078   1      22  H
   -6.19243496    4.14192937   -0.08618332   1      23  H
   -6.45515179    6.18585296    1.28814761   1      24  H
   -2.60877632    3.55843620    0.00000000   3      25  Si
   -3.55824468    2.26990007    0.00000000   4      26  O
   -0.81783145    3.38470073    0.00000000   2      27  N
   -0.48684009    2.35234375    0.00000000   1      28  H
    0.49062677    4.57924715    0.00000000   3      29  Si
    2.05656370    4.31200030    0.00000000   4      30  O

outcell: Unit cell vectors (Ang):
       17.981289    0.000000    0.000000
        0.000000   24.603327    0.000000
        0.000000    0.000000   10.327559

outcell: Cell vector modules (Ang)   :   17.981289   24.603327   10.327559
outcell: Cell angles (23,13,12) (deg):     90.0000     90.0000     90.0000
outcell: Cell volume (Ang**3)        :   4568.9073
<dSpData1D:S at geom step 1
  <sparsity:sparsity for geom step 1
    nrows_g=302 nrows=18 sparsity=.0392 nnzs=3575, refcount: 8>
  <dData1D:(new from dSpData1D) n=3575, refcount: 1>
refcount: 1>
new_DM -- step:     1
Initializing Density Matrix...

Attempting to read DM from file... Failed...
DM filled with atomic data:
<dSpData2D:DM initialized from atoms
  <sparsity:sparsity for geom step 1
    nrows_g=302 nrows=18 sparsity=.0392 nnzs=3575, refcount: 9>
  <dData2D:DM n=3575 m=8, refcount: 1>
refcount: 1>
     spin moment: S , {S} =   56.00000   0.00000   0.00000  56.00000
No. of atoms with KB's overlaping orbs in proc 0. Max # of overlaps:      25     205

Initializing spin-orbit part of the Hamiltonian
  Adding spin-orbit effects for H 
  Adding spin-orbit effects for N 
  Adding spin-orbit effects for Si
  Adding spin-orbit effects for O 


New grid distribution:   1
           1       1:  100    1:   36    1:    8
           2       1:  100    1:   36    9:   16
           3       1:  100    1:   36   17:   24
           4       1:  100    1:   36   25:   32
           5       1:  100    1:   36   33:   39
           6       1:  100    1:   36   40:   46
           7       1:  100    1:   36   47:   53
           8       1:  100    1:   36   54:   60
           9       1:  100   37:   72    1:    8
          10       1:  100   37:   72    9:   16
          11       1:  100   37:   72   17:   24
          12       1:  100   37:   72   25:   32
          13       1:  100   37:   72   33:   39
          14       1:  100   37:   72   40:   46
          15       1:  100   37:   72   47:   53
          16       1:  100   37:   72   54:   60
          17       1:  100   73:  108    1:    8
          18       1:  100   73:  108    9:   16
          19       1:  100   73:  108   17:   24
          20       1:  100   73:  108   25:   32
          21       1:  100   73:  108   33:   39
          22       1:  100   73:  108   40:   46
          23       1:  100   73:  108   47:   53
          24       1:  100   73:  108   54:   60
          25       1:  100  109:  144    1:    8
          26       1:  100  109:  144    9:   16
          27       1:  100  109:  144   17:   24
          28       1:  100  109:  144   25:   32
          29       1:  100  109:  144   33:   39
          30       1:  100  109:  144   40:   46
          31       1:  100  109:  144   47:   53
          32       1:  100  109:  144   54:   60

InitMesh: MESH =   200 x   288 x   120 =     6912000
InitMesh: (bp) =   100 x   144 x    60 =      864000
InitMesh: Mesh cutoff (required, used) =   340.000   341.916 Ry
ExtMesh (bp) on 0 =   200 x   144 x   116 =     3340800
New grid distribution:   2
           1      13:   81    1:   20    1:   18
           2      59:   81   21:   37    1:   21
           3       1:   12    1:   20    1:   18
           4      13:   81    1:   20   19:   60
           5       1:   60   21:   37   22:   60
           6       1:   10   38:  123    1:   20
           7       1:   12    1:   20   19:   60
           8      82:   91   19:   37    1:   21
           9      11:   76   38:  123    1:   20
          10       1:   58   21:   37    1:   21
          11      82:   91    1:   18   19:   60
          12      92:  100  123:  144    1:   20
          13       1:   10   38:  123   21:   60
          14      92:  100   38:  122    1:   20
          15      82:   91   19:   37   22:   60
          16       1:    9  124:  144    1:   20
          17      77:   91   38:  122    1:   20
          18      92:  100    1:   18   19:   60
          19      92:  100   19:   37    1:   21
          20      11:   76   38:  123   21:   60
          21      77:   91   38:  122   21:   60
          22      61:   81   21:   37   22:   60
          23      92:  100   19:   37   22:   60
          24      82:   91    1:   18    1:   18
          25      10:   76  124:  144    1:   20
          26      77:   91  123:  144    1:   20
          27      93:  100  123:  144   21:   60
          28      10:   76  124:  144   21:   60
          29      92:  100   38:  122   21:   60
          30      77:   92  123:  144   21:   60
          31       1:    9  124:  144   21:   60
          32      92:  100    1:   18    1:   18
New grid distribution:   3
           1      18:   64    1:   25    1:   25
           2       1:   17    1:   25   26:   60
           3       1:   22   26:   48    1:   25
           4      18:   64    1:   25   26:   60
           5      17:   70  118:  144    1:   25
           6      90:  100   49:  113    1:   24
           7      65:   83    1:   25   26:   60
           8      65:   83    1:   25    1:   25
           9      13:   70   49:  117    1:   24
          10      23:   64   26:   48    1:   25
          11      84:  100    1:   25   26:   60
          12      83:  100   26:   48    1:   26
          13      23:   64   26:   48   26:   60
          14       1:   22   26:   48   26:   60
          15      88:  100  114:  144   26:   60
          16      65:   82   26:   48    1:   26
          17      71:   89   49:  113    1:   24
          18      65:   82   26:   48   27:   60
          19      84:  100    1:   25    1:   25
          20      13:   70   49:  117   25:   60
          21      71:   89   49:  113   25:   60
          22      90:  100   49:  113   25:   60
          23      83:  100   26:   48   27:   60
          24       1:   17    1:   25    1:   25
          25       1:   12   49:  117    1:   24
          26      71:   87  114:  144    1:   25
          27       1:   16  118:  144    1:   25
          28      16:   70  118:  144   26:   60
          29       1:   12   49:  117   25:   60
          30      71:   87  114:  144   26:   60
          31       1:   15  118:  144   26:   60
          32      88:  100  114:  144    1:   25
Setting up quadratic distribution...
ExtMesh (bp) on 0 =   169 x   128 x   126 =     2725632
PhiOnMesh: Number of (b)points on node 0 =                24840
PhiOnMesh: nlist on node 0 =               402636

stepf: Fermi-Dirac step function

siesta: Program's energy decomposition (eV):
siesta: Ebs     =      -632.153580
siesta: Eions   =      3553.971015
siesta: Ena     =       375.191318
siesta: Ekin    =      3171.416975
siesta: Enl     =     -2985.578793
siesta: Eso     =        -0.003935
siesta: Edftu   =         0.000000
siesta: DEna    =       130.990455
siesta: DUscf   =        73.484056
siesta: DUext   =         0.000000
siesta: Exc     =     -1169.263529
siesta: eta*DQ  =         0.000000
siesta: Emadel  =         0.000000
siesta: Emeta   =         0.000000
siesta: Emolmec =         0.000000
siesta: Ekinion =         0.000000
siesta: Eharris =     -3887.052491
siesta: Etot    =     -3957.734468
siesta: FreeEng =     -3957.738143

        iscf     Eharris(eV)        E_KS(eV)     FreeEng(eV)     dDmax    Ef(eV) dHmax(eV)
   scf:    1    -3887.052491    -3957.734468    -3957.738143  0.966971 -4.946548 20.335149
     spin moment: S , {S} =    2.02685  -0.00000  -0.00000   2.02685
timer: Routine,Calls,Time,% = IterSCF        1       3.774   8.99
   scf:    2    -4001.124595    -3991.130038    -3991.130040  0.456060 -4.292723  9.834020
     spin moment: S , {S} =    2.00010   0.00000  -0.00000   2.00010
   scf:    3    -3994.773234    -3996.235401    -3996.242513  0.422470 -4.173650  5.575176
     spin moment: S , {S} =    0.06055  -0.00000   0.00000   0.06055
   scf:    4    -3998.975863    -3997.750512    -3997.750512  0.025907 -3.868541  4.084132
     spin moment: S , {S} =    0.00009  -0.00000   0.00000   0.00009
   scf:    5    -3999.397085    -3998.606709    -3998.606721  0.033808 -3.806298  2.126532
     spin moment: S , {S} =    0.00009  -0.00000   0.00000   0.00009
   scf:    6    -3999.275504    -3998.942158    -3998.942359  0.028401 -3.839302  0.852920
     spin moment: S , {S} =    0.00091  -0.00000   0.00000   0.00091
   scf:    7    -3999.156979    -3999.044573    -3999.045294  0.017539 -3.892428  0.350532
     spin moment: S , {S} =    0.00023  -0.00000   0.00000  -0.00023
   scf:    8    -3999.108605    -3999.075620    -3999.076201  0.008476 -3.916663  0.193634
     spin moment: S , {S} =    0.00141  -0.00000   0.00000  -0.00141
   scf:    9    -3999.105511    -3999.089883    -3999.090243  0.006718 -3.920776  0.100458
     spin moment: S , {S} =    0.00071  -0.00000   0.00000  -0.00071
   scf:   10    -3999.104906    -3999.096934    -3999.097295  0.005154 -3.922361  0.069650
     spin moment: S , {S} =    0.00071  -0.00000  -0.00000  -0.00071
   scf:   11    -3999.109934    -3999.102586    -3999.102883  0.007740 -3.922084  0.045387
     spin moment: S , {S} =    0.00031  -0.00000  -0.00000  -0.00031
   scf:   12    -3999.105580    -3999.103878    -3999.104173  0.004452 -3.921494  0.027366
     spin moment: S , {S} =    0.00015  -0.00000  -0.00000  -0.00015
   scf:   13    -3999.104642    -3999.104216    -3999.104517  0.002521 -3.920491  0.018071
     spin moment: S , {S} =    0.00004  -0.00000  -0.00000  -0.00004
   scf:   14    -3999.104527    -3999.104351    -3999.104654  0.001812 -3.920142  0.011371
     spin moment: S , {S} =    0.00001  -0.00000  -0.00000  -0.00001
   scf:   15    -3999.104441    -3999.104391    -3999.104696  0.000916 -3.920038  0.007944
     spin moment: S , {S} =    0.00001  -0.00000  -0.00000  -0.00001
   scf:   16    -3999.104472    -3999.104424    -3999.104729  0.001263 -3.920002  0.003200
     spin moment: S , {S} =    0.00001  -0.00000  -0.00000  -0.00001
   scf:   17    -3999.104437    -3999.104430    -3999.104734  0.000427 -3.920002  0.001716
     spin moment: S , {S} =    0.00001  -0.00000  -0.00000  -0.00001
   scf:   18    -3999.104435    -3999.104432    -3999.104736  0.000276 -3.920014  0.000959
     spin moment: S , {S} =    0.00000  -0.00000  -0.00000  -0.00000
   scf:   19    -3999.104433    -3999.104432    -3999.104736  0.000095 -3.920017  0.000529
     spin moment: S , {S} =    0.00000  -0.00000  -0.00000  -0.00000
   scf:   20    -3999.104433    -3999.104432    -3999.104736  0.000050 -3.920023  0.000454
     spin moment: S , {S} =    0.00000  -0.00000  -0.00000  -0.00000
   scf:   21    -3999.104433    -3999.104433    -3999.104736  0.000042 -3.920029  0.000299
     spin moment: S , {S} =    0.00000   0.00000  -0.00000   0.00000
   scf:   22    -3999.104433    -3999.104433    -3999.104736  0.000023 -3.920032  0.000192
     spin moment: S , {S} =    0.00000   0.00000  -0.00000   0.00000
   scf:   23    -3999.104433    -3999.104433    -3999.104736  0.000012 -3.920033  0.000124
     spin moment: S , {S} =    0.00000   0.00000  -0.00000   0.00000
   scf:   24    -3999.104433    -3999.104433    -3999.104736  0.000011 -3.920033  0.000075
     spin moment: S , {S} =    0.00000   0.00000  -0.00000  -0.00000
mix: Pulay -- resetting history
   scf:   25    -3999.104433    -3999.104433    -3999.104736  0.000006 -3.920033  0.000055
     spin moment: S , {S} =    0.00000   0.00000  -0.00000  -0.00000
   scf:   26    -3999.104433    -3999.104433    -3999.104736  0.000006 -3.920033  0.000035
     spin moment: S , {S} =    0.00000   0.00000  -0.00000  -0.00000
   scf:   27    -3999.104433    -3999.104433    -3999.104736  0.000005 -3.920032  0.000011
     spin moment: S , {S} =    0.00000   0.00000  -0.00000  -0.00000
   scf:   28    -3999.104433    -3999.104433    -3999.104736  0.000001 -3.920032  0.000004
     spin moment: S , {S} =    0.00000   0.00000  -0.00000   0.00000
   scf:   29    -3999.104433    -3999.104433    -3999.104736  0.000000 -3.920032  0.000004
     spin moment: S , {S} =    0.00000   0.00000  -0.00000   0.00000
   scf:   30    -3999.104433    -3999.104433    -3999.104736  0.000000 -3.920032  0.000002
     spin moment: S , {S} =    0.00000   0.00000  -0.00000   0.00000
   scf:   31    -3999.104433    -3999.104433    -3999.104736  0.000000 -3.920032  0.000001
     spin moment: S , {S} =    0.00000   0.00000  -0.00000   0.00000
   scf:   32    -3999.104433    -3999.104433    -3999.104736  0.000000 -3.920032  0.000001
     spin moment: S , {S} =    0.00000   0.00000  -0.00000   0.00000

SCF Convergence by DM+H criterion
max |DM_out - DM_in|         :     0.0000001497
max |H_out - H_in|      (eV) :     0.0000006727
SCF cycle converged after 32 iterations

Using DM_out to compute the final energy and forces
No. of atoms with KB's overlaping orbs in proc 0. Max # of overlaps:      25     205

siesta: E_KS(eV) =            -3999.1044

siesta: E_KS - E_eggbox =     -3999.1044
     spin moment: S , {S} =    0.00000   0.00000  -0.00000   0.00000

siesta: Atomic forces (eV/Ang):
     1    0.133102   -0.040629   -0.000002
     2    0.027422   -0.010531   -0.000007
     3    0.014040    0.003727   -0.000002
     4    0.022724   -0.202231    0.000002
     5   -0.019459   -0.004675   -0.000012
     6    0.075541   -0.011548    0.000003
     7   -0.439741   -0.100803   -0.000039
     8    0.513121   -1.986336    0.000148
     9   -0.032931    0.073243   -0.000105
    10   -0.154024   -0.287961   -0.000041
    11    0.093115   -0.004534    0.000011
    12    0.127792   -0.035459    0.000001
    13   -0.219426    0.024813    0.000003
    14   -0.019156    0.058001   -0.000007
    15   -0.035509   -0.053939    0.000031
    16   -0.131742   -0.056717   -0.000928
    17    0.013702    0.036226   -0.000809
    18    0.065494    0.000382    0.005405
    19    0.051467   -0.212628   -0.001499
    20   -0.038486   -0.051641   -0.001065
    21    0.017701    0.019709   -0.005024
    22    0.038051   -0.040313    0.103176
    23    0.001712    0.052357   -0.016959
    24    0.033974    0.010908   -0.083313
    25    0.294417    0.344579    0.000841
    26   -3.131309    3.479128    0.000313
    27   -0.266721    0.453594   -0.000517
    28    0.092743   -0.460524   -0.000096
    29   -0.121318   -0.031251   -0.000139
    30    2.757257   -0.268110    0.000202
----------------------------------------
   Tot   -0.236449    0.696838   -0.000428
----------------------------------------
   Max    3.479128
   Res    0.624349    sqrt( Sum f_i^2 / 3N )
----------------------------------------
   Max    3.479128    constrained

Stress tensor Voigt[x,y,z,yz,xz,xy] (kbar):        0.54       -2.10       -0.04       -0.02        0.00        0.66
(Free)E + p*V (eV/cell)    -3997.5802
Target enthalpy (eV/cell)    -3999.1047

siesta: Stress tensor (static) (eV/Ang**3):
         0.000337    0.000415    0.000001
         0.000415   -0.001310   -0.000012
         0.000001   -0.000012   -0.000028

siesta: Pressure (static):          0.53461159  kBar

siesta: Stress tensor (total) (eV/Ang**3):
         0.000337    0.000415    0.000001
         0.000415   -0.001310   -0.000012
         0.000001   -0.000012   -0.000028

siesta: Pressure (total):          0.53461159  kBar

siesta: Temp_ion =       0.000 K

siesta: Eigenvalues (eV):
ik =     1
  -23.5356  -23.5356  -22.9288  -22.9288  -21.8347  -21.8347  -21.2137  -21.2137  -21.0013  -21.0013
  -20.0155  -20.0155  -19.4653  -19.4653  -19.2295  -19.2295  -18.7572  -18.7572  -15.2438  -15.2438
  -14.2735  -14.2735  -13.6621  -13.6621  -13.5452  -13.5452  -13.4026  -13.4026  -12.8591  -12.8591
  -12.4031  -12.4031  -12.1023  -12.1023  -11.9706  -11.9706  -11.6610  -11.6610  -11.4443  -11.4443
  -10.8407  -10.8407  -10.7283  -10.7283  -10.1675  -10.1675   -9.6275   -9.6275   -9.4696   -9.4696
   -9.3352   -9.3352   -9.1048   -9.1048   -8.9970   -8.9970   -8.8279   -8.8279   -8.7474   -8.7474
   -8.5233   -8.5233   -8.4127   -8.4127   -8.2962   -8.2962   -8.2562   -8.2562   -8.1168   -8.1168
   -7.8079   -7.8079   -7.6147   -7.6147   -7.4106   -7.4106   -7.3446   -7.3446   -7.0379   -7.0379
   -6.9214   -6.9214   -6.7316   -6.7316   -6.6401   -6.6401   -6.4014   -6.4014   -6.2568   -6.2568
   -5.9518   -5.9518   -5.6649   -5.6649   -5.5772   -5.5772   -4.1276   -4.1276   -3.7124   -3.7124
   -2.8774   -2.8774   -2.4440   -2.4440   -2.3768   -2.3768   -2.1716   -2.1716   -2.1374   -2.1374
   -1.9402   -1.9402   -1.7785   -1.7785   -1.7773   -1.7773   -1.5076   -1.5076   -1.3919   -1.3919
   -1.2438   -1.2438   -0.4307   -0.4307   -0.3409   -0.3409   -0.2579   -0.2579   -0.2111   -0.2111
   -0.1460   -0.1460   -0.1337   -0.1337    0.0754    0.0754    0.5220    0.5220    0.6166    0.6166
    0.6458    0.6458    0.9019    0.9019    1.2590    1.2590    1.3168    1.3168    1.3970    1.3970
    1.5396    1.5396    1.6797    1.6797    2.0314    2.0314    2.2393    2.2393    2.3036    2.3036
    2.4400    2.4400    2.5650    2.5650    2.8524    2.8524    2.9676    2.9676    3.1000    3.1000
    3.1455    3.1455    3.1598    3.1598    3.2342    3.2342    3.4844    3.4844    3.5062    3.5062
    3.9852    3.9852    4.1173    4.1173    4.1939    4.1939    4.3911    4.3911    4.5570    4.5570
    4.7746    4.7746    4.7949    4.7949    4.9904    4.9904    4.9961    4.9961    5.1051    5.1051
    5.2901    5.2901    5.5141    5.5141    5.6686    5.6686    5.8251    5.8251    5.8418    5.8418
    6.1780    6.1780    6.2091    6.2091    6.3938    6.3938    6.5037    6.5037    6.6332    6.6332
    6.8507    6.8507    6.9659    6.9659    7.0312    7.0312    7.3333    7.3333    7.3517    7.3517
    7.5752    7.5752    7.7392    7.7392    7.7831    7.7831    7.9779    7.9779    8.0682    8.0682
    8.3994    8.3994    8.4623    8.4623    8.5443    8.5443    8.7173    8.7173    8.9414    8.9414
    9.1997    9.1997    9.2305    9.2305    9.4601    9.4601    9.5424    9.5424    9.6163    9.6163
    9.7811    9.7811    9.9995    9.9995   10.0947   10.0947   10.2316   10.2316   10.2456   10.2456
   10.6818   10.6818   11.1691   11.1691   11.2247   11.2247   11.4127   11.4127   11.4780   11.4780
   11.5289   11.5289   11.5352   11.5352   11.8784   11.8784   11.9850   11.9850   11.9918   11.9918
   12.3788   12.3788   12.5422   12.5422   12.5908   12.5908   12.9260   12.9260   13.0653   13.0653
   13.2449   13.2449   13.4475   13.4475   13.6111   13.6111   13.8456   13.8456   14.1845   14.1845
   14.4780   14.4780   14.5204   14.5204   14.8302   14.8302   15.0120   15.0120   15.3042   15.3042
   15.3855   15.3855   15.9067   15.9067   16.0013   16.0013   16.3078   16.3078   16.4146   16.4146
   16.9973   16.9973   17.1607   17.1607   17.2353   17.2353   17.5541   17.5541   17.8584   17.8584
   18.0907   18.0907   18.7690   18.7690   18.7918   18.7918   18.8100   18.8100   18.9576   18.9576
   19.0583   19.0583   19.7273   19.7273   19.9032   19.9032   20.3714   20.3714   20.7666   20.7666
   20.9671   20.9671   21.5350   21.5350   21.9194   21.9194   22.3883   22.3883   22.5452   22.5452
   22.8833   22.8833   23.1525   23.1525   23.2894   23.2894   23.7155   23.7155   24.7013   24.7013
   24.8704   24.8704   25.0398   25.0398   25.6402   25.6402   25.7776   25.7776   26.3918   26.3918
   26.5824   26.5824   26.8909   26.8909   27.2128   27.2128   28.0679   28.0679   28.7826   28.7826
   29.1017   29.1017   29.8015   29.8015   30.8783   30.8784   30.9052   30.9052   31.1346   31.1346
   31.3592   31.3592   31.3634   31.3634   31.5119   31.5119   31.7119   31.7119   32.3051   32.3051
   33.3803   33.3803   33.5918   33.5918   33.6268   33.6268   34.3597   34.3597   34.4334   34.4334
   35.3201   35.3201   35.7547   35.7547   36.2046   36.2046   36.9019   36.9019   37.2157   37.2157
   37.2438   37.2438   37.6620   37.6620   38.1782   38.1782   38.7377   38.7377   39.0538   39.0538
   39.3399   39.3399   39.9061   39.9061   40.3349   40.3349   40.7956   40.7956   41.3878   41.3878
   41.6961   41.6961   41.7267   41.7267   42.2496   42.2496   43.2380   43.2380   43.4120   43.4120
   43.8697   43.8697   43.9895   43.9895   44.2107   44.2107   44.7725   44.7725   44.8860   44.8860
   45.5026   45.5026   46.0988   46.0988   46.1650   46.1650   46.5846   46.5846   47.1415   47.1415
   47.7466   47.7466   47.9987   47.9987   48.1634   48.1634   49.0115   49.0115   49.2577   49.2577
   49.6323   49.6323   50.1180   50.1180   50.1603   50.1603   50.5219   50.5219   50.8138   50.8138
   50.9585   50.9585   51.8731   51.8731   52.9163   52.9163   53.6974   53.6974   54.1299   54.1299
   54.3061   54.3061   55.3787   55.3787   55.6323   55.6323   55.7597   55.7597   56.8730   56.8730
   57.1963   57.1963   57.2919   57.2919   57.6977   57.6977   59.4402   59.4402   59.6896   59.6896
   60.1007   60.1007   61.3212   61.3212   61.6896   61.6896   62.7684   62.7684   63.4028   63.4028
   63.5671   63.5671   64.6890   64.6890   65.2473   65.2473   66.2065   66.2065   66.6505   66.6505
   67.4885   67.4885   68.4970   68.4970   69.1688   69.1688   71.9144   71.9144   73.4041   73.4041
   75.7598   75.7598   77.6567   77.6567   86.7686   86.7686   88.9001   88.9001   93.4774   93.4774
   94.4675   94.4675   96.4460   96.4460   97.5543   97.5543  100.7073  100.7073  102.7398  102.7398
  103.0259  103.0259  109.6382  109.6382  119.8721  119.8721  123.6798  123.6798  124.9938  124.9938
  140.2297  140.2297  149.0534  149.0534
siesta: Fermi energy =      -3.920032 eV

siesta: Program's energy decomposition (eV):
siesta: Ebs     =     -1118.977719
siesta: Eions   =      3553.971015
siesta: Ena     =       375.191318
siesta: Ekin    =      2751.524870
siesta: Enl     =     -2529.701321
siesta: Eso     =        -0.004730
siesta: Edftu   =         0.000000
siesta: DEna    =        37.648715
siesta: DUscf   =        13.636094
siesta: DUext   =         0.000000
siesta: Exc     =     -1093.428365
siesta: eta*DQ  =         0.000000
siesta: Emadel  =         0.000000
siesta: Emeta   =         0.000000
siesta: Emolmec =         0.000000
siesta: Ekinion =         0.000000
siesta: Eharris =     -3999.104433
siesta: Etot    =     -3999.104433
siesta: FreeEng =     -3999.104736

siesta: Final energy (eV):
siesta:  Band Struct. =   -1118.977719
siesta:       Kinetic =    2751.524870
siesta:       Hartree =    8379.623056
siesta:       Edftu   =       0.000000
siesta:       Eso     =      -0.004730
siesta:    Ext. field =       0.000000
siesta:   Exch.-corr. =   -1093.428365
siesta:  Ion-electron =  -19210.494575
siesta:       Ion-ion =    5173.675310
siesta:       Ekinion =       0.000000
siesta:         Total =   -3999.104433
siesta:         Fermi =      -3.920032

siesta: Atomic forces (eV/Ang):
siesta:      1    0.133102   -0.040629   -0.000002
siesta:      2    0.027422   -0.010531   -0.000007
siesta:      3    0.014040    0.003727   -0.000002
siesta:      4    0.022724   -0.202231    0.000002
siesta:      5   -0.019459   -0.004675   -0.000012
siesta:      6    0.075541   -0.011548    0.000003
siesta:      7   -0.439741   -0.100803   -0.000039
siesta:      8    0.513121   -1.986336    0.000148
siesta:      9   -0.032931    0.073243   -0.000105
siesta:     10   -0.154024   -0.287961   -0.000041
siesta:     11    0.093115   -0.004534    0.000011
siesta:     12    0.127792   -0.035459    0.000001
siesta:     13   -0.219426    0.024813    0.000003
siesta:     14   -0.019156    0.058001   -0.000007
siesta:     15   -0.035509   -0.053939    0.000031
siesta:     16   -0.131742   -0.056717   -0.000928
siesta:     17    0.013702    0.036226   -0.000809
siesta:     18    0.065494    0.000382    0.005405
siesta:     19    0.051467   -0.212628   -0.001499
siesta:     20   -0.038486   -0.051641   -0.001065
siesta:     21    0.017701    0.019709   -0.005024
siesta:     22    0.038051   -0.040313    0.103176
siesta:     23    0.001712    0.052357   -0.016959
siesta:     24    0.033974    0.010908   -0.083313
siesta:     25    0.294417    0.344579    0.000841
siesta:     26   -3.131309    3.479128    0.000313
siesta:     27   -0.266721    0.453594   -0.000517
siesta:     28    0.092743   -0.460524   -0.000096
siesta:     29   -0.121318   -0.031251   -0.000139
siesta:     30    2.757257   -0.268110    0.000202
siesta: ----------------------------------------
siesta:    Tot   -0.236449    0.696838   -0.000428

siesta: Stress tensor (static) (eV/Ang**3):
siesta:     0.000337    0.000415    0.000001
siesta:     0.000415   -0.001310   -0.000012
siesta:     0.000001   -0.000012   -0.000028

siesta: Cell volume =       4568.907345 Ang**3

siesta: Pressure (static):
siesta:                Solid            Molecule  Units
siesta:           0.00000363         -0.00001382  Ry/Bohr**3
siesta:           0.00033367         -0.00126892  eV/Ang**3
siesta:           0.53461159         -2.03306054  kBar
(Free)E+ p_basis*V_orbitals  =       -3977.976651
(Free)Eharris+ p_basis*V_orbitals  =       -3977.976651
     spin moment: S , {S} =    0.00000   0.00000  -0.00000   0.00000

siesta: Electric dipole (a.u.)  =   -1.318275    2.313541   -0.001689
siesta: Electric dipole (Debye) =   -3.350724    5.880438   -0.004294

cite: Please see "AT.bib" for an exhaustive BiBTeX file.
cite: Please clearly indicate Siesta version in published work: v4.1.5-1-g384057250
cite: This calculation has made use of the following articles
cite: which are encouraged to be cited in a published work.
        Primary SIESTA paper
          DOI: www.doi.org/10.1088/0953-8984/14/11/302
        Spin-orbit coupling (on-site approximation)
          DOI: www.doi.org/10.1088/0953-8984/19/19/489001


WARNING: alloc-realloc-dealloc name mismatch
         Name: atomlist isa
         Size:              -120. Bytes
         Node:     0
         Subsequent mismatches will not be reported
>> End of run:  16-OCT-2023  20:13:26
Job completed
