Siesta Version  : v4.1.5-1-g384057250
Architecture    : gcc
Compiler version: GNU Fortran (Ubuntu 11.4.0-1ubuntu1~22.04) 11.4.0
Compiler flags  : mpifort -O2 -fPIC -ftree-vectorize -fallow-argument-mismatch
PP flags        : -DFC_HAVE_ABORT -DMPI -DSIESTA__FLOOK -DSIESTA__METIS -DSIESTA__MUMPS -DCDF -DNCDF -DNCDF_4 -DNCDF_PARALLEL -DSIESTA__MRRR -DSIESTA__ELPA
Libraries       : libncdf.a libfdict.a  -lflookall -ldl -lnetcdff -lnetcdf -lhdf5_hl -lhdf5 -lhdf5_fortran -lz -lscalapack-openmpi -lopenblas -lmetis -lzmumps -lcmumps -ldmumps -lmumps_common -lpord -lsmumps -lesmumps -lscotch -lscotcherr -fopenmp -lelpa
PARALLEL version
NetCDF support
NetCDF-4 support
NetCDF-4 MPI-IO support
METIS ordering support
Lua support

* Running on 8 nodes in parallel
>> Start of run:   1-FEB-2024  17:51:48

                           ***********************       
                           *  WELCOME TO SIESTA  *       
                           ***********************       

reinit: Reading from standard input
reinit: Dumped input in INPUT_TMP.98784
************************** Dump of input data file ****************************
# mpirun -np 4 siesta-4.1.5 < AT.fdf > AT.out &
SystemLabel      AT
NumberOfAtoms    30
NumberOfSpecies  4
%block ChemicalSpeciesLabel
    1    1  H
    2    7  N
    3   14  Si
    4    8  O
%endblock ChemicalSpeciesLabel
############################################
# This overrides Defaults.fdf configuration
############################################
MD.TypeOfRun                Verlet # CG, Verlet
MD.Steps                    0
MaxSCFIterations            200
SCF.MustConverge            F
AtomicCoordinatesFormat NotScaledCartesianAng
%block AtomicCoordinatesAndAtomicSpecies
    2.28494382 -5.19529124 0.0  1  1  H
    1.37433094 -4.6647107 0.0  2  2  N
    -0.21830245 -5.49458215 0.0  3  3  Si
    -0.17484108 -6.98516892 0.0  1  4  H
    -1.66171682 -4.58600741 0.0  2  5  N
    -1.09026419 -2.87456374 0.0  3  6  Si
    -1.53038332 -0.70765692 0.0  3  7  Si
    -3.14415959 -0.09186471 0.0  2  8  N
    -3.40268075 0.95848335 0.0  1  9  H
    -3.95073599 -0.76720972 0.0  1  10  H
    -0.17836637 0.41349951 0.0  2  11  N
    1.49520211 -0.0473996 0.0  3  12  Si
    2.45603905 1.10727302 0.0  1  13  H
    2.30451743 -1.58574382 0.0  2  14  N
    1.10725559 -2.84610319 0.0  3  15  Si
    0.728962742645315 6.40837804047535 0.0  1  16  H
    -0.07974793735468495 5.716172160475351 0.0  2  17  N
    -1.7363377773546849 6.42929226047535 0.0  3  18  Si
    -1.6394726073546848 7.94001747047535 0.0  1  19  H
    -3.462494127354685 5.08624413047535 0.0  3  20  Si
    -5.816948377354685 5.078257200475351 0.0  3  21  Si
    -6.3793664973546855 5.8127468504753494 -1.20183078  1  22  H
    -6.1167621273546855 3.59916607047535 -0.08618332  1  23  H
    -6.379478957354685 5.643089660475351 1.28814761  1  24  H
    -2.533103487354685 3.01567290047535 0.0  3  25  Si
    -3.482571847354685 1.72713677047535 0.0  4  26  O
    -0.742158617354685 2.84193743047535 0.0  2  27  N
    -0.4111672573546849 1.8095804504753503 0.0  1  28  H
    0.566299602645315 4.036483850475349 0.0  3  29  Si
    2.1322365326453148 3.7692370004753504 0.0  4  30  O
%endblock AtomicCoordinatesAndAtomicSpecies
#############
# Unit Cell
#############
LatticeConstant 1.0 Ang
%block LatticeVectors
    30.00000    0.000000    0.000000
    0.000000    45.00000    0.000000
    0.000000    0.000000    10.00000
%endblock LatticeVectors
%include ../../../../Defaults.fdf
************************** End of input data file *****************************

reinit: -----------------------------------------------------------------------
reinit: System Name: 
reinit: -----------------------------------------------------------------------
reinit: System Label: AT
reinit: -----------------------------------------------------------------------

initatom: Reading input for the pseudopotentials and atomic orbitals ----------
Species number:   1 Atomic number:    1 Label: H
Species number:   2 Atomic number:    7 Label: N
Species number:   3 Atomic number:   14 Label: Si
Species number:   4 Atomic number:    8 Label: O

Ground state valence configuration:   1s01
Reading pseudopotential information in formatted form from H.psf

Pseudopotential generated from a relativistic atomic calculation

Valence configuration for pseudopotential generation:
1s( 1.00) rc: 0.01
2p( 0.00) rc: 0.60
3d( 0.00) rc: 1.99
4f( 0.00) rc: 2.49
Ground state valence configuration:   2s02  2p03
Reading pseudopotential information in formatted form from N.psf

Pseudopotential generated from a relativistic atomic calculation

Valence configuration for pseudopotential generation:
2s( 2.00) rc: 0.94
2p( 3.00) rc: 0.59
3d( 0.00) rc: 3.46
4f( 0.00) rc: 2.47
Ground state valence configuration:   3s02  3p02
Reading pseudopotential information in formatted form from Si.psf

Pseudopotential generated from a relativistic atomic calculation

Valence configuration for pseudopotential generation:
3s( 2.00) rc: 1.67
3p( 2.00) rc: 2.04
3d( 0.00) rc: 2.89
4f( 0.00) rc: 2.49
Ground state valence configuration:   2s02  2p04
Reading pseudopotential information in formatted form from O.psf

Pseudopotential generated from a relativistic atomic calculation

Valence configuration for pseudopotential generation:
2s( 2.00) rc: 0.45
2p( 4.00) rc: 0.92
3d( 0.00) rc: 2.24
4f( 0.00) rc: 0.25
For H, standard SIESTA heuristics set lmxkb to 2
 (one more than the basis l, including polarization orbitals).
Use PS.lmax or PS.KBprojectors blocks to override.
For N, standard SIESTA heuristics set lmxkb to 3
 (one more than the basis l, including polarization orbitals).
Use PS.lmax or PS.KBprojectors blocks to override.
For Si, standard SIESTA heuristics set lmxkb to 3
 (one more than the basis l, including polarization orbitals).
Use PS.lmax or PS.KBprojectors blocks to override.
For O, standard SIESTA heuristics set lmxkb to 3
 (one more than the basis l, including polarization orbitals).
Use PS.lmax or PS.KBprojectors blocks to override.

<basis_specs>
===============================================================================
H                    Z=   1    Mass=  1.0100        Charge= 0.17977+309
Lmxo=0 Lmxkb= 2    BasisType=split      Semic=F
L=0  Nsemic=0  Cnfigmx=1
          i=1  nzeta=2  polorb=1  (1s)
            splnorm:   0.62000    
               vcte:    0.0000    
               rinn:    0.0000    
               qcoe:    0.0000    
               qyuk:    0.0000    
               qwid:   0.10000E-01
                rcs:    0.0000      0.0000    
            lambdas:    1.0000      1.0000    
-------------------------------------------------------------------------------
L=0  Nkbl=1  erefs: 0.17977+309
L=1  Nkbl=1  erefs: 0.17977+309
L=2  Nkbl=1  erefs: 0.17977+309
===============================================================================
</basis_specs>

atom: Called for H                     (Z =   1)

read_vps: Pseudopotential generation method:
read_vps: ATM4.2.7  Troullier-Martins                       
Valence charge for ps generation:    1.00000

xc_check: Exchange-correlation functional:
xc_check: GGA Perdew, Burke & Ernzerhof 1996
V l=0 = -2*Zval/r beyond r=  0.0098
V l=1 = -2*Zval/r beyond r=  0.5817
V l=2 = -2*Zval/r beyond r=  1.9372
All V_l potentials equal beyond r=  1.9372
This should be close to max(r_c) in ps generation
All pots = -2*Zval/r beyond r=  1.9372

VLOCAL1: 99.0% of the norm of Vloc inside     11.567 Ry
VLOCAL1: 99.9% of the norm of Vloc inside     26.362 Ry
atom: Maximum radius for 4*pi*r*r*local-pseudopot. charge    2.25106
atom: Maximum radius for r*vlocal+2*Zval:    1.91306
GHOST: No ghost state for L =  0
GHOST: No ghost state for L =  1
GHOST: No ghost state for L =  2

KBgen: Kleinman-Bylander projectors: 
   l= 0   rc=  2.036604   el= -0.477180   Ekb= -6.081590   kbcos= -0.277285
   l= 1   rc=  2.195416   el=  0.001076   Ekb= -0.926943   kbcos= -0.034643
   l= 2   rc=  2.251056   el=  0.002010   Ekb= -0.130941   kbcos= -0.009788

KBgen: Total number of Kleinman-Bylander projectors:    9
atom: -------------------------------------------------------------------------

atom: SANKEY-TYPE ORBITALS:
atom: Selected multiple-zeta basis: split     

SPLIT: Orbitals with angular momentum L= 0

SPLIT: Basis orbitals for state 1s

SPLIT: PAO cut-off radius determined from an
SPLIT: energy shift=  0.002000 Ry

   izeta = 1
                 lambda =    1.000000
                     rc =    6.518340
                 energy =   -0.475305
                kinetic =    0.912139
    potential(screened) =   -1.387444
       potential(ionic) =   -1.907295

   izeta = 2
                 rmatch =    2.141150
              splitnorm =    0.620000
                 energy =    0.566467
                kinetic =    3.772856
    potential(screened) =   -3.206389
       potential(ionic) =   -3.759093

POLgen: Perturbative polarization orbital with L=  1

POLgen: Polarization orbital for state 1s

   izeta = 1
                     rc =    6.518340
                 energy =    0.533861
                kinetic =    1.121086
    potential(screened) =   -0.587225
       potential(ionic) =   -1.053027
atom: Total number of Sankey-type orbitals:  5

atm_pop: Valence configuration (for local Pseudopot. screening):
 1s( 1.00)                                                            
Vna: chval, zval:    1.00000   1.00000

Vna:  Cut-off radius for the neutral-atom potential:   6.518340

atom: _________________________________________________________________________

<basis_specs>
===============================================================================
N                    Z=   7    Mass=  14.010        Charge= 0.17977+309
Lmxo=1 Lmxkb= 3    BasisType=split      Semic=F
L=0  Nsemic=0  Cnfigmx=2
          i=1  nzeta=2  polorb=0  (2s)
            splnorm:   0.28000    
               vcte:    0.0000    
               rinn:    0.0000    
               qcoe:    0.0000    
               qyuk:    0.0000    
               qwid:   0.10000E-01
                rcs:    0.0000      0.0000    
            lambdas:    1.0000      1.0000    
L=1  Nsemic=0  Cnfigmx=2
          i=1  nzeta=2  polorb=1  (2p)
            splnorm:   0.28000    
               vcte:    0.0000    
               rinn:    0.0000    
               qcoe:    0.0000    
               qyuk:    0.0000    
               qwid:   0.10000E-01
                rcs:    0.0000      0.0000    
            lambdas:    1.0000      1.0000    
-------------------------------------------------------------------------------
L=0  Nkbl=1  erefs: 0.17977+309
L=1  Nkbl=1  erefs: 0.17977+309
L=2  Nkbl=1  erefs: 0.17977+309
L=3  Nkbl=1  erefs: 0.17977+309
===============================================================================
</basis_specs>

atom: Called for N                     (Z =   7)

read_vps: Pseudopotential generation method:
read_vps: ATM4.2.7  Troullier-Martins                       
Valence charge for ps generation:    5.00000

xc_check: Exchange-correlation functional:
xc_check: GGA Perdew, Burke & Ernzerhof 1996
V l=0 = -2*Zval/r beyond r=  1.2889
V l=1 = -2*Zval/r beyond r=  1.2889
V l=2 = -2*Zval/r beyond r=  3.4178
V l=3 = -2*Zval/r beyond r=  2.4084
All V_l potentials equal beyond r=  3.3753
This should be close to max(r_c) in ps generation
All pots = -2*Zval/r beyond r=  3.4178

VLOCAL1: 99.0% of the norm of Vloc inside      3.810 Ry
VLOCAL1: 99.9% of the norm of Vloc inside      8.683 Ry
atom: Maximum radius for 4*pi*r*r*local-pseudopot. charge    4.02088
atom: Maximum radius for r*vlocal+2*Zval:    3.54838
GHOST: No ghost state for L =  0
GHOST: No ghost state for L =  1
GHOST: No ghost state for L =  2
GHOST: No ghost state for L =  3

KBgen: Kleinman-Bylander projectors: 
   l= 0   rc=  3.417763   el= -1.365098   Ekb= -4.433130   kbcos= -0.707855
   l= 1   rc=  3.375302   el= -0.521201   Ekb=-13.264039   kbcos= -0.535594
   l= 2   rc=  3.872880   el=  0.001991   Ekb= -0.641094   kbcos= -0.062456
   l= 3   rc=  3.970931   el=  0.003093   Ekb= -0.474517   kbcos= -0.018236

KBgen: Total number of Kleinman-Bylander projectors:   16
atom: -------------------------------------------------------------------------

atom: SANKEY-TYPE ORBITALS:
atom: Selected multiple-zeta basis: split     

SPLIT: Orbitals with angular momentum L= 0

SPLIT: Basis orbitals for state 2s

SPLIT: PAO cut-off radius determined from an
SPLIT: energy shift=  0.002000 Ry

   izeta = 1
                 lambda =    1.000000
                     rc =    4.730425
                 energy =   -1.363399
                kinetic =    1.245246
    potential(screened) =   -2.608645
       potential(ionic) =   -8.121105

   izeta = 2
                 rmatch =    2.531849
              splitnorm =    0.280000
                 energy =   -0.959908
                kinetic =    2.409435
    potential(screened) =   -3.369343
       potential(ionic) =   -9.427975

SPLIT: Orbitals with angular momentum L= 1

SPLIT: Basis orbitals for state 2p

SPLIT: PAO cut-off radius determined from an
SPLIT: energy shift=  0.002000 Ry

   izeta = 1
                 lambda =    1.000000
                     rc =    5.924108
                 energy =   -0.519262
                kinetic =    3.672940
    potential(screened) =   -4.192202
       potential(ionic) =   -9.518354

   izeta = 2
                 rmatch =    2.531849
              splitnorm =    0.280000
                 energy =   -0.104258
                kinetic =    6.807538
    potential(screened) =   -6.911796
       potential(ionic) =  -13.149920

POLgen: Perturbative polarization orbital with L=  2

POLgen: Polarization orbital for state 2p

   izeta = 1
                     rc =    5.924108
                 energy =    1.427508
                kinetic =    2.872379
    potential(screened) =   -1.444871
       potential(ionic) =   -5.563644
atom: Total number of Sankey-type orbitals: 13

atm_pop: Valence configuration (for local Pseudopot. screening):
 2s( 2.00)                                                            
 2p( 3.00)                                                            
Vna: chval, zval:    5.00000   5.00000

Vna:  Cut-off radius for the neutral-atom potential:   5.924108

atom: _________________________________________________________________________

<basis_specs>
===============================================================================
Si                   Z=  14    Mass=  28.090        Charge= 0.17977+309
Lmxo=1 Lmxkb= 3    BasisType=split      Semic=F
L=0  Nsemic=0  Cnfigmx=3
          i=1  nzeta=2  polorb=0  (3s)
            splnorm:   0.28000    
               vcte:    0.0000    
               rinn:    0.0000    
               qcoe:    0.0000    
               qyuk:    0.0000    
               qwid:   0.10000E-01
                rcs:    0.0000      0.0000    
            lambdas:    1.0000      1.0000    
L=1  Nsemic=0  Cnfigmx=3
          i=1  nzeta=2  polorb=1  (3p)
            splnorm:   0.28000    
               vcte:    0.0000    
               rinn:    0.0000    
               qcoe:    0.0000    
               qyuk:    0.0000    
               qwid:   0.10000E-01
                rcs:    0.0000      0.0000    
            lambdas:    1.0000      1.0000    
-------------------------------------------------------------------------------
L=0  Nkbl=1  erefs: 0.17977+309
L=1  Nkbl=1  erefs: 0.17977+309
L=2  Nkbl=1  erefs: 0.17977+309
L=3  Nkbl=1  erefs: 0.17977+309
===============================================================================
</basis_specs>

atom: Called for Si                    (Z =  14)

read_vps: Pseudopotential generation method:
read_vps: ATM4.2.7  Troullier-Martins                       
Valence charge for ps generation:    4.00000

xc_check: Exchange-correlation functional:
xc_check: GGA Perdew, Burke & Ernzerhof 1996
V l=0 = -2*Zval/r beyond r=  2.7826
V l=1 = -2*Zval/r beyond r=  2.7826
V l=2 = -2*Zval/r beyond r=  2.9253
V l=3 = -2*Zval/r beyond r=  2.7826
All V_l potentials equal beyond r=  2.8530
This should be close to max(r_c) in ps generation
All pots = -2*Zval/r beyond r=  2.9253

VLOCAL1: 99.0% of the norm of Vloc inside      5.333 Ry
VLOCAL1: 99.9% of the norm of Vloc inside     12.154 Ry
atom: Maximum radius for 4*pi*r*r*local-pseudopot. charge    3.39869
atom: Maximum radius for r*vlocal+2*Zval:    2.96205
GHOST: No ghost state for L =  0
GHOST: No ghost state for L =  1
GHOST: No ghost state for L =  2
GHOST: No ghost state for L =  3

KBgen: Kleinman-Bylander projectors: 
   l= 0   rc=  3.075247   el= -0.794092   Ekb=  5.879390   kbcos=  0.167461
   l= 1   rc=  3.153101   el= -0.300068   Ekb=  2.642817   kbcos=  0.058301
   l= 2   rc=  3.273594   el=  0.001958   Ekb= -1.185135   kbcos= -0.104411
   l= 3   rc=  3.232927   el=  0.003046   Ekb= -0.497174   kbcos= -0.015889

KBgen: Total number of Kleinman-Bylander projectors:   16
atom: -------------------------------------------------------------------------

atom: SANKEY-TYPE ORBITALS:
atom: Selected multiple-zeta basis: split     

SPLIT: Orbitals with angular momentum L= 0

SPLIT: Basis orbitals for state 3s

SPLIT: PAO cut-off radius determined from an
SPLIT: energy shift=  0.002000 Ry

   izeta = 1
                 lambda =    1.000000
                     rc =    6.429618
                 energy =   -0.792283
                kinetic =    0.525293
    potential(screened) =   -1.317576
       potential(ionic) =   -3.744923

   izeta = 2
                 rmatch =    3.998416
              splitnorm =    0.280000
                 energy =   -0.583081
                kinetic =    1.069570
    potential(screened) =   -1.652651
       potential(ionic) =   -4.235185

SPLIT: Orbitals with angular momentum L= 1

SPLIT: Basis orbitals for state 3p

SPLIT: PAO cut-off radius determined from an
SPLIT: energy shift=  0.002000 Ry

   izeta = 1
                 lambda =    1.000000
                     rc =    8.464845
                 energy =   -0.298236
                kinetic =    0.785360
    potential(screened) =   -1.083596
       potential(ionic) =   -3.273779

   izeta = 2
                 rmatch =    4.587816
              splitnorm =    0.280000
                 energy =   -0.131871
                kinetic =    1.403687
    potential(screened) =   -1.535557
       potential(ionic) =   -4.015310

POLgen: Perturbative polarization orbital with L=  2

POLgen: Polarization orbital for state 3p

   izeta = 1
                     rc =    8.464845
                 energy =    0.321949
                kinetic =    1.055677
    potential(screened) =   -0.733728
       potential(ionic) =   -2.672950
atom: Total number of Sankey-type orbitals: 13

atm_pop: Valence configuration (for local Pseudopot. screening):
 3s( 2.00)                                                            
 3p( 2.00)                                                            
Vna: chval, zval:    4.00000   4.00000

Vna:  Cut-off radius for the neutral-atom potential:   8.464845

atom: _________________________________________________________________________

<basis_specs>
===============================================================================
O                    Z=   8    Mass=  16.000        Charge= 0.17977+309
Lmxo=1 Lmxkb= 3    BasisType=split      Semic=F
L=0  Nsemic=0  Cnfigmx=2
          i=1  nzeta=2  polorb=0  (2s)
            splnorm:   0.28000    
               vcte:    0.0000    
               rinn:    0.0000    
               qcoe:    0.0000    
               qyuk:    0.0000    
               qwid:   0.10000E-01
                rcs:    0.0000      0.0000    
            lambdas:    1.0000      1.0000    
L=1  Nsemic=0  Cnfigmx=2
          i=1  nzeta=2  polorb=1  (2p)
            splnorm:   0.28000    
               vcte:    0.0000    
               rinn:    0.0000    
               qcoe:    0.0000    
               qyuk:    0.0000    
               qwid:   0.10000E-01
                rcs:    0.0000      0.0000    
            lambdas:    1.0000      1.0000    
-------------------------------------------------------------------------------
L=0  Nkbl=1  erefs: 0.17977+309
L=1  Nkbl=1  erefs: 0.17977+309
L=2  Nkbl=1  erefs: 0.17977+309
L=3  Nkbl=1  erefs: 0.17977+309
===============================================================================
</basis_specs>

atom: Called for O                     (Z =   8)

read_vps: Pseudopotential generation method:
read_vps: ATM4.2.7  Troullier-Martins                       
Valence charge for ps generation:    6.00000

xc_check: Exchange-correlation functional:
xc_check: GGA Perdew, Burke & Ernzerhof 1996
V l=0 = -2*Zval/r beyond r=  1.1000
V l=1 = -2*Zval/r beyond r=  1.1000
V l=2 = -2*Zval/r beyond r=  2.2154
V l=3 = -2*Zval/r beyond r=  1.1000
All V_l potentials equal beyond r=  2.2154
This should be close to max(r_c) in ps generation
All pots = -2*Zval/r beyond r=  2.2154

VLOCAL1: 99.0% of the norm of Vloc inside      8.845 Ry
VLOCAL1: 99.9% of the norm of Vloc inside     20.157 Ry
atom: Maximum radius for 4*pi*r*r*local-pseudopot. charge    2.67231
atom: Maximum radius for r*vlocal+2*Zval:    2.32897
GHOST: No ghost state for L =  0
GHOST: No ghost state for L =  1
GHOST: No ghost state for L =  2
GHOST: No ghost state for L =  3

KBgen: Kleinman-Bylander projectors: 
   l= 0   rc=  2.243238   el= -1.759686   Ekb=**********   kbcos= -0.171774
   l= 1   rc=  2.328968   el= -0.663873   Ekb=-14.506792   kbcos= -0.519897
   l= 2   rc=  2.573941   el=  0.002031   Ekb= -1.137373   kbcos= -0.019581
   l= 3   rc=  2.606321   el=  0.003153   Ekb= -1.013546   kbcos= -0.003122

KBgen: Total number of Kleinman-Bylander projectors:   16
atom: -------------------------------------------------------------------------

atom: SANKEY-TYPE ORBITALS:
atom: Selected multiple-zeta basis: split     

SPLIT: Orbitals with angular momentum L= 0

SPLIT: Basis orbitals for state 2s

SPLIT: PAO cut-off radius determined from an
SPLIT: energy shift=  0.002000 Ry

   izeta = 1
                 lambda =    1.000000
                     rc =    4.243912
                 energy =   -1.758270
                kinetic =    3.286084
    potential(screened) =   -5.044353
       potential(ionic) =  -12.921184

   izeta = 2
                 rmatch =    2.187845
              splitnorm =    0.280000
                 energy =   -0.885018
                kinetic =    8.134434
    potential(screened) =   -9.019452
       potential(ionic) =  -17.710645

SPLIT: Orbitals with angular momentum L= 1

SPLIT: Basis orbitals for state 2p

SPLIT: PAO cut-off radius determined from an
SPLIT: energy shift=  0.002000 Ry

   izeta = 1
                 lambda =    1.000000
                     rc =    5.314825
                 energy =   -0.661986
                kinetic =    4.917472
    potential(screened) =   -5.579458
       potential(ionic) =  -13.236259

   izeta = 2
                 rmatch =    2.160663
              splitnorm =    0.280000
                 energy =   -0.068760
                kinetic =    9.183374
    potential(screened) =   -9.252135
       potential(ionic) =  -18.274251

POLgen: Perturbative polarization orbital with L=  2

POLgen: Polarization orbital for state 2p

   izeta = 1
                     rc =    5.314825
                 energy =    1.970580
                kinetic =    3.886128
    potential(screened) =   -1.915547
       potential(ionic) =   -7.749584
atom: Total number of Sankey-type orbitals: 13

atm_pop: Valence configuration (for local Pseudopot. screening):
 2s( 2.00)                                                            
 2p( 4.00)                                                            
Vna: chval, zval:    6.00000   6.00000

Vna:  Cut-off radius for the neutral-atom potential:   5.314825

atom: _________________________________________________________________________

prinput: Basis input ----------------------------------------------------------

PAO.BasisType split     

%block ChemicalSpeciesLabel
    1    1 H                       # Species index, atomic number, species label
    2    7 N                       # Species index, atomic number, species label
    3   14 Si                      # Species index, atomic number, species label
    4    8 O                       # Species index, atomic number, species label
%endblock ChemicalSpeciesLabel

%block PAO.Basis                 # Define Basis set
H                     1                    # Species label, number of l-shells
 n=1   0   2 P   1                   # n, l, Nzeta, Polarization, NzetaPol
   6.518      2.141   
   1.000      1.000   
N                     2                    # Species label, number of l-shells
 n=2   0   2                         # n, l, Nzeta 
   4.730      2.532   
   1.000      1.000   
 n=2   1   2 P   1                   # n, l, Nzeta, Polarization, NzetaPol
   5.924      2.532   
   1.000      1.000   
Si                    2                    # Species label, number of l-shells
 n=3   0   2                         # n, l, Nzeta 
   6.430      3.998   
   1.000      1.000   
 n=3   1   2 P   1                   # n, l, Nzeta, Polarization, NzetaPol
   8.465      4.588   
   1.000      1.000   
O                     2                    # Species label, number of l-shells
 n=2   0   2                         # n, l, Nzeta 
   4.244      2.188   
   1.000      1.000   
 n=2   1   2 P   1                   # n, l, Nzeta, Polarization, NzetaPol
   5.315      2.161   
   1.000      1.000   
%endblock PAO.Basis

prinput: ----------------------------------------------------------------------

Dumping basis to NetCDF file H.ion.nc
Dumping basis to NetCDF file N.ion.nc
Dumping basis to NetCDF file Si.ion.nc
Dumping basis to NetCDF file O.ion.nc
coor:   Atomic-coordinates input format  =     Cartesian coordinates
coor:                                          (in Angstroms)

siesta: Atomic coordinates (Bohr) and species
siesta:      4.31792  -9.81768   0.00000  1        1
siesta:      2.59711  -8.81503   0.00000  2        2
siesta:     -0.41253 -10.38326   0.00000  3        3
siesta:     -0.33040 -13.20006   0.00000  1        4
siesta:     -3.14019  -8.66630   0.00000  2        5
siesta:     -2.06030  -5.43214   0.00000  3        6
siesta:     -2.89201  -1.33728   0.00000  3        7
siesta:     -5.94160  -0.17360   0.00000  2        8
siesta:     -6.43014   1.81127   0.00000  1        9
siesta:     -7.46581  -1.44982   0.00000  1       10
siesta:     -0.33706   0.78140   0.00000  2       11
siesta:      2.82552  -0.08957   0.00000  3       12
siesta:      4.64124   2.09244   0.00000  1       13
siesta:      4.35491  -2.99662   0.00000  2       14
siesta:      2.09241  -5.37836   0.00000  3       15
siesta:      1.37754  12.11008   0.00000  1       16
siesta:     -0.15070  10.80200   0.00000  2       17
siesta:     -3.28120  12.14961   0.00000  3       18
siesta:     -3.09816  15.00446   0.00000  1       19
siesta:     -6.54317   9.61161   0.00000  3       20
siesta:    -10.99244   9.59652   0.00000  3       21
siesta:    -12.05526  10.98450  -2.27113  1       22
siesta:    -11.55901   6.80144  -0.16286  1       23
siesta:    -12.05547  10.66390   2.43425  1       24
siesta:     -4.78687   5.69880   0.00000  3       25
siesta:     -6.58111   3.26382   0.00000  4       26
siesta:     -1.40248   5.37049   0.00000  2       27
siesta:     -0.77699   3.41961   0.00000  1       28
siesta:      1.07015   7.62785   0.00000  3       29
siesta:      4.02934   7.12283   0.00000  4       30

siesta: System type = molecule  

initatomlists: Number of atoms, orbitals, and projectors:     30   302   403

siesta: ******************** Simulation parameters ****************************
siesta:
siesta: The following are some of the parameters of the simulation.
siesta: A complete list of the parameters used, including default values,
siesta: can be found in file out.fdf
siesta:
redata: Spin configuration                          = spin-orbit
redata: Number of spin components                   = 8
redata: Time-Reversal Symmetry                      = F
redata: Spin spiral                                 = F
############################################################
This spin-orbit implementation uses a local approximation.
From 4.2 and onwards the full non-local approximation is implemented
You are strongly advised to use >=4.2 versions!
############################################################
redata: Long output                                 =   F
redata: Number of Atomic Species                    =        4
redata: Charge density info will appear in .RHO file
redata: Write Mulliken Pop.                         = NO
redata: Matel table size (NRTAB)                    =     1024
redata: Mesh Cutoff                                 =   340.0000 Ry
redata: Net charge of the system                    =     0.0000 |e|
redata: Min. number of SCF Iter                     =        1
redata: Max. number of SCF Iter                     =      200
redata: SCF mix quantity                            = Hamiltonian
redata: Mix DM or H after convergence               =   F
redata: Recompute H after scf cycle                 =   F
redata: Mix DM in first SCF step                    =   T
redata: Write Pulay info on disk                    =   F
redata: New DM Occupancy tolerance                  = 0.000000000001
redata: No kicks to SCF
redata: DM Mixing Weight for Kicks                  =     0.5000
redata: Require Harris convergence for SCF          =   F
redata: Harris energy tolerance for SCF             =     0.000100 eV
redata: Require DM convergence for SCF              =   T
redata: DM tolerance for SCF                        =     0.000008
redata: Require EDM convergence for SCF             =   F
redata: EDM tolerance for SCF                       =     0.001000 eV
redata: Require H convergence for SCF               =   T
redata: Hamiltonian tolerance for SCF               =     0.000001 eV
redata: Require (free) Energy convergence for SCF   =   F
redata: (free) Energy tolerance for SCF             =     0.000100 eV
redata: Using Saved Data (generic)                  =   F
redata: Use continuation files for DM               =   T
redata: Neglect nonoverlap interactions             =   F
redata: Method of Calculation                       = Diagonalization
redata: Electronic Temperature                      =   299.9978 K
redata: Fix the spin of the system                  =   F
redata: Dynamics option                             = Verlet MD run
redata: Initial MD time step                        =        1
redata:   Final MD time step                        =        1
redata: Length of MD time step                      =     0.5000 fs
redata: Initial Temperature of MD run               =     0.0000 K
redata: Perform a MD quench                         =   F
mix.SCF: Pulay mixing                            = Pulay
mix.SCF:    Variant                              = stable
mix.SCF:    History steps                        = 6
mix.SCF:    Linear mixing weight                 =     0.250000
mix.SCF:    Mixing weight                        =     0.250000
mix.SCF:    SVD condition                        = 0.1000E-07
mix.SCF:    Restart steps                        = 24
mix.SCF:    Restart save steps                   = 3
mix.SCF: Spin-component mixing                   all
redata: Save all siesta data in one NC              =   F
redata: ***********************************************************************

%block SCF.Mixers
  Pulay
%endblock SCF.Mixers

%block SCF.Mixer.Pulay
  # Mixing method
  method pulay
  variant stable

  # Mixing options
  weight 0.2500
  weight.linear 0.2500
  history 6
  restart 24
  restart.save 3
%endblock SCF.Mixer.Pulay

Size of DM history Fstack: 3
Total number of electrons:    98.000000
Total ionic charge:    98.000000

* ProcessorY, Blocksize:    2  24


* Orbital distribution balance (max,min):    48    24


Time-reversal symmetry not used.

siesta: k-grid: Number of k-points =     1
siesta: k-grid: Cutoff (effective) =     5.000 Ang
siesta: k-grid: Supercell and displacements
siesta: k-grid:    1   0   0      0.000
siesta: k-grid:    0   1   0      0.000
siesta: k-grid:    0   0   1      0.000

diag: Algorithm                                     = ELPA-1stage
diag: Parallel over k                               =   F
diag: Use parallel 2D distribution                  =   T
diag: Parallel block-size                           = 24
diag: Parallel distribution                         =     2 x     4
diag: Used triangular part                          = Lower
diag: Absolute tolerance                            =  0.100E-15
diag: Orthogonalization factor                      =  0.100E-05
diag: Memory factor                                 =  1.0000


ts: **************************************************************
ts: Save H and S matrices                           =    F
ts: Save DM and EDM matrices                        =    F
ts: Only save the overlap matrix S                  =    F
ts: **************************************************************

************************ Begin: TS CHECKS AND WARNINGS ************************
************************ End: TS CHECKS AND WARNINGS **************************


                     ====================================
                        Begin MD step =      1
                     ====================================

outcoor: Atomic coordinates (Ang):                          
    2.28494382   -5.19529124    0.00000000   1       1  H
    1.37433094   -4.66471070    0.00000000   2       2  N
   -0.21830245   -5.49458215    0.00000000   3       3  Si
   -0.17484108   -6.98516892    0.00000000   1       4  H
   -1.66171682   -4.58600741    0.00000000   2       5  N
   -1.09026419   -2.87456374    0.00000000   3       6  Si
   -1.53038332   -0.70765692    0.00000000   3       7  Si
   -3.14415959   -0.09186471    0.00000000   2       8  N
   -3.40268075    0.95848335    0.00000000   1       9  H
   -3.95073599   -0.76720972    0.00000000   1      10  H
   -0.17836637    0.41349951    0.00000000   2      11  N
    1.49520211   -0.04739960    0.00000000   3      12  Si
    2.45603905    1.10727302    0.00000000   1      13  H
    2.30451743   -1.58574382    0.00000000   2      14  N
    1.10725559   -2.84610319    0.00000000   3      15  Si
    0.72896274    6.40837804    0.00000000   1      16  H
   -0.07974794    5.71617216    0.00000000   2      17  N
   -1.73633778    6.42929226    0.00000000   3      18  Si
   -1.63947261    7.94001747    0.00000000   1      19  H
   -3.46249413    5.08624413    0.00000000   3      20  Si
   -5.81694838    5.07825720    0.00000000   3      21  Si
   -6.37936650    5.81274685   -1.20183078   1      22  H
   -6.11676213    3.59916607   -0.08618332   1      23  H
   -6.37947896    5.64308966    1.28814761   1      24  H
   -2.53310349    3.01567290    0.00000000   3      25  Si
   -3.48257185    1.72713677    0.00000000   4      26  O
   -0.74215862    2.84193743    0.00000000   2      27  N
   -0.41116726    1.80958045    0.00000000   1      28  H
    0.56629960    4.03648385    0.00000000   3      29  Si
    2.13223653    3.76923700    0.00000000   4      30  O

outcell: Unit cell vectors (Ang):
       30.000000    0.000000    0.000000
        0.000000   45.000000    0.000000
        0.000000    0.000000   10.000000

outcell: Cell vector modules (Ang)   :   30.000000   45.000000   10.000000
outcell: Cell angles (23,13,12) (deg):     90.0000     90.0000     90.0000
outcell: Cell volume (Ang**3)        :  13500.0000
<dSpData1D:S at geom step 1
  <sparsity:sparsity for geom step 1
    nrows_g=302 nrows=48 sparsity=.1113 nnzs=10151, refcount: 8>
  <dData1D:(new from dSpData1D) n=10151, refcount: 1>
refcount: 1>
new_DM -- step:     1
Initializing Density Matrix...

Attempting to read DM from file... Failed...
DM filled with atomic data:
<dSpData2D:DM initialized from atoms
  <sparsity:sparsity for geom step 1
    nrows_g=302 nrows=48 sparsity=.1113 nnzs=10151, refcount: 9>
  <dData2D:DM n=10151 m=8, refcount: 1>
refcount: 1>
     spin moment: S , {S} =   56.00000   0.00000   0.00000  56.00000
No. of atoms with KB's overlaping orbs in proc 0. Max # of overlaps:      28     205

Initializing spin-orbit part of the Hamiltonian
  Adding spin-orbit effects for H 
  Adding spin-orbit effects for N 
  Adding spin-orbit effects for Si
  Adding spin-orbit effects for O 


New grid distribution:   1
           1       1:  180    1:  125    1:   15
           2       1:  180    1:  125   16:   30
           3       1:  180    1:  125   31:   45
           4       1:  180    1:  125   46:   60
           5       1:  180  126:  250    1:   15
           6       1:  180  126:  250   16:   30
           7       1:  180  126:  250   31:   45
           8       1:  180  126:  250   46:   60

InitMesh: MESH =   360 x   500 x   120 =    21600000
InitMesh: (bp) =   180 x   250 x    60 =     2700000
InitMesh: Mesh cutoff (required, used) =   340.000   341.206 Ry
ExtMesh (bp) on 0 =   288 x   225 x   123 =     7970400
New grid distribution:   2
           1     156:  180   33:  230    1:   60
           2       1:  159    1:   16    1:   60
           3       1:  159   17:   32    1:   60
           4     160:  180   15:   32    1:   60
           5       1:  155   33:  230    1:   60
           6       1:  155  231:  250    1:   60
           7     156:  180  231:  250    1:   60
           8     160:  180    1:   14    1:   60
New grid distribution:   3
           1     147:  180   45:  222    1:   60
           2       1:  141    1:   23    1:   60
           3       1:  141   24:   44    1:   60
           4     142:  180    1:   23    1:   60
           5       1:  146   45:  224    1:   60
           6       1:  146  225:  250    1:   60
           7     147:  180  223:  250    1:   60
           8     142:  180   24:   44    1:   60
Setting up quadratic distribution...
ExtMesh (bp) on 0 =   133 x   298 x   168 =     6658512
PhiOnMesh: Number of (b)points on node 0 =               297000
PhiOnMesh: nlist on node 0 =              1693791

stepf: Fermi-Dirac step function

siesta: Program's energy decomposition (eV):
siesta: Ebs     =      -575.091036
siesta: Eions   =      3553.971015
siesta: Ena     =       389.515323
siesta: Ekin    =      3222.077906
siesta: Enl     =     -3037.524928
siesta: Eso     =        -0.003960
siesta: Edftu   =         0.000000
siesta: DEna    =       132.758765
siesta: DUscf   =        79.519631
siesta: DUext   =         0.000000
siesta: Exc     =     -1179.517674
siesta: eta*DQ  =         0.000000
siesta: Emadel  =         0.000000
siesta: Emeta   =         0.000000
siesta: Emolmec =         0.000000
siesta: Ekinion =         0.000000
siesta: Eharris =     -3858.294853
siesta: Etot    =     -3947.145951
siesta: FreeEng =     -3947.152345

        iscf     Eharris(eV)        E_KS(eV)     FreeEng(eV)     dDmax    Ef(eV) dHmax(eV)
   scf:    1    -3858.294853    -3947.145951    -3947.152345  0.966464 -4.987725 24.686507
     spin moment: S , {S} =    2.05379  -0.00000  -0.00000   2.05379
timer: Routine,Calls,Time,% = IterSCF        1      11.848  32.49
   scf:    2    -3965.256967    -3976.251074    -3976.280546  0.437042 -3.950440 13.338319
     spin moment: S , {S} =    3.48616   0.00000  -0.00000   3.48616
   scf:    3    -3962.649011    -3982.675322    -3982.711126  0.432853 -4.175889 12.717477
     spin moment: S , {S} =    0.91201  -0.00000   0.00000   0.91201
   scf:    4    -3994.337276    -3989.555811    -3989.555919  0.136054 -3.815227  7.812337
     spin moment: S , {S} =    0.00055  -0.00000   0.00000   0.00055
   scf:    5    -3991.590836    -3990.747504    -3990.747636  0.057648 -3.694109  3.223282
     spin moment: S , {S} =    0.00064   0.00000   0.00000   0.00064
   scf:    6    -3991.860856    -3991.347617    -3991.348329  0.034333 -3.658008  1.661127
     spin moment: S , {S} =    0.00383   0.00000   0.00000   0.00383
   scf:    7    -3991.690093    -3991.605179    -3991.607805  0.040369 -3.723027  0.880544
     spin moment: S , {S} =    0.01135  -0.00000  -0.00000   0.01135
   scf:    8    -3991.734558    -3991.687375    -3991.687981  0.018829 -3.735502  0.503051
     spin moment: S , {S} =    0.00079  -0.00000  -0.00000   0.00079
   scf:    9    -3991.751581    -3991.720256    -3991.720607  0.009613 -3.767550  0.258734
     spin moment: S , {S} =    0.00039  -0.00000  -0.00000  -0.00039
   scf:   10    -3991.751919    -3991.736194    -3991.736726  0.007374 -3.775058  0.165124
     spin moment: S , {S} =    0.00133  -0.00000  -0.00000  -0.00133
   scf:   11    -3991.756079    -3991.746231    -3991.746550  0.006435 -3.781536  0.129418
     spin moment: S , {S} =    0.00054  -0.00000  -0.00000  -0.00054
   scf:   12    -3991.761495    -3991.753209    -3991.753577  0.007066 -3.781108  0.058369
     spin moment: S , {S} =    0.00052  -0.00000  -0.00000  -0.00052
   scf:   13    -3991.758457    -3991.755483    -3991.755847  0.005157 -3.780386  0.034453
     spin moment: S , {S} =    0.00031  -0.00000  -0.00000  -0.00031
   scf:   14    -3991.756946    -3991.756112    -3991.756471  0.003359 -3.778114  0.018505
     spin moment: S , {S} =    0.00011  -0.00000  -0.00000  -0.00011
   scf:   15    -3991.756482    -3991.756278    -3991.756636  0.001755 -3.776855  0.014360
     spin moment: S , {S} =    0.00005  -0.00000  -0.00000  -0.00005
   scf:   16    -3991.756428    -3991.756345    -3991.756704  0.001157 -3.776295  0.009242
     spin moment: S , {S} =    0.00003  -0.00000  -0.00000  -0.00003
   scf:   17    -3991.756450    -3991.756388    -3991.756746  0.001304 -3.776205  0.003870
     spin moment: S , {S} =    0.00003  -0.00000  -0.00000  -0.00003
   scf:   18    -3991.756403    -3991.756394    -3991.756753  0.000410 -3.776323  0.002269
     spin moment: S , {S} =    0.00003  -0.00000  -0.00000  -0.00003
   scf:   19    -3991.756401    -3991.756397    -3991.756755  0.000250 -3.776357  0.001426
     spin moment: S , {S} =    0.00002  -0.00000  -0.00000  -0.00002
   scf:   20    -3991.756401    -3991.756398    -3991.756757  0.000263 -3.776372  0.000628
     spin moment: S , {S} =    0.00001  -0.00000  -0.00000  -0.00001
   scf:   21    -3991.756399    -3991.756399    -3991.756757  0.000058 -3.776378  0.000529
     spin moment: S , {S} =    0.00001  -0.00000  -0.00000  -0.00001
   scf:   22    -3991.756399    -3991.756399    -3991.756757  0.000068 -3.776371  0.000349
     spin moment: S , {S} =    0.00000  -0.00000  -0.00000  -0.00000
   scf:   23    -3991.756399    -3991.756399    -3991.756757  0.000043 -3.776380  0.000197
     spin moment: S , {S} =    0.00000  -0.00000  -0.00000  -0.00000
   scf:   24    -3991.756399    -3991.756399    -3991.756757  0.000016 -3.776381  0.000112
     spin moment: S , {S} =    0.00000  -0.00000  -0.00000  -0.00000
mix: Pulay -- resetting history
   scf:   25    -3991.756399    -3991.756399    -3991.756757  0.000011 -3.776383  0.000076
     spin moment: S , {S} =    0.00000  -0.00000  -0.00000  -0.00000
   scf:   26    -3991.756399    -3991.756399    -3991.756757  0.000007 -3.776381  0.000066
     spin moment: S , {S} =    0.00000  -0.00000  -0.00000  -0.00000
   scf:   27    -3991.756399    -3991.756399    -3991.756757  0.000005 -3.776379  0.000049
     spin moment: S , {S} =    0.00000  -0.00000  -0.00000  -0.00000
   scf:   28    -3991.756399    -3991.756399    -3991.756757  0.000008 -3.776377  0.000027
     spin moment: S , {S} =    0.00000  -0.00000  -0.00000  -0.00000
   scf:   29    -3991.756399    -3991.756399    -3991.756757  0.000003 -3.776377  0.000018
     spin moment: S , {S} =    0.00000  -0.00000  -0.00000  -0.00000
   scf:   30    -3991.756399    -3991.756399    -3991.756757  0.000003 -3.776377  0.000013
     spin moment: S , {S} =    0.00000  -0.00000  -0.00000  -0.00000
   scf:   31    -3991.756399    -3991.756399    -3991.756757  0.000002 -3.776377  0.000007
     spin moment: S , {S} =    0.00000  -0.00000  -0.00000  -0.00000
   scf:   32    -3991.756399    -3991.756399    -3991.756757  0.000002 -3.776378  0.000004
     spin moment: S , {S} =    0.00000  -0.00000  -0.00000  -0.00000
   scf:   33    -3991.756399    -3991.756399    -3991.756757  0.000001 -3.776378  0.000003
     spin moment: S , {S} =    0.00000  -0.00000  -0.00000  -0.00000
   scf:   34    -3991.756399    -3991.756399    -3991.756757  0.000000 -3.776378  0.000002
     spin moment: S , {S} =    0.00000  -0.00000  -0.00000  -0.00000
   scf:   35    -3991.756399    -3991.756399    -3991.756757  0.000000 -3.776378  0.000001
     spin moment: S , {S} =    0.00000  -0.00000  -0.00000  -0.00000
   scf:   36    -3991.756399    -3991.756399    -3991.756757  0.000000 -3.776378  0.000001
     spin moment: S , {S} =    0.00000  -0.00000   0.00000   0.00000

SCF Convergence by DM+H criterion
max |DM_out - DM_in|         :     0.0000002763
max |H_out - H_in|      (eV) :     0.0000007064
SCF cycle converged after 36 iterations

Using DM_out to compute the final energy and forces
No. of atoms with KB's overlaping orbs in proc 0. Max # of overlaps:      28     205

siesta: E_KS(eV) =            -3991.7564

siesta: E_KS - E_eggbox =     -3991.7564
     spin moment: S , {S} =    0.00000  -0.00000   0.00000   0.00000

siesta: Atomic forces (eV/Ang):
     1    0.150915   -0.087076   -0.000015
     2    0.095359   -0.029161   -0.000047
     3    0.057067    0.011163   -0.000005
     4    0.066231   -0.135432    0.000008
     5    0.002933    0.075723   -0.000064
     6    0.233355   -0.024373    0.000009
     7   -1.587535   -0.786616   -0.000255
     8    3.826278  -15.528662    0.000843
     9    1.841556  -22.607473   -0.000284
    10    0.165483   -0.762352   -0.000294
    11    0.598331   -1.768213    0.000035
    12    0.561558   -0.227421    0.000004
    13   -0.209371   -0.000346    0.000010
    14   -0.061706    0.181303   -0.000041
    15   -0.054919   -0.233636    0.000202
    16   -0.054677   -0.027865   -0.000868
    17    0.113081    0.121918   -0.000683
    18    0.133073    0.039332    0.004568
    19   -0.004491   -0.155067   -0.000835
    20   -0.098207   -0.242874   -0.001369
    21    0.117398    0.083025   -0.002840
    22    0.039487   -0.010200    0.114601
    23    0.041114    0.043897   -0.010597
    24    0.033492    0.046951   -0.093518
    25    1.200676    2.029488    0.000073
    26   -7.605006   34.939206    0.000160
    27   -1.365386    3.264776   -0.000266
    28    0.346546   -1.654173   -0.000072
    29   -0.596318    0.000801   -0.000009
    30    0.623282    2.983255    0.000119
----------------------------------------
   Tot   -1.390401   -0.460098    0.008570
----------------------------------------
   Max   34.939206
   Res    4.816057    sqrt( Sum f_i^2 / 3N )
----------------------------------------
   Max   34.939206    constrained

Stress tensor Voigt[x,y,z,yz,xz,xy] (kbar):        0.14       -7.10       -0.02       -0.01        0.00        1.17
(Free)E + p*V (eV/cell)    -3972.1561
Target enthalpy (eV/cell)    -3991.7568

siesta: Stress tensor (static) (eV/Ang**3):
         0.000086    0.000727    0.000000
         0.000727   -0.004432   -0.000004
         0.000000   -0.000004   -0.000010

siesta: Pressure (static):          2.32622954  kBar

siesta: Stress tensor (total) (eV/Ang**3):
         0.000086    0.000727    0.000000
         0.000727   -0.004432   -0.000004
         0.000000   -0.000004   -0.000010

siesta: Pressure (total):          2.32622954  kBar

siesta: Temp_ion =       0.000 K

siesta: Eigenvalues (eV):
ik =     1
  -27.1011  -27.1011  -22.7658  -22.7658  -21.6040  -21.6040  -21.0779  -21.0779  -20.8580  -20.8580
  -19.7870  -19.7870  -19.3106  -19.3106  -19.1061  -19.1061  -18.8328  -18.8328  -15.7370  -15.7370
  -14.8596  -14.8596  -14.1264  -14.1264  -13.4330  -13.4330  -13.3183  -13.3183  -12.7107  -12.7107
  -12.6441  -12.6441  -12.2779  -12.2779  -11.9447  -11.9447  -11.6935  -11.6935  -11.2271  -11.2271
  -10.8027  -10.8027  -10.4879  -10.4879  -10.0969  -10.0969   -9.4995   -9.4995   -9.4118   -9.4118
   -9.3970   -9.3970   -9.3096   -9.3096   -8.8348   -8.8348   -8.7846   -8.7846   -8.7260   -8.7260
   -8.6277   -8.6277   -8.5743   -8.5743   -8.3170   -8.3170   -8.1329   -8.1329   -8.0060   -8.0060
   -7.8106   -7.8106   -7.6290   -7.6290   -7.3191   -7.3191   -7.3175   -7.3175   -6.9627   -6.9627
   -6.6902   -6.6902   -6.5198   -6.5198   -6.3585   -6.3585   -6.1360   -6.1360   -5.8155   -5.8155
   -5.7380   -5.7380   -5.3718   -5.3718   -4.7900   -4.7900   -3.9792   -3.9792   -3.5736   -3.5736
   -2.7063   -2.7063   -2.3853   -2.3853   -2.3437   -2.3437   -2.0326   -2.0326   -1.9809   -1.9809
   -1.7773   -1.7773   -1.7631   -1.7631   -1.6315   -1.6315   -1.3534   -1.3534   -1.2755   -1.2755
   -1.0375   -1.0375   -0.4872   -0.4872   -0.2075   -0.2075   -0.1732   -0.1732   -0.0525   -0.0525
   -0.0369   -0.0369   -0.0075   -0.0075    0.2254    0.2254    0.6236    0.6236    0.6976    0.6976
    0.8568    0.8568    1.0954    1.0954    1.3557    1.3557    1.4206    1.4206    1.5658    1.5658
    1.7645    1.7645    1.8684    1.8684    2.2251    2.2251    2.3898    2.3898    2.5130    2.5130
    2.6125    2.6125    2.7071    2.7071    2.9113    2.9113    3.0857    3.0857    3.1762    3.1762
    3.2359    3.2359    3.3225    3.3225    3.4204    3.4204    3.6572    3.6572    3.8401    3.8401
    4.1156    4.1156    4.3707    4.3707    4.3825    4.3825    4.5836    4.5836    4.6846    4.6846
    4.8859    4.8859    5.1390    5.1390    5.2461    5.2461    5.2507    5.2507    5.3544    5.3544
    5.6415    5.6415    5.6897    5.6897    5.9440    5.9440    5.9617    5.9617    6.1968    6.1968
    6.3297    6.3297    6.3704    6.3704    6.6226    6.6226    6.8443    6.8443    7.0039    7.0039
    7.1240    7.1240    7.2217    7.2217    7.3738    7.3738    7.5564    7.5564    7.7815    7.7815
    7.7888    7.7888    7.8947    7.8947    8.0233    8.0233    8.3329    8.3329    8.5134    8.5134
    8.5622    8.5622    8.7810    8.7810    8.8875    8.8875    8.9072    8.9072    9.3180    9.3180
    9.3722    9.3722    9.5691    9.5691    9.6755    9.6755    9.7720    9.7720    9.9215    9.9215
    9.9820    9.9820   10.1670   10.1670   10.5376   10.5376   10.6549   10.6549   10.7364   10.7364
   11.0848   11.0848   11.5089   11.5089   11.5836   11.5836   11.7698   11.7698   11.7899   11.7899
   11.9364   11.9364   12.0326   12.0326   12.0736   12.0736   12.1764   12.1764   12.6190   12.6190
   12.6633   12.6633   12.8350   12.8350   13.2700   13.2700   13.3946   13.3946   13.5661   13.5661
   13.8687   13.8687   14.1350   14.1350   14.3705   14.3705   14.5570   14.5570   14.8200   14.8200
   15.0800   15.0800   15.3703   15.3703   15.5220   15.5220   15.5509   15.5509   15.8423   15.8423
   16.1025   16.1025   16.4497   16.4497   16.5317   16.5317   17.0348   17.0348   17.3688   17.3688
   17.5526   17.5526   17.7240   17.7240   18.0310   18.0310   18.0472   18.0472   18.3035   18.3035
   18.7519   18.7519   18.9747   18.9747   19.0223   19.0223   19.5320   19.5320   19.5474   19.5474
   19.9856   19.9856   20.3541   20.3541   20.8485   20.8485   21.0283   21.0283   21.5175   21.5175
   21.6339   21.6339   22.3259   22.3259   22.7768   22.7768   23.0164   23.0164   23.1272   23.1272
   23.4895   23.4895   23.7241   23.7241   24.4196   24.4196   24.8607   24.8607   25.0903   25.0903
   25.2374   25.2374   25.8321   25.8321   25.9257   25.9257   26.3744   26.3744   27.3529   27.3529
   27.5397   27.5397   28.0312   28.0312   28.4575   28.4575   29.2209   29.2209   29.6939   29.6939
   30.2305   30.2305   31.0196   31.0196   31.0714   31.0714   31.3855   31.3855   31.4192   31.4192
   31.6676   31.6676   32.0759   32.0759   32.4664   32.4664   32.5543   32.5543   33.5929   33.5929
   33.7942   33.7942   34.5101   34.5101   35.0212   35.0212   35.1829   35.1829   36.0679   36.0679
   36.6253   36.6253   36.8343   36.8343   36.9929   36.9929   37.3571   37.3571   37.4031   37.4031
   38.0920   38.0920   38.8833   38.8833   39.4255   39.4255   39.8638   39.8638   40.3472   40.3472
   40.5338   40.5338   40.7569   40.7569   41.7694   41.7694   41.8206   41.8206   42.6775   42.6775
   43.3731   43.3731   43.6302   43.6302   43.7125   43.7125   43.7385   43.7385   44.2128   44.2128
   44.3396   44.3396   44.5399   44.5399   45.0878   45.0878   45.4296   45.4296   45.5484   45.5484
   46.4643   46.4643   47.3091   47.3091   47.3203   47.3203   47.6052   47.6052   48.2164   48.2164
   48.2482   48.2482   49.1228   49.1228   49.4154   49.4154   49.5807   49.5807   49.9808   49.9808
   50.2764   50.2764   50.7324   50.7324   51.0740   51.0740   51.4543   51.4543   51.7565   51.7565
   52.1382   52.1382   53.5739   53.5739   53.8743   53.8743   54.6119   54.6119   55.4628   55.4628
   56.1002   56.1002   56.8609   56.8609   57.2878   57.2878   57.8287   57.8287   58.5002   58.5002
   58.5409   58.5409   60.0999   60.0999   60.6146   60.6146   60.9773   60.9773   61.2541   61.2541
   61.8030   61.8030   63.8912   63.8912   64.5740   64.5740   64.8082   64.8082   65.9657   65.9657
   66.3202   66.3202   67.1421   67.1421   68.2481   68.2481   68.6016   68.6016   70.0250   70.0250
   70.4024   70.4024   72.7329   72.7329   73.2327   73.2327   76.0721   76.0721   78.3482   78.3482
   89.1573   89.1573   93.3045   93.3045   93.6238   93.6238   94.4063   94.4063   97.6351   97.6351
   98.3121   98.3121  101.0764  101.0764  102.1178  102.1178  105.2516  105.2516  112.7481  112.7481
  114.9049  114.9049  123.4957  123.4957  125.0760  125.0760  131.4303  131.4303  142.1315  142.1315
  151.5687  151.5687  194.1786  194.1786
siesta: Fermi energy =      -3.776378 eV

siesta: Program's energy decomposition (eV):
siesta: Ebs     =     -1119.723880
siesta: Eions   =      3553.971015
siesta: Ena     =       389.515323
siesta: Ekin    =      2783.137065
siesta: Enl     =     -2561.685446
siesta: Eso     =        -0.004811
siesta: Edftu   =         0.000000
siesta: DEna    =        37.678880
siesta: DUscf   =        14.266190
siesta: DUext   =         0.000000
siesta: Exc     =     -1100.692586
siesta: eta*DQ  =         0.000000
siesta: Emadel  =         0.000000
siesta: Emeta   =         0.000000
siesta: Emolmec =         0.000000
siesta: Ekinion =         0.000000
siesta: Eharris =     -3991.756399
siesta: Etot    =     -3991.756399
siesta: FreeEng =     -3991.756757

siesta: Final energy (eV):
siesta:  Band Struct. =   -1119.723880
siesta:       Kinetic =    2783.137065
siesta:       Hartree =   15835.061005
siesta:       Edftu   =       0.000000
siesta:       Eso     =      -0.004811
siesta:    Ext. field =       0.000000
siesta:   Exch.-corr. =   -1100.692586
siesta:  Ion-electron =  -34144.069816
siesta:       Ion-ion =   12634.812743
siesta:       Ekinion =       0.000000
siesta:         Total =   -3991.756399
siesta:         Fermi =      -3.776378

siesta: Atomic forces (eV/Ang):
siesta:      1    0.150915   -0.087076   -0.000015
siesta:      2    0.095359   -0.029161   -0.000047
siesta:      3    0.057067    0.011163   -0.000005
siesta:      4    0.066231   -0.135432    0.000008
siesta:      5    0.002933    0.075723   -0.000064
siesta:      6    0.233355   -0.024373    0.000009
siesta:      7   -1.587535   -0.786616   -0.000255
siesta:      8    3.826278  -15.528662    0.000843
siesta:      9    1.841556  -22.607473   -0.000284
siesta:     10    0.165483   -0.762352   -0.000294
siesta:     11    0.598331   -1.768213    0.000035
siesta:     12    0.561558   -0.227421    0.000004
siesta:     13   -0.209371   -0.000346    0.000010
siesta:     14   -0.061706    0.181303   -0.000041
siesta:     15   -0.054919   -0.233636    0.000202
siesta:     16   -0.054677   -0.027865   -0.000868
siesta:     17    0.113081    0.121918   -0.000683
siesta:     18    0.133073    0.039332    0.004568
siesta:     19   -0.004491   -0.155067   -0.000835
siesta:     20   -0.098207   -0.242874   -0.001369
siesta:     21    0.117398    0.083025   -0.002840
siesta:     22    0.039487   -0.010200    0.114601
siesta:     23    0.041114    0.043897   -0.010597
siesta:     24    0.033492    0.046951   -0.093518
siesta:     25    1.200676    2.029488    0.000073
siesta:     26   -7.605006   34.939206    0.000160
siesta:     27   -1.365386    3.264776   -0.000266
siesta:     28    0.346546   -1.654173   -0.000072
siesta:     29   -0.596318    0.000801   -0.000009
siesta:     30    0.623282    2.983255    0.000119
siesta: ----------------------------------------
siesta:    Tot   -1.390401   -0.460098    0.008570

siesta: Stress tensor (static) (eV/Ang**3):
siesta:     0.000086    0.000727    0.000000
siesta:     0.000727   -0.004432   -0.000004
siesta:     0.000000   -0.000004   -0.000010

siesta: Cell volume =      13500.000000 Ang**3

siesta: Pressure (static):
siesta:                Solid            Molecule  Units
siesta:           0.00001581         -0.00000327  Ry/Bohr**3
siesta:           0.00145190         -0.00029992  eV/Ang**3
siesta:           2.32622954         -0.48053158  kBar
(Free)E+ p_basis*V_orbitals  =       -3970.628672
(Free)Eharris+ p_basis*V_orbitals  =       -3970.628672
     spin moment: S , {S} =    0.00000  -0.00000   0.00000   0.00000

siesta: Electric dipole (a.u.)  =   -1.032040    1.760710   -0.001570
siesta: Electric dipole (Debye) =   -2.623186    4.475282   -0.003992

cite: Please see "AT.bib" for an exhaustive BiBTeX file.
cite: Please clearly indicate Siesta version in published work: v4.1.5-1-g384057250
cite: This calculation has made use of the following articles
cite: which are encouraged to be cited in a published work.
        Primary SIESTA paper
          DOI: www.doi.org/10.1088/0953-8984/14/11/302
        Spin-orbit coupling (on-site approximation)
          DOI: www.doi.org/10.1088/0953-8984/19/19/489001


WARNING: alloc-realloc-dealloc name mismatch
         Name: atomlist isa
         Size:              -120. Bytes
         Node:     0
         Subsequent mismatches will not be reported
>> End of run:   1-FEB-2024  17:56:06
Job completed
