Executable      : siesta-5
Version         : 5.1-MaX-41-g6ad11e234
Architecture    : x86_64
Compiler version: GNU-12.2.0
Compiler flags  : -DSIESTA__METIS -fallow-argument-mismatch -O3 -march=native
Parallelisations: MPI, OpenMP
* OpenMP version: 201511
NetCDF support
NetCDF-4 support
NetCDF-4 MPI-IO support
METIS ordering support
Lua support
Native ELPA support
DFT-D3 support
Wannier90 wrapper support

Runtime information:
* Directory : /home/cdelv/Si_DNA2/C/Base_Pairs/AT_VDW_OP
* Running on 32 nodes in parallel.
* Running 1 OpenMP threads.
* Running 32 processes.
* OpenMP NOT bound (please bind threads!)
* OpenMP runtime schedule DYNAMIC, chunks 1
** Changing chunk size:
** OpenMP runtime schedule DYNAMIC, chunks 32
** OpenMP (trying to FORCE nesting)
* OpenMP allows 255 nested levels.
>> Start of run:   3-SEP-2024   9:21:14

                           *********************** 
                           *  WELCOME TO SIESTA  * 
                           *********************** 

 NOTE: Siesta V5 introduces some new defaults for basis-set generation
 NOTE: which might lead to slightly different numerical results.
 NOTE: Please see the manual for full details and compatibility measures.


reinit: Reading from standard input
reinit: Dumping input in INPUT_TMP.63120
************************** Dump of input data file ****************************
# mpirun -np 8 siesta-5 < AT.fdf > AT.out
SystemLabel      AT
NumberOfAtoms    30
NumberOfSpecies  4
%block ChemicalSpeciesLabel
    1    1  H   ../../../Pseudos/VW/H/H.psf
    2    7  N   ../../../Pseudos/VW/N/N.psf
    3    6  C   ../../../Pseudos/VW/C/C.psf
    4    8  O   ../../../Pseudos/VW/O/O.psf
%endblock ChemicalSpeciesLabel
############################################
# This overrides Defaults.fdf configuration
############################################
XC.Functional               VDW
XC.Authors                  DRSLL
MD.Steps                    1000
%block Geometry.Constraints
    atom [6]
%endblock
AtomicCoordinatesFormat NotScaledCartesianAng
%block AtomicCoordinatesAndAtomicSpecies
    6.52047157   -4.96159724    1.96254316   1       1  H
    5.75572897   -4.34634128    1.65054976   2       2  N
    4.35043051   -4.66429009    1.65888261   3       3  C
    4.03730297   -5.64380423    1.99564224   1       4  H
    3.53324438   -3.63456212    1.21447597   2       5  N
    4.53000000   -2.59400000    0.91000000   3       6  C
    4.29906835   -1.28300010    0.42922834   3       7  C
    3.00245674   -0.78150071    0.16272266   2       8  N
    2.90010886    0.27906189   -0.14381733   1       9  H
    2.23967817   -1.49389669    0.37570451   1      10  H
    5.42995101   -0.43173844    0.19849504   2      11  N
    6.71303066   -0.97637517    0.48735602   3      12  C
    7.55814342   -0.29765695    0.28834613   1      13  H
    7.05310698   -2.24998204    0.98256721   2      14  N
    5.85536105   -2.98895911    1.16041279   3      15  C
    6.69906845    4.82471221   -1.90712190   1      16  H
    5.84795297    4.27787886   -1.65630839   2      17  N
    4.50685381    4.80325966   -1.70020715   3      18  C
    4.34192890    5.83976003   -2.04653200   1      19  H
    3.41325662    4.06633279   -1.33662598   3      20  C
    2.01962077    4.61302014   -1.38422557   3      21  C
    1.75081767    4.89987518   -2.40714284   1      22  H
    1.30888039    3.85029468   -1.04125098   1      23  H
    1.91112760    5.49724686   -0.74388923   1      24  H
    3.57580434    2.69203650   -0.90375704   3      25  C
    2.62822412    1.94001154   -0.57583417   4      26  O
    4.93691634    2.18272930   -0.86071991   2      27  N
    5.06973901    1.18200311   -0.48203997   1      28  H
    6.14705904    2.90495403   -1.19340872   3      29  C
    7.28575500    2.45613527   -1.11491204   4      30  O
%endblock AtomicCoordinatesAndAtomicSpecies
#############
# Unit Cell
#############
LatticeConstant 1.0 Ang
%block LatticeVectors
    13.410444    0.000000    0.000000
    0.000000   19.141444    0.000000
    0.000000    0.000000   11.548144
%endblock LatticeVectors
%include ../../../Defaults.fdf
************************** End of input data file *****************************

reinit: -----------------------------------------------------------------------
reinit: System Name: 
reinit: -----------------------------------------------------------------------
reinit: System Label: AT
reinit: -----------------------------------------------------------------------

NOTE on units for spin output: 
{S} is the spin magnetic moment, in units of the Bohr magneton,
assuming a g-factor for the electron spin of exactly 2.
The spin magnetic moment is then numerically equal to the charge inbalance,
in units of electrons, between the spin-up and -down channels.


initatom: Reading input for the pseudopotentials and atomic orbitals ----------
Species number:   1 Atomic number:    1 Label: H
Species number:   2 Atomic number:    7 Label: N
Species number:   3 Atomic number:    6 Label: C
Species number:   4 Atomic number:    8 Label: O

Ground state valence configuration (from tables):   1s01  2p00  3d00  4f00
Ground state valence configuration (from tables):   2s02  2p03  3d00  4f00
Ground state valence configuration (from tables):   2s02  2p02  3d00  4f00
Ground state valence configuration (from tables):   2s02  2p04  3d00  4f00

---- Processing specs for species: H
Reading pseudopotential information in formatted form from:
  ../../../Pseudos/VW/H/H.psf

---- Processing specs for species: N
Reading pseudopotential information in formatted form from:
  ../../../Pseudos/VW/N/N.psf

---- Processing specs for species: C
Reading pseudopotential information in formatted form from:
  ../../../Pseudos/VW/C/C.psf

---- Processing specs for species: O
Reading pseudopotential information in formatted form from:
  ../../../Pseudos/VW/O/O.psf

---- Pseudopotential check for H 

Pseudopotential generated from a fully relativistic atomic calculation
There are spin-orbit semi-local pseudopotentials available

Pseudized shells:
1s( 1.00) rc: 0.04
Valence configuration for ps generation: (assumed as above)

---- Pseudopotential check for N 

Pseudopotential generated from a fully relativistic atomic calculation
There are spin-orbit semi-local pseudopotentials available

Pseudized shells:
2s( 2.00) rc: 1.00
2p( 3.00) rc: 1.04
3d( 0.00) rc: 2.87
Valence configuration for ps generation: (assumed as above)

---- Pseudopotential check for C 

Pseudopotential generated from a fully relativistic atomic calculation
There are spin-orbit semi-local pseudopotentials available

Pseudized shells:
2s( 2.00) rc: 1.09
2p( 2.00) rc: 0.72
3d( 0.00) rc: 1.84
Valence configuration for ps generation: (assumed as above)

---- Pseudopotential check for O 

Pseudopotential generated from a fully relativistic atomic calculation
There are spin-orbit semi-local pseudopotentials available

Pseudized shells:
2s( 2.00) rc: 0.89
2p( 4.00) rc: 1.03
3d( 0.00) rc: 1.64
Valence configuration for ps generation: (assumed as above)
For H, standard SIESTA heuristics set lmxkb to 2
 (one more than the basis l, including polarization orbitals).
Use PS.lmax or PS.KBprojectors blocks to override.
For N, standard SIESTA heuristics set lmxkb to 3
 (one more than the basis l, including polarization orbitals).
Use PS.lmax or PS.KBprojectors blocks to override.
For C, standard SIESTA heuristics set lmxkb to 3
 (one more than the basis l, including polarization orbitals).
Use PS.lmax or PS.KBprojectors blocks to override.
For O, standard SIESTA heuristics set lmxkb to 3
 (one more than the basis l, including polarization orbitals).
Use PS.lmax or PS.KBprojectors blocks to override.
../../../Pseudos/VW/H/H.psf pseudopotential only contains V_ls up to l=0 -- lmxkb reset.
../../../Pseudos/VW/N/N.psf pseudopotential only contains V_ls up to l=2 -- lmxkb reset.
../../../Pseudos/VW/C/C.psf pseudopotential only contains V_ls up to l=2 -- lmxkb reset.
../../../Pseudos/VW/O/O.psf pseudopotential only contains V_ls up to l=2 -- lmxkb reset.

<basis_specs>
===============================================================================
H                    Z=   1    Mass=  1.0080        Charge= 0.17977+309
Lmxo=1 Lmxkb= 0    BasisType=split      Semic=F
L=0  Nsemic=0  Cnfigmx=1
          i=1  nzeta=2  polorb=1  (1s)  (to be polarized perturbatively)
            splnorm:   0.62000    
               vcte:    40.000    
               rinn:  -0.90000    
               qcoe:    0.0000    
               qyuk:    0.0000    
               qwid:   0.10000E-01
                rcs:    0.0000      0.0000    
            lambdas:    1.0000      1.0000    
L=1  Nsemic=0  Cnfigmx=2
          i=1  nzeta=0  polorb=0  (2p)  (perturbative polarization orbital) (from 1s)
===============================================================================
</basis_specs>

Filter: Requested cutoff:  290.000000 Ry
Using PAO.SplitTailNorm
atom: Called for H                     (Z =   1)
NOTE: H pseudopotential has channels up to l= 0
NOTE: PAOs with higher l will be generated with V_local
Maximum radius (at nrval) set to   50.00000 8518

read_vps: Pseudopotential generation method:
read_vps: ATM4.2.7  Troullier-Martins                       
Valence charge in pseudo generation:    1.00000

xc_check: Exchange-correlation functional:
xc_check: VDW Dion-Rydberg-Schroeder-Langreth-Lundqvist
V l=0 = -2*Zval/r beyond r=  0.0399
All V_l potentials equal beyond r=  0.0399
This should be close to max(r_c) in ps generation
All pots = -2*Zval/r beyond r=  0.0399
Using small-core scheme (local charge) for Vlocal

VLOCAL_FROM_CHLOCAL: 99.0% of the norm of Vloc inside  27227.515 Ry
VLOCAL_FROM_CHLOCAL: 99.9% of the norm of Vloc inside  62052.012 Ry
atom: Maximum radius for chlocal:    0.04942
atom: Maximum radius for r*vlocal+2*Zval:    0.04228

KBgen: Kleinman-Bylander projectors: 
GHOST: No ghost state for L =  0
KBproj: WARNING: Rc(0)=      0.3608
KBproj: WARNING: Cut off radius for the KB projector too small
   l= 0   rc=  0.360771   el= -0.503243   Ekb=-43.540856   kbcos= -0.003669

KBgen: Total number of Kleinman-Bylander projectors:   1
atom: -------------------------------------------------------------------------

atom: SANKEY-TYPE ORBITALS:
atom: Selected multiple-zeta basis: split     

SPLIT: Orbitals with angular momentum L= 0

SPLIT: Basis orbitals for state 1s

SPLIT: PAO cut-off radius determined from an
SPLIT: energy shift=  0.005000 Ry
Split based on tail norm

   izeta = 1
                 lambda =    1.000000
                     rc =    5.772464
                 energy =   -0.497573
                kinetic =    0.983085
    potential(screened) =   -1.480658
       potential(ionic) =   -1.978266
PAO Filter: Cutoff used:  142.10 Ry
PAO Filter: diagnostic kin energy tol:    0.003000 Ry
PAO Filter: Nominal cutoff (before filtering):  117.93 Ry
Filter:    Number of eigenfunctions  of the
           filtering kernel (total, used)= 55 20

   izeta = 2
                 rmatch =    1.631860
              splitnorm =    0.620000
                 energy =    1.774382
                kinetic =    6.071357
    potential(screened) =   -4.296974
       potential(ionic) =   -4.727849
PAO Filter: Cutoff used:  142.10 Ry
PAO Filter: diagnostic kin energy tol:    0.003000 Ry
PAO Filter: Nominal cutoff (before filtering):  901.83 Ry
Filter:    Number of eigenfunctions  of the
           filtering kernel (total, used)= 23  5
*Note: V_local used for l= 1

** Using vlocal for PAOs with L= 1

POLgen: Perturbative polarization orbital with L=  1

POLgen: Polarization orbital for state 1s
*Note: V_local used for lpol= 1

** Using vlocal for PAOs with L= 1
Split based on tail norm

   izeta = 1
                     rc =    5.772464
                 energy =    0.609532
                kinetic =    1.250628
    potential(screened) =   -0.641096
       potential(ionic) =   -1.109550
PAO Filter: diagnostic kin energy tol:    0.003000 Ry
PAO Filter: Nominal cutoff (before filtering):   54.19 Ry
Filter:    Number of eigenfunctions  of the
           filtering kernel (total, used)= 55 20
atom: Total number of Sankey-type orbitals:  5

atm_pop: Valence configuration (for local Pseudopot. screening):
 1s( 1.00)                                                            
 2p( 0.00)                                                            
Vna: chval, zval:    1.00000   1.00000

Vna:  Cut-off radius for the neutral-atom potential:   5.772464
VNA Filter: diagnostic kinetic energy tol:    0.003000 Ry
VNA Filter: Nominal cutoff (before filtering):31865.46 Ry
VNA Filter: Cutoff used:   290.00 Ry
Filter:    Number of eigenfunctions  of the
           filtering kernel (total, used)= 74 30

atom: _________________________________________________________________________

<basis_specs>
===============================================================================
N                    Z=   7    Mass=  14.007        Charge= 0.17977+309
Lmxo=2 Lmxkb= 2    BasisType=split      Semic=F
L=0  Nsemic=0  Cnfigmx=2
          i=1  nzeta=2  polorb=0  (2s)
            splnorm:   0.28000    
               vcte:    40.000    
               rinn:  -0.90000    
               qcoe:    0.0000    
               qyuk:    0.0000    
               qwid:   0.10000E-01
                rcs:    0.0000      0.0000    
            lambdas:    1.0000      1.0000    
L=1  Nsemic=0  Cnfigmx=2
          i=1  nzeta=2  polorb=1  (2p)  (to be polarized perturbatively)
            splnorm:   0.28000    
               vcte:    40.000    
               rinn:  -0.90000    
               qcoe:    0.0000    
               qyuk:    0.0000    
               qwid:   0.10000E-01
                rcs:    0.0000      0.0000    
            lambdas:    1.0000      1.0000    
L=2  Nsemic=0  Cnfigmx=3
          i=1  nzeta=0  polorb=0  (3d)  (perturbative polarization orbital) (from 2p)
-------------------------------------------------------------------------------
L=0  Nkbl=1  erefs: 0.17977+309
L=1  Nkbl=1  erefs: 0.17977+309
L=2  Nkbl=1  erefs: 0.17977+309
===============================================================================
</basis_specs>

Filter: Requested cutoff:  290.000000 Ry
Using PAO.SplitTailNorm
atom: Called for N                     (Z =   7)
Maximum radius (at nrval) set to   50.00000 8518

read_vps: Pseudopotential generation method:
read_vps: ATM4.2.7  Troullier-Martins                       
Valence charge in pseudo generation:    5.00000

xc_check: Exchange-correlation functional:
xc_check: VDW Dion-Rydberg-Schroeder-Langreth-Lundqvist
V l=0 = -2*Zval/r beyond r=  1.6351
V l=1 = -2*Zval/r beyond r=  1.6351
V l=2 = -2*Zval/r beyond r=  3.0728
All V_l potentials equal beyond r=  2.8817
This should be close to max(r_c) in ps generation
All pots = -2*Zval/r beyond r=  3.0728
Using small-core scheme (local charge) for Vlocal

VLOCAL_FROM_CHLOCAL: 99.0% of the norm of Vloc inside      5.227 Ry
VLOCAL_FROM_CHLOCAL: 99.9% of the norm of Vloc inside     11.913 Ry
atom: Maximum radius for chlocal:    3.41750
atom: Maximum radius for r*vlocal+2*Zval:    3.16984

KBgen: Kleinman-Bylander projectors: 
GHOST: No ghost state for L =  0
   l= 0   rc=  2.978674   el= -1.380579   Ekb= -3.918497   kbcos= -0.639583
GHOST: No ghost state for L =  1
j- l= 1   rc=  2.945979   el= -0.537631   Ekb=-10.726195   kbcos= -0.541225
GHOST: No ghost state for L =  1
j+ l= 1   rc=  2.945979   el= -0.536259   Ekb=-10.704119   kbcos= -0.540979
GHOST: No ghost state for L =  2
j- l= 2   rc=  3.869979   el=  0.013287   Ekb= -0.791795   kbcos= -0.046021
GHOST: No ghost state for L =  2
j+ l= 2   rc=  3.869979   el=  0.013287   Ekb= -0.790042   kbcos= -0.046052

KBgen: Total number of Kleinman-Bylander projectors:  17
atom: -------------------------------------------------------------------------

atom: SANKEY-TYPE ORBITALS:
atom: Selected multiple-zeta basis: split     

SPLIT: Orbitals with angular momentum L= 0

SPLIT: Basis orbitals for state 2s

SPLIT: PAO cut-off radius determined from an
SPLIT: energy shift=  0.005000 Ry
Split based on tail norm

   izeta = 1
                 lambda =    1.000000
                     rc =    4.265195
                 energy =   -1.374896
                kinetic =    1.265116
    potential(screened) =   -2.640012
       potential(ionic) =   -8.160676
PAO Filter: Cutoff used:  142.10 Ry
PAO Filter: diagnostic kin energy tol:    0.003000 Ry
PAO Filter: Nominal cutoff (before filtering):   71.53 Ry
Filter:    Number of eigenfunctions  of the
           filtering kernel (total, used)= 43 15

   izeta = 2
                 rmatch =    2.173283
              splitnorm =    0.280000
                 energy =   -0.503777
                kinetic =    3.173825
    potential(screened) =   -3.677602
       potential(ionic) =   -9.854287
PAO Filter: Cutoff used:  142.10 Ry
PAO Filter: diagnostic kin energy tol:    0.003000 Ry
PAO Filter: Nominal cutoff (before filtering):  129.00 Ry
Filter:    Number of eigenfunctions  of the
           filtering kernel (total, used)= 27  7

SPLIT: Orbitals with angular momentum L= 1

SPLIT: Basis orbitals for state 2p

SPLIT: PAO cut-off radius determined from an
SPLIT: energy shift=  0.005000 Ry
Split based on tail norm

   izeta = 1
                 lambda =    1.000000
                     rc =    5.317222
                 energy =   -0.531068
                kinetic =    3.641750
    potential(screened) =   -4.172818
       potential(ionic) =   -9.515546
PAO Filter: Cutoff used:  142.10 Ry
PAO Filter: diagnostic kin energy tol:    0.003000 Ry
PAO Filter: Nominal cutoff (before filtering):   83.42 Ry
Filter:    Number of eigenfunctions  of the
           filtering kernel (total, used)= 51 18

   izeta = 2
                 rmatch =    2.624859
              splitnorm =    0.280000
                 energy =   -0.159696
                kinetic =    6.395910
    potential(screened) =   -6.555607
       potential(ionic) =  -12.720241
PAO Filter: Cutoff used:  142.10 Ry
PAO Filter: diagnostic kin energy tol:    0.003000 Ry
PAO Filter: Nominal cutoff (before filtering):   94.45 Ry
Filter:    Number of eigenfunctions  of the
           filtering kernel (total, used)= 30  8

POLgen: Perturbative polarization orbital with L=  2

POLgen: Polarization orbital for state 2p
Split based on tail norm

   izeta = 1
                     rc =    5.317222
                 energy =    1.517402
                kinetic =    2.627978
    potential(screened) =   -1.110576
       potential(ionic) =   -5.200503
PAO Filter: diagnostic kin energy tol:    0.003000 Ry
PAO Filter: Nominal cutoff (before filtering):   71.63 Ry
Filter:    Number of eigenfunctions  of the
           filtering kernel (total, used)= 51 17
atom: Total number of Sankey-type orbitals: 13

atm_pop: Valence configuration (for local Pseudopot. screening):
 2s( 2.00)                                                            
 2p( 3.00)                                                            
 3d( 0.00)                                                            
Vna: chval, zval:    5.00000   5.00000

Vna:  Cut-off radius for the neutral-atom potential:   5.317222
VNA Filter: diagnostic kinetic energy tol:    0.003000 Ry
VNA Filter: Nominal cutoff (before filtering):   72.95 Ry
VNA Filter: Cutoff used:   290.00 Ry
Filter:    Number of eigenfunctions  of the
           filtering kernel (total, used)= 69 27

atom: _________________________________________________________________________

<basis_specs>
===============================================================================
C                    Z=   6    Mass=  12.011        Charge= 0.17977+309
Lmxo=2 Lmxkb= 2    BasisType=split      Semic=F
L=0  Nsemic=0  Cnfigmx=2
          i=1  nzeta=2  polorb=0  (2s)
            splnorm:   0.28000    
               vcte:    40.000    
               rinn:  -0.90000    
               qcoe:    0.0000    
               qyuk:    0.0000    
               qwid:   0.10000E-01
                rcs:    0.0000      0.0000    
            lambdas:    1.0000      1.0000    
L=1  Nsemic=0  Cnfigmx=2
          i=1  nzeta=2  polorb=1  (2p)  (to be polarized perturbatively)
            splnorm:   0.28000    
               vcte:    40.000    
               rinn:  -0.90000    
               qcoe:    0.0000    
               qyuk:    0.0000    
               qwid:   0.10000E-01
                rcs:    0.0000      0.0000    
            lambdas:    1.0000      1.0000    
L=2  Nsemic=0  Cnfigmx=3
          i=1  nzeta=0  polorb=0  (3d)  (perturbative polarization orbital) (from 2p)
-------------------------------------------------------------------------------
L=0  Nkbl=1  erefs: 0.17977+309
L=1  Nkbl=1  erefs: 0.17977+309
L=2  Nkbl=1  erefs: 0.17977+309
===============================================================================
</basis_specs>

Filter: Requested cutoff:  290.000000 Ry
Using PAO.SplitTailNorm
atom: Called for C                     (Z =   6)
Maximum radius (at nrval) set to   50.00000 8518

read_vps: Pseudopotential generation method:
read_vps: ATM4.2.7  Troullier-Martins                       
Valence charge in pseudo generation:    4.00000

xc_check: Exchange-correlation functional:
xc_check: VDW Dion-Rydberg-Schroeder-Langreth-Lundqvist
V l=0 = -2*Zval/r beyond r=  1.9934
V l=1 = -2*Zval/r beyond r=  1.9934
V l=2 = -2*Zval/r beyond r=  2.0034
All V_l potentials equal beyond r=  1.8100
This should be close to max(r_c) in ps generation
All pots = -2*Zval/r beyond r=  2.0034
Using small-core scheme (local charge) for Vlocal

VLOCAL_FROM_CHLOCAL: 99.0% of the norm of Vloc inside     13.250 Ry
VLOCAL_FROM_CHLOCAL: 99.9% of the norm of Vloc inside     30.197 Ry
atom: Maximum radius for chlocal:    2.15589
atom: Maximum radius for r*vlocal+2*Zval:    1.98138

KBgen: Kleinman-Bylander projectors: 
GHOST: No ghost state for L =  0
   l= 0   rc=  2.121508   el= -1.023920   Ekb= 10.038813   kbcos=  0.152890
GHOST: No ghost state for L =  1
j- l= 1   rc=  2.096083   el= -0.402300   Ekb=-10.262579   kbcos= -0.289480
GHOST: No ghost state for L =  1
j+ l= 1   rc=  2.096083   el= -0.401748   Ekb=-10.222488   kbcos= -0.289553
GHOST: No ghost state for L =  2
j- l= 2   rc=  3.176203   el=  0.013239   Ekb= -0.822453   kbcos= -0.016490
GHOST: No ghost state for L =  2
j+ l= 2   rc=  3.176203   el=  0.013239   Ekb= -0.814183   kbcos= -0.016551

KBgen: Total number of Kleinman-Bylander projectors:  17
atom: -------------------------------------------------------------------------

atom: SANKEY-TYPE ORBITALS:
atom: Selected multiple-zeta basis: split     

SPLIT: Orbitals with angular momentum L= 0

SPLIT: Basis orbitals for state 2s

SPLIT: PAO cut-off radius determined from an
SPLIT: energy shift=  0.005000 Ry
Split based on tail norm

   izeta = 1
                 lambda =    1.000000
                     rc =    4.858714
                 energy =   -1.018167
                kinetic =    0.913396
    potential(screened) =   -1.931562
       potential(ionic) =   -5.489494
PAO Filter: Cutoff used:  142.10 Ry
PAO Filter: diagnostic kin energy tol:    0.003000 Ry
PAO Filter: Nominal cutoff (before filtering):   37.67 Ry
Filter:    Number of eigenfunctions  of the
           filtering kernel (total, used)= 48 17

   izeta = 2
                 rmatch =    2.559804
              splitnorm =    0.280000
                 energy =   -0.353711
                kinetic =    2.349616
    potential(screened) =   -2.703327
       potential(ionic) =   -6.655149
PAO Filter: Cutoff used:  142.10 Ry
PAO Filter: diagnostic kin energy tol:    0.003000 Ry
PAO Filter: Nominal cutoff (before filtering):   92.93 Ry
Filter:    Number of eigenfunctions  of the
           filtering kernel (total, used)= 30  8

SPLIT: Orbitals with angular momentum L= 1

SPLIT: Basis orbitals for state 2p

SPLIT: PAO cut-off radius determined from an
SPLIT: energy shift=  0.005000 Ry
Split based on tail norm

   izeta = 1
                 lambda =    1.000000
                     rc =    6.081107
                 energy =   -0.396227
                kinetic =    2.544259
    potential(screened) =   -2.940486
       potential(ionic) =   -6.367627
PAO Filter: Cutoff used:  142.10 Ry
PAO Filter: diagnostic kin energy tol:    0.003000 Ry
PAO Filter: Nominal cutoff (before filtering):  112.97 Ry
Filter:    Number of eigenfunctions  of the
           filtering kernel (total, used)= 57 21

   izeta = 2
                 rmatch =    3.125629
              splitnorm =    0.280000
                 energy =   -0.123054
                kinetic =    4.553527
    potential(screened) =   -4.676580
       potential(ionic) =   -8.623266
PAO Filter: Cutoff used:  142.10 Ry
PAO Filter: diagnostic kin energy tol:    0.003000 Ry
PAO Filter: Nominal cutoff (before filtering):  128.46 Ry
Filter:    Number of eigenfunctions  of the
           filtering kernel (total, used)= 34 10

POLgen: Perturbative polarization orbital with L=  2

POLgen: Polarization orbital for state 2p
Split based on tail norm

   izeta = 1
                     rc =    6.081107
                 energy =    1.044183
                kinetic =    2.125190
    potential(screened) =   -1.081007
       potential(ionic) =   -3.836752
PAO Filter: diagnostic kin energy tol:    0.003000 Ry
PAO Filter: Nominal cutoff (before filtering):   45.79 Ry
Filter:    Number of eigenfunctions  of the
           filtering kernel (total, used)= 57 20
atom: Total number of Sankey-type orbitals: 13

atm_pop: Valence configuration (for local Pseudopot. screening):
 2s( 2.00)                                                            
 2p( 2.00)                                                            
 3d( 0.00)                                                            
Vna: chval, zval:    4.00000   4.00000

Vna:  Cut-off radius for the neutral-atom potential:   6.081107
VNA Filter: diagnostic kinetic energy tol:    0.003000 Ry
VNA Filter: Nominal cutoff (before filtering):   16.67 Ry
VNA Filter: Cutoff used:   290.00 Ry
Filter:    Number of eigenfunctions  of the
           filtering kernel (total, used)= 77 31

atom: _________________________________________________________________________

<basis_specs>
===============================================================================
O                    Z=   8    Mass=  15.999        Charge= 0.17977+309
Lmxo=2 Lmxkb= 2    BasisType=split      Semic=F
L=0  Nsemic=0  Cnfigmx=2
          i=1  nzeta=2  polorb=0  (2s)
            splnorm:   0.28000    
               vcte:    40.000    
               rinn:  -0.90000    
               qcoe:    0.0000    
               qyuk:    0.0000    
               qwid:   0.10000E-01
                rcs:    0.0000      0.0000    
            lambdas:    1.0000      1.0000    
L=1  Nsemic=0  Cnfigmx=2
          i=1  nzeta=2  polorb=1  (2p)  (to be polarized perturbatively)
            splnorm:   0.28000    
               vcte:    40.000    
               rinn:  -0.90000    
               qcoe:    0.0000    
               qyuk:    0.0000    
               qwid:   0.10000E-01
                rcs:    0.0000      0.0000    
            lambdas:    1.0000      1.0000    
L=2  Nsemic=0  Cnfigmx=3
          i=1  nzeta=0  polorb=0  (3d)  (perturbative polarization orbital) (from 2p)
-------------------------------------------------------------------------------
L=0  Nkbl=1  erefs: 0.17977+309
L=1  Nkbl=1  erefs: 0.17977+309
L=2  Nkbl=1  erefs: 0.17977+309
===============================================================================
</basis_specs>

Filter: Requested cutoff:  290.000000 Ry
Using PAO.SplitTailNorm
atom: Called for O                     (Z =   8)
Maximum radius (at nrval) set to   50.00000 8518

read_vps: Pseudopotential generation method:
read_vps: ATM4.2.7  Troullier-Martins                       
Valence charge in pseudo generation:    6.00000

xc_check: Exchange-correlation functional:
xc_check: VDW Dion-Rydberg-Schroeder-Langreth-Lundqvist
V l=0 = -2*Zval/r beyond r=  1.3024
V l=1 = -2*Zval/r beyond r=  1.3024
V l=2 = -2*Zval/r beyond r=  1.7668
All V_l potentials equal beyond r=  1.6269
This should be close to max(r_c) in ps generation
All pots = -2*Zval/r beyond r=  1.7668
Using small-core scheme (local charge) for Vlocal

VLOCAL_FROM_CHLOCAL: 99.0% of the norm of Vloc inside     16.399 Ry
VLOCAL_FROM_CHLOCAL: 99.9% of the norm of Vloc inside     37.374 Ry
atom: Maximum radius for chlocal:    1.95370
atom: Maximum radius for r*vlocal+2*Zval:    1.79729

KBgen: Kleinman-Bylander projectors: 
GHOST: No ghost state for L =  0
   l= 0   rc=  1.770385   el= -1.777146   Ekb=-20.483406   kbcos= -0.111991
GHOST: No ghost state for L =  1
j- l= 1   rc=  1.745634   el= -0.683129   Ekb=-12.195034   kbcos= -0.452315
GHOST: No ghost state for L =  1
j+ l= 1   rc=  1.745634   el= -0.680470   Ekb=-12.162909   kbcos= -0.451770
GHOST: No ghost state for L =  2
j- l= 2   rc=  2.784994   el=  0.013305   Ekb= -1.481537   kbcos= -0.010110
GHOST: No ghost state for L =  2
j+ l= 2   rc=  2.784994   el=  0.013305   Ekb= -1.467492   kbcos= -0.010143

KBgen: Total number of Kleinman-Bylander projectors:  17
atom: -------------------------------------------------------------------------

atom: SANKEY-TYPE ORBITALS:
atom: Selected multiple-zeta basis: split     

SPLIT: Orbitals with angular momentum L= 0

SPLIT: Basis orbitals for state 2s

SPLIT: PAO cut-off radius determined from an
SPLIT: energy shift=  0.005000 Ry
Split based on tail norm

   izeta = 1
                 lambda =    1.000000
                     rc =    3.812214
                 energy =   -1.771504
                kinetic =    1.675963
    potential(screened) =   -3.447467
       potential(ionic) =  -11.343845
PAO Filter: Cutoff used:  142.10 Ry
PAO Filter: diagnostic kin energy tol:    0.003000 Ry
PAO Filter: Nominal cutoff (before filtering):  117.95 Ry
Filter:    Number of eigenfunctions  of the
           filtering kernel (total, used)= 40 13

   izeta = 2
                 rmatch =    1.891855
              splitnorm =    0.280000
                 energy =   -0.658411
                kinetic =    4.147017
    potential(screened) =   -4.805428
       potential(ionic) =  -13.682672
PAO Filter: Cutoff used:  142.10 Ry
PAO Filter: diagnostic kin energy tol:    0.003000 Ry
PAO Filter: Nominal cutoff (before filtering):  173.72 Ry
Filter:    Number of eigenfunctions  of the
           filtering kernel (total, used)= 25  6

SPLIT: Orbitals with angular momentum L= 1

SPLIT: Basis orbitals for state 2p

SPLIT: PAO cut-off radius determined from an
SPLIT: energy shift=  0.005000 Ry
Split based on tail norm

   izeta = 1
                 lambda =    1.000000
                     rc =    4.762307
                 energy =   -0.675736
                kinetic =    4.938110
    potential(screened) =   -5.613846
       potential(ionic) =  -13.284802
PAO Filter: Cutoff used:  142.10 Ry
PAO Filter: diagnostic kin energy tol:    0.003000 Ry
PAO Filter: Nominal cutoff (before filtering):   95.70 Ry
Filter:    Number of eigenfunctions  of the
           filtering kernel (total, used)= 47 16

   izeta = 2
                 rmatch =    2.271492
              splitnorm =    0.280000
                 energy =   -0.195975
                kinetic =    8.556899
    potential(screened) =   -8.752874
       potential(ionic) =  -17.616199
PAO Filter: Cutoff used:  142.10 Ry
PAO Filter: diagnostic kin energy tol:    0.003000 Ry
PAO Filter: Nominal cutoff (before filtering):  102.30 Ry
Filter:    Number of eigenfunctions  of the
           filtering kernel (total, used)= 28  7

POLgen: Perturbative polarization orbital with L=  2

POLgen: Polarization orbital for state 2p
Split based on tail norm

   izeta = 1
                     rc =    4.762307
                 energy =    2.062551
                kinetic =    3.839367
    potential(screened) =   -1.776815
       potential(ionic) =   -7.691384
PAO Filter: diagnostic kin energy tol:    0.003000 Ry
PAO Filter: Nominal cutoff (before filtering):   97.50 Ry
Filter:    Number of eigenfunctions  of the
           filtering kernel (total, used)= 47 15
atom: Total number of Sankey-type orbitals: 13

atm_pop: Valence configuration (for local Pseudopot. screening):
 2s( 2.00)                                                            
 2p( 4.00)                                                            
 3d( 0.00)                                                            
Vna: chval, zval:    6.00000   6.00000

Vna:  Cut-off radius for the neutral-atom potential:   4.762307
VNA Filter: diagnostic kinetic energy tol:    0.003000 Ry
VNA Filter: Nominal cutoff (before filtering):   68.40 Ry
VNA Filter: Cutoff used:   290.00 Ry
Filter:    Number of eigenfunctions  of the
           filtering kernel (total, used)= 63 24

atom: _________________________________________________________________________

prinput: Basis input 

PAO.BasisType split     

%block ChemicalSpeciesLabel
    1    1 H                       # Species index, atomic number, species label
    2    7 N                       # Species index, atomic number, species label
    3    6 C                       # Species index, atomic number, species label
    4    8 O                       # Species index, atomic number, species label
%endblock ChemicalSpeciesLabel

%block PAO.Basis                 # Define Basis set
# WARNING: This information might be incomplete!
H                     1                    # Species label, number of l-shells
 n=1   0   2 P   1                   # n, l, Nzeta, Polarization, NzetaPol
   5.772      1.632   
   1.000      1.000   
N                     2                    # Species label, number of l-shells
 n=2   0   2                         # n, l, Nzeta 
   4.265      2.173   
   1.000      1.000   
 n=2   1   2 P   1                   # n, l, Nzeta, Polarization, NzetaPol
   5.317      2.625   
   1.000      1.000   
C                     2                    # Species label, number of l-shells
 n=2   0   2                         # n, l, Nzeta 
   4.859      2.560   
   1.000      1.000   
 n=2   1   2 P   1                   # n, l, Nzeta, Polarization, NzetaPol
   6.081      3.126   
   1.000      1.000   
O                     2                    # Species label, number of l-shells
 n=2   0   2                         # n, l, Nzeta 
   3.812      1.892   
   1.000      1.000   
 n=2   1   2 P   1                   # n, l, Nzeta, Polarization, NzetaPol
   4.762      2.271   
   1.000      1.000   
%endblock PAO.Basis

prinput: ----------------------------------------------------------------------

Dumping basis to NetCDF file H.ion.nc
Dumping basis to NetCDF file N.ion.nc
Dumping basis to NetCDF file C.ion.nc
Dumping basis to NetCDF file O.ion.nc
coor:   Atomic-coordinates input format  =     Cartesian coordinates
coor:                                          (in Angstroms)

siesta: Atomic coordinates (Bohr) and species
siesta:     12.32191  -9.37606   3.70867  1        1
siesta:     10.87675  -8.21339   3.11909  2        2
siesta:      8.22112  -8.81423   3.13483  3        3
siesta:      7.62940 -10.66524   3.77122  1        4
siesta:      6.67686  -6.86833   2.29503  2        5
siesta:      8.56046  -4.90195   1.71965  3        6
siesta:      8.12406  -2.42452   0.81112  3        7
siesta:      5.67382  -1.47682   0.30750  2        8
siesta:      5.48041   0.52735  -0.27178  1        9
siesta:      4.23238  -2.82306   0.70998  1       10
siesta:     10.26112  -0.81587   0.37510  2       11
siesta:     12.68579  -1.84508   0.92097  3       12
siesta:     14.28282  -0.56249   0.54490  1       13
siesta:     13.32844  -4.25185   1.85678  2       14
siesta:     11.06503  -5.64831   2.19286  3       15
siesta:     12.65940   9.11738  -3.60394  1       16
siesta:     11.05103   8.08402  -3.12997  2       17
siesta:      8.51672   9.07685  -3.21293  3       18
siesta:      8.20506  11.03555  -3.86738  1       19
siesta:      6.45012   7.68426  -2.52586  3       20
siesta:      3.81653   8.71734  -2.61581  3       21
siesta:      3.30857   9.25942  -4.54884  1       22
siesta:      2.47343   7.27600  -1.96768  1       23
siesta:      3.61151  10.38829  -1.40575  1       24
siesta:      6.75729   5.08721  -1.70785  3       25
siesta:      4.96662   3.66609  -1.08817  4       26
siesta:      9.32942   4.12476  -1.62652  2       27
siesta:      9.58042   2.23366  -0.91092  1       28
siesta:     11.61626   5.48957  -2.25522  3       29
siesta:     13.76808   4.64142  -2.10688  4       30

siesta: System type = molecule  

initatomlists: Number of atoms, orbitals, and projectors:     30   302   334

siesta: ******************** Simulation parameters ****************************
siesta:
siesta: The following are some of the parameters of the simulation.
siesta: A complete list of the parameters used, including default values,
siesta: can be found in file out.fdf
siesta:
redata: Spin configuration                          = spin-orbit+offsite
redata: Number of spin components                   = 8
redata: Time-Reversal Symmetry                      = F
redata: Spin spiral                                 = F
redata: Long output                                 =   F
redata: Number of Atomic Species                    =        4
redata: Charge density info will appear in .RHO file
redata: Write Mulliken Pop.                         = NO
redata: Matel table size (NRTAB)                    =     1024
redata: Mesh Cutoff                                 =   300.0000 Ry
redata: Net charge of the system                    =     0.0000 |e|
redata: Min. number of SCF Iter                     =        1
redata: Max. number of SCF Iter                     =      200
redata: SCF convergence failure will abort job
redata: SCF mix quantity                            = Hamiltonian
redata: Mix DM or H after convergence               =   F
redata: Recompute H after scf cycle                 =   F
redata: Mix DM in first SCF step                    =   T
redata: Write Pulay info on disk                    =   F
redata: New DM Occupancy tolerance                  = 0.000000000001
redata: No kicks to SCF
redata: DM Mixing Weight for Kicks                  =     0.5000
redata: Require Harris convergence for SCF          =   F
redata: Harris energy tolerance for SCF             =     0.000100 eV
redata: Require DM convergence for SCF              =   T
redata: DM tolerance for SCF                        =     0.000008
redata: Require EDM convergence for SCF             =   F
redata: EDM tolerance for SCF                       =     0.001000 eV
redata: Require H convergence for SCF               =   T
redata: Hamiltonian tolerance for SCF               =     0.000001 eV
redata: Require (free) Energy convergence for SCF   =   F
redata: (free) Energy tolerance for SCF             =     0.000100 eV
redata: Using DFT-D3 dispersion                     =   F
redata: Using Saved Data (generic)                  =   F
redata: Use continuation files for DM               =   T
redata: Neglect nonoverlap interactions             =   F
redata: Method of Calculation                       = Diagonalization
redata: Electronic Temperature                      =     0.0000 K
redata: Fix the spin of the system                  =   F
redata: Split SR and SO contributions               =   F
redata: Max. number of TDED Iter                    =        1
redata: Number of TDED substeps                     =        3
redata: Dynamics option                             = Broyden coord. optimization
redata: Variable cell                               =   F
redata: Maximum number of optimization moves        =     1000
redata: Force tolerance                             =     0.0080 eV/Ang
mix.SCF: Pulay mixing                            = Pulay
mix.SCF:    Variant                              = stable
mix.SCF:    History steps                        = 6
mix.SCF:    Linear mixing weight                 =     0.250000
mix.SCF:    Mixing weight                        =     0.250000
mix.SCF:    SVD condition                        = 0.1000E-07
mix.SCF:    Restart steps                        = 24
mix.SCF:    Restart save steps                   = 3
mix.SCF: Spin-component mixing                   all
redata: Save all siesta data in one NC              =   F
redata: ***********************************************************************

%block SCF.Mixers
  Pulay
%endblock SCF.Mixers

%block SCF.Mixer.Pulay
  # Mixing method
  method pulay
  variant stable

  # Mixing options
  weight 0.2500
  weight.linear 0.2500
  history 6
  restart 24
  restart.save 3
%endblock SCF.Mixer.Pulay

DM_history_depth set to one: no extrapolation allowed by default for geometry relaxation
Size of DM history Fstack: 1
Total number of electrons:    98.000000
Total ionic charge:    98.000000

* ProcessorY, Blocksize:    8   9


* Orbital distribution balance (max,min):    18     9


siesta: k-grid: Number of k-points = 1
siesta: k-point is Gamma-only

diag: Algorithm                                     = ELPA-2stage
diag: ELPA GPU string key                           = nvidia-gpu
diag: Parallel over k                               =   F
diag: Use parallel 2D distribution                  =   T
diag: Parallel block-size                           = 9
diag: Parallel distribution                         =     4 x     8
diag: Used triangular part                          = Lower
diag: Absolute tolerance                            =  0.100E-15
diag: Orthogonalization factor                      =  0.100E-05
diag: Memory factor                                 =  1.0000

siesta: Constraint (1): pos
  [ 6 ]


ts: **************************************************************
ts: Save H and S matrices                           =    F
ts: Save DM and EDM matrices                        =    F
ts: Only save the overlap matrix S                  =    F
ts: **************************************************************

************************ Begin: TS CHECKS AND WARNINGS ************************
************************ End: TS CHECKS AND WARNINGS **************************


                     ====================================
                        Begin Broyden opt. move =      0
                     ====================================

outcell: Unit cell vectors (Ang):
       13.410444    0.000000    0.000000
        0.000000   19.141444    0.000000
        0.000000    0.000000   11.548144

outcell: Cell vector modules (Ang)   :   13.410444   19.141444   11.548144
outcell: Cell angles (23,13,12) (deg):     90.0000     90.0000     90.0000
outcell: Cell volume (Ang**3)        :   2964.3539
<dSpData1D:S at geom step 0
  <sparsity:sparsity for geom step 0
    nrows_g=302 nrows=18 sparsity=.0449 nnzs=4097, refcount: 8>
  <dData1D:(new from dSpData1D) n=4097, refcount: 1>
refcount: 1>
new_DM -- step:     1
Initializing Density Matrix...

Attempting to read DM from file... Failed...
DM filled with atomic data:
<dSpData2D:DM initialized from atoms
  <sparsity:sparsity for geom step 0
    nrows_g=302 nrows=18 sparsity=.0449 nnzs=4097, refcount: 9>
  <dData2D:DM n=4097 m=8, refcount: 1>
refcount: 1>
     spin moment: {S} , |S| = {    0.00000    0.00000   56.00000 }    56.00000

InitMesh: MESH = 144 x 200 x 128 = 3686400
InitMesh: Mesh cutoff (required, used) =   300.000   301.726 Ry
New grid distribution [1]: sub = 2
New grid distribution [2]: sub = 2
New grid distribution [3]: sub = 2
Setting up quadratic distribution...

stepf: Fermi-Dirac step function

siesta: Program's energy decomposition (eV):
siesta: Ebs     =     -1119.368218
siesta: Eions   =     11405.106776
siesta: Ena     =      1805.633212
siesta: Ekin    =      3545.675118
siesta: Enl(+so)=     -2210.995158
siesta: Eso(nil)=         0.000000
siesta: Edftu   =         0.000000
siesta: DEna    =       -59.899926
siesta: DUscf   =        30.034353
siesta: DUext   =         0.000000
siesta: Ex      =     -1176.915771
siesta: Ec      =      -128.735397
siesta: Exc     =     -1305.651168
siesta: EbV     =         0.000000
siesta: eta*DQ  =         0.000000
siesta: Emadel  =         0.000000
siesta: Emeta   =         0.000000
siesta: Emolmec =         0.000000
siesta: Ekinion =         0.000000
siesta: Eharris =     -9586.037479
siesta: Etot    =     -9600.310345
siesta: FreeEng =     -9600.310345

        iscf     Eharris(eV)        E_KS(eV)     FreeEng(eV)     dDmax    Ef(eV) dHmax(eV)
   scf:    1    -9586.037479    -9600.310345    -9600.310345  0.915257 -5.483433 15.088622
     spin moment: {S} , |S| = {   -0.03546   -0.03545    1.99951 }     2.00014
timer: Routine,Calls,Time,% = IterSCF        1       3.898  10.56
   scf:    2    -9583.050708    -9604.261697    -9604.261697  0.269249 -4.835368 12.436751
     spin moment: {S} , |S| = {   -0.04649   -0.04648    1.99900 }     2.00008
   scf:    3    -9621.748681    -9616.214292    -9616.214292  0.225180 -4.872876  5.227801
     spin moment: {S} , |S| = {   -0.00138   -0.00137    0.00005 }     0.00195
   scf:    4    -9618.556605    -9617.697688    -9617.697688  0.053765 -3.905421  2.864697
     spin moment: {S} , |S| = {   -0.00065   -0.00064    0.00002 }     0.00091
   scf:    5    -9618.225280    -9617.969811    -9617.969811  0.024693 -3.642614  1.705347
     spin moment: {S} , |S| = {   -0.00034   -0.00034    0.00001 }     0.00048
   scf:    6    -9618.260143    -9618.115712    -9618.115712  0.019462 -3.454915  0.626695
     spin moment: {S} , |S| = {   -0.00013   -0.00013    0.00000 }     0.00019
   scf:    7    -9618.188550    -9618.151065    -9618.151065  0.012399 -3.416085  0.167806
     spin moment: {S} , |S| = {   -0.00005   -0.00005    0.00000 }     0.00008
   scf:    8    -9618.163608    -9618.157534    -9618.157534  0.002549 -3.422245  0.074893
     spin moment: {S} , |S| = {   -0.00003   -0.00003    0.00000 }     0.00005
   scf:    9    -9618.164850    -9618.161019    -9618.161019  0.002589 -3.433207  0.049738
     spin moment: {S} , |S| = {   -0.00002   -0.00002   -0.00000 }     0.00002
   scf:   10    -9618.164002    -9618.162407    -9618.162407  0.001665 -3.436296  0.032088
     spin moment: {S} , |S| = {   -0.00001   -0.00001   -0.00000 }     0.00001
   scf:   11    -9618.163880    -9618.163064    -9618.163064  0.001465 -3.436576  0.018394
     spin moment: {S} , |S| = {   -0.00000   -0.00000   -0.00000 }     0.00000
   scf:   12    -9618.163524    -9618.163264    -9618.163264  0.001057 -3.436281  0.009912
     spin moment: {S} , |S| = {   -0.00000   -0.00000   -0.00000 }     0.00000
   scf:   13    -9618.163370    -9618.163309    -9618.163309  0.000588 -3.436208  0.005595
     spin moment: {S} , |S| = {   -0.00000   -0.00000   -0.00000 }     0.00000
   scf:   14    -9618.163336    -9618.163321    -9618.163321  0.000314 -3.435982  0.003363
     spin moment: {S} , |S| = {   -0.00000   -0.00000   -0.00000 }     0.00000
   scf:   15    -9618.163332    -9618.163326    -9618.163326  0.000274 -3.435823  0.001280
     spin moment: {S} , |S| = {   -0.00000   -0.00000   -0.00000 }     0.00000
   scf:   16    -9618.163327    -9618.163326    -9618.163326  0.000076 -3.435836  0.000710
     spin moment: {S} , |S| = {   -0.00000   -0.00000   -0.00000 }     0.00000
   scf:   17    -9618.163326    -9618.163326    -9618.163326  0.000041 -3.435896  0.000405
     spin moment: {S} , |S| = {   -0.00000   -0.00000   -0.00000 }     0.00000
   scf:   18    -9618.163326    -9618.163326    -9618.163326  0.000025 -3.435914  0.000167
     spin moment: {S} , |S| = {   -0.00000   -0.00000   -0.00000 }     0.00000
   scf:   19    -9618.163326    -9618.163326    -9618.163326  0.000008 -3.435909  0.000094
     spin moment: {S} , |S| = {   -0.00000   -0.00000   -0.00000 }     0.00000
   scf:   20    -9618.163326    -9618.163326    -9618.163326  0.000004 -3.435907  0.000061
     spin moment: {S} , |S| = {   -0.00000   -0.00000   -0.00000 }     0.00000
   scf:   21    -9618.163326    -9618.163326    -9618.163326  0.000004 -3.435907  0.000023
     spin moment: {S} , |S| = {   -0.00000   -0.00000   -0.00000 }     0.00000
   scf:   22    -9618.163326    -9618.163326    -9618.163326  0.000001 -3.435906  0.000015
     spin moment: {S} , |S| = {   -0.00000   -0.00000   -0.00000 }     0.00000
   scf:   23    -9618.163326    -9618.163326    -9618.163326  0.000001 -3.435906  0.000008
     spin moment: {S} , |S| = {   -0.00000   -0.00000   -0.00000 }     0.00000
   scf:   24    -9618.163326    -9618.163326    -9618.163326  0.000001 -3.435906  0.000004
     spin moment: {S} , |S| = {   -0.00000   -0.00000   -0.00000 }     0.00000
mix: Pulay -- resetting history
   scf:   25    -9618.163326    -9618.163326    -9618.163326  0.000000 -3.435906  0.000002
     spin moment: {S} , |S| = {   -0.00000   -0.00000   -0.00000 }     0.00000
   scf:   26    -9618.163326    -9618.163326    -9618.163326  0.000000 -3.435906  0.000001
     spin moment: {S} , |S| = {   -0.00000   -0.00000   -0.00000 }     0.00000
   scf:   27    -9618.163326    -9618.163326    -9618.163326  0.000000 -3.435906  0.000001
     spin moment: {S} , |S| = {   -0.00000   -0.00000   -0.00000 }     0.00000

SCF Convergence by DM+H criterion
max |DM_out - DM_in|         :     0.0000000663
max |H_out - H_in|      (eV) :     0.0000005302
SCF cycle converged after 27 iterations

Using DM_out to compute the final energy and forces

siesta: E_KS(eV) =            -9618.1633

siesta: E_KS - E_eggbox =     -9618.1633
     spin moment: {S} , |S| = {   -0.00000   -0.00000   -0.00000 }     0.00000

siesta: Atomic forces (eV/Ang):
     1   -0.145725    0.057547   -0.044996
     2   -0.421108    0.326775   -0.146321
     3   -0.106395    0.686360   -0.256372
     4    0.026713    0.018159   -0.002041
     5    1.107485   -0.386981    0.235340
     6   -0.551596   -0.394294    0.112501
     7   -0.045537    0.958852   -0.348634
     8    0.522654    0.051609    0.012229
     9    0.043006   -0.457239    0.132115
    10    0.045245    0.105920   -0.024681
    11    0.062057   -0.723907    0.274923
    12   -0.378336   -0.274088    0.064093
    13   -0.043555   -0.121415    0.045426
    14   -0.883838    0.332012   -0.203359
    15    0.796104   -0.282376    0.156533
    16   -0.257083   -0.155368    0.076655
    17   -0.098726   -0.189526    0.072996
    18    0.496789    0.253170   -0.134994
    19   -0.007297   -0.177493    0.063335
    20    0.077111    0.007788   -0.009932
    21   -0.354670    0.151805   -0.022660
    22    0.042829    0.032795   -0.024050
    23   -0.013351    0.080031   -0.030099
    24    0.036013    0.050672   -0.011186
    25    1.130492   -0.181989   -0.031208
    26   -0.576909   -0.385851    0.175157
    27    0.065091   -0.016357    0.027688
    28    0.010604    0.408242   -0.158731
    29   -1.262320    0.479623   -0.075502
    30    0.744351   -0.302392    0.019448
----------------------------------------
   Tot    0.060098   -0.047914   -0.056328
----------------------------------------
   Max    1.262320
   Res    0.365770    sqrt( Sum f_i^2 / 3N )
----------------------------------------
   Max    1.262320    constrained

Stress tensor Voigt[x,y,z,yz,xz,xy] (kbar):        2.74        2.07        0.36       -0.70        0.14        0.15
(Free)E + p*V (eV/cell)    -9621.3500
Target enthalpy (eV/cell)    -9618.1633

Broyden_optim: max_history for broyden:   5
Broyden_optim: cycle on maxit: T
Broyden_optim: initial inverse jacobian:   1.0000

Broyden_optim: No of elements:     90

                     ====================================
                        Begin Broyden opt. move =      1
                     ====================================

outcell: Unit cell vectors (Ang):
       13.410444    0.000000    0.000000
        0.000000   19.141444    0.000000
        0.000000    0.000000   11.548144

outcell: Cell vector modules (Ang)   :   13.410444   19.141444   11.548144
outcell: Cell angles (23,13,12) (deg):     90.0000     90.0000     90.0000
outcell: Cell volume (Ang**3)        :   2964.3539
<dSpData1D:S at geom step 1
  <sparsity:sparsity for geom step 1
    nrows_g=302 nrows=18 sparsity=.0446 nnzs=4067, refcount: 8>
  <dData1D:(new from dSpData1D) n=4067, refcount: 1>
refcount: 1>
new_DM -- step:     2
Re-using DM from previous geometries...
Number of DMs in history: 1
 DM extrapolation coefficients: 
1   1.00000
New DM after history re-use:
<dSpData2D:SpM extrapolated using coords
  <sparsity:sparsity for geom step 1
    nrows_g=302 nrows=18 sparsity=.0446 nnzs=4067, refcount: 10>
  <dData2D:(temp array for extrapolation) n=4067 m=8, refcount: 1>
refcount: 1>
     spin moment: {S} , |S| = {   -0.00000   -0.00000   -0.00000 }     0.00000

InitMesh: MESH = 144 x 200 x 128 = 3686400
InitMesh: Mesh cutoff (required, used) =   300.000   301.726 Ry
New grid distribution [1]: sub = 2
New grid distribution [2]: sub = 2
New grid distribution [3]: sub = 2
Setting up quadratic distribution...

        iscf     Eharris(eV)        E_KS(eV)     FreeEng(eV)     dDmax    Ef(eV) dHmax(eV)
   scf:    1    -9616.901843    -9617.891087    -9617.891087  0.056808 -3.161066  2.877469
     spin moment: {S} , |S| = {   -0.00000   -0.00000   -0.00000 }     0.00000
   scf:    2    -9608.421341    -9615.118142    -9615.118142  0.138760 -4.979111  8.223620
     spin moment: {S} , |S| = {   -0.00000   -0.00000   -0.00000 }     0.00000
   scf:    3    -9618.755268    -9618.173575    -9618.173575  0.111920 -2.867436  0.341217
     spin moment: {S} , |S| = {   -0.00000   -0.00000   -0.00000 }     0.00000
   scf:    4    -9618.178173    -9618.177348    -9618.177348  0.004924 -2.795239  0.068871
     spin moment: {S} , |S| = {   -0.00000   -0.00000   -0.00000 }     0.00000
   scf:    5    -9618.178043    -9618.177807    -9618.177807  0.000700 -2.784081  0.022466
     spin moment: {S} , |S| = {   -0.00000   -0.00000   -0.00000 }     0.00000
   scf:    6    -9618.177895    -9618.177855    -9618.177855  0.000622 -2.779267  0.009635
     spin moment: {S} , |S| = {   -0.00000   -0.00000   -0.00000 }     0.00000
   scf:    7    -9618.177869    -9618.177863    -9618.177863  0.000354 -2.776658  0.003787
     spin moment: {S} , |S| = {   -0.00000   -0.00000   -0.00000 }     0.00000
   scf:    8    -9618.177865    -9618.177864    -9618.177864  0.000124 -2.775957  0.001127
     spin moment: {S} , |S| = {   -0.00000   -0.00000   -0.00000 }     0.00000
   scf:    9    -9618.177865    -9618.177864    -9618.177864  0.000018 -2.776027  0.000405
     spin moment: {S} , |S| = {   -0.00000   -0.00000   -0.00000 }     0.00000
   scf:   10    -9618.177865    -9618.177865    -9618.177865  0.000009 -2.776130  0.000225
     spin moment: {S} , |S| = {   -0.00000   -0.00000   -0.00000 }     0.00000
   scf:   11    -9618.177865    -9618.177865    -9618.177865  0.000003 -2.776144  0.000075
     spin moment: {S} , |S| = {   -0.00000   -0.00000   -0.00000 }     0.00000
   scf:   12    -9618.177865    -9618.177865    -9618.177865  0.000002 -2.776143  0.000020
     spin moment: {S} , |S| = {   -0.00000   -0.00000   -0.00000 }     0.00000
   scf:   13    -9618.177865    -9618.177865    -9618.177865  0.000001 -2.776145  0.000009
     spin moment: {S} , |S| = {   -0.00000   -0.00000   -0.00000 }     0.00000
   scf:   14    -9618.177865    -9618.177865    -9618.177865  0.000000 -2.776146  0.000005
     spin moment: {S} , |S| = {   -0.00000   -0.00000   -0.00000 }     0.00000
   scf:   15    -9618.177865    -9618.177865    -9618.177865  0.000000 -2.776146  0.000002
     spin moment: {S} , |S| = {   -0.00000   -0.00000   -0.00000 }     0.00000
   scf:   16    -9618.177865    -9618.177865    -9618.177865  0.000000 -2.776146  0.000001
     spin moment: {S} , |S| = {   -0.00000   -0.00000   -0.00000 }     0.00000

SCF Convergence by DM+H criterion
max |DM_out - DM_in|         :     0.0000001632
max |H_out - H_in|      (eV) :     0.0000007297
SCF cycle converged after 16 iterations

Using DM_out to compute the final energy and forces

siesta: E_KS(eV) =            -9618.1779
     spin moment: {S} , |S| = {   -0.00000   -0.00000   -0.00000 }     0.00000

siesta: Atomic forces (eV/Ang):
     1   -0.063859    0.186567   -0.089609
     2    0.480060   -0.100309    0.087382
     3    0.324589   -0.639531    0.266257
     4   -0.144905    0.232593   -0.096486
     5   -0.038638    0.652657   -0.246771
     6   -0.012583    0.086516   -0.015005
     7    0.311494   -0.696260    0.259987
     8   -0.224968    0.011811   -0.029849
     9    0.827120    1.088261   -0.334618
    10   -0.037583   -0.672464    0.206000
    11    0.003439    0.179580   -0.054726
    12    0.013699    0.107527   -0.051762
    13   -0.689335   -0.067097   -0.028092
    14    0.094874    0.031403   -0.014898
    15   -0.693031    0.115595   -0.101942
    16    0.273515   -0.341448    0.092390
    17   -0.119468   -0.006834    0.009482
    18   -0.256074   -0.231033    0.107167
    19    0.017786    0.403601   -0.144955
    20    0.399952    0.096702   -0.073941
    21    0.047192   -0.018787   -0.005195
    22   -0.161195    0.047314   -0.096565
    23   -0.081434   -0.097157    0.049339
    24   -0.150621    0.072420    0.065570
    25   -0.937904   -0.675638    0.307423
    26    0.802923    0.538633   -0.257811
    27   -0.024617    0.161041   -0.044279
    28   -0.016910   -0.563869    0.234192
    29    1.913789   -0.635373    0.085322
    30   -1.807688    0.710068   -0.144040
----------------------------------------
   Tot    0.049618   -0.023512   -0.060033
----------------------------------------
   Max    1.913789
   Res    0.436874    sqrt( Sum f_i^2 / 3N )
----------------------------------------
   Max    1.913789    constrained

Stress tensor Voigt[x,y,z,yz,xz,xy] (kbar):        2.74        0.71        0.14       -0.26       -0.05        0.21
(Free)E + p*V (eV/cell)    -9620.3932
Target enthalpy (eV/cell)    -9618.1779

                     ====================================
                        Begin Broyden opt. move =      2
                     ====================================

outcell: Unit cell vectors (Ang):
       13.410444    0.000000    0.000000
        0.000000   19.141444    0.000000
        0.000000    0.000000   11.548144

outcell: Cell vector modules (Ang)   :   13.410444   19.141444   11.548144
outcell: Cell angles (23,13,12) (deg):     90.0000     90.0000     90.0000
outcell: Cell volume (Ang**3)        :   2964.3539
<dSpData1D:S at geom step 2
  <sparsity:sparsity for geom step 2
    nrows_g=302 nrows=18 sparsity=.0449 nnzs=4097, refcount: 8>
  <dData1D:(new from dSpData1D) n=4097, refcount: 1>
refcount: 1>
new_DM -- step:     3
Re-using DM from previous geometries...
Number of DMs in history: 1
 DM extrapolation coefficients: 
1   1.00000
New DM after history re-use:
<dSpData2D:SpM extrapolated using coords
  <sparsity:sparsity for geom step 2
    nrows_g=302 nrows=18 sparsity=.0449 nnzs=4097, refcount: 10>
  <dData2D:(temp array for extrapolation) n=4097 m=8, refcount: 1>
refcount: 1>
     spin moment: {S} , |S| = {    0.00002    0.00002   -0.00000 }     0.00003

InitMesh: MESH = 144 x 200 x 128 = 3686400
InitMesh: Mesh cutoff (required, used) =   300.000   301.726 Ry
New grid distribution [1]: sub = 2
New grid distribution [2]: sub = 2
New grid distribution [3]: sub = 2
Setting up quadratic distribution...

        iscf     Eharris(eV)        E_KS(eV)     FreeEng(eV)     dDmax    Ef(eV) dHmax(eV)
   scf:    1    -9617.669762    -9618.117493    -9618.117493  0.044937 -2.852586  2.164407
     spin moment: {S} , |S| = {   -0.00000   -0.00000   -0.00000 }     0.00000
   scf:    2    -9615.010580    -9617.236100    -9617.236100  0.085345 -3.776289  5.655202
     spin moment: {S} , |S| = {   -0.00000   -0.00000   -0.00000 }     0.00000
   scf:    3    -9618.489035    -9618.236733    -9618.236733  0.063371 -3.053224  0.158638
     spin moment: {S} , |S| = {   -0.00000   -0.00000   -0.00000 }     0.00000
   scf:    4    -9618.238063    -9618.237715    -9618.237715  0.000781 -3.093523  0.062284
     spin moment: {S} , |S| = {   -0.00000   -0.00000   -0.00000 }     0.00000
   scf:    5    -9618.237918    -9618.237838    -9618.237838  0.001080 -3.104425  0.018169
     spin moment: {S} , |S| = {   -0.00000   -0.00000   -0.00000 }     0.00000
   scf:    6    -9618.237891    -9618.237869    -9618.237869  0.000674 -3.109405  0.004477
     spin moment: {S} , |S| = {   -0.00000   -0.00000   -0.00000 }     0.00000
   scf:    7    -9618.237873    -9618.237872    -9618.237872  0.000148 -3.110641  0.002325
     spin moment: {S} , |S| = {   -0.00000   -0.00000   -0.00000 }     0.00000
   scf:    8    -9618.237872    -9618.237872    -9618.237872  0.000107 -3.111221  0.000888
     spin moment: {S} , |S| = {   -0.00000   -0.00000   -0.00000 }     0.00000
   scf:    9    -9618.237872    -9618.237872    -9618.237872  0.000026 -3.111261  0.000399
     spin moment: {S} , |S| = {   -0.00000   -0.00000   -0.00000 }     0.00000
   scf:   10    -9618.237872    -9618.237872    -9618.237872  0.000010 -3.111138  0.000154
     spin moment: {S} , |S| = {   -0.00000   -0.00000   -0.00000 }     0.00000
   scf:   11    -9618.237872    -9618.237872    -9618.237872  0.000003 -3.111123  0.000072
     spin moment: {S} , |S| = {   -0.00000   -0.00000   -0.00000 }     0.00000
   scf:   12    -9618.237872    -9618.237872    -9618.237872  0.000002 -3.111115  0.000014
     spin moment: {S} , |S| = {   -0.00000   -0.00000   -0.00000 }     0.00000
   scf:   13    -9618.237872    -9618.237872    -9618.237872  0.000000 -3.111116  0.000008
     spin moment: {S} , |S| = {   -0.00000   -0.00000   -0.00000 }     0.00000
   scf:   14    -9618.237872    -9618.237872    -9618.237872  0.000000 -3.111115  0.000004
     spin moment: {S} , |S| = {   -0.00000   -0.00000   -0.00000 }     0.00000
   scf:   15    -9618.237872    -9618.237872    -9618.237872  0.000000 -3.111115  0.000001
     spin moment: {S} , |S| = {   -0.00000   -0.00000   -0.00000 }     0.00000
   scf:   16    -9618.237872    -9618.237872    -9618.237872  0.000000 -3.111115  0.000000
     spin moment: {S} , |S| = {   -0.00000   -0.00000   -0.00000 }     0.00000

SCF Convergence by DM+H criterion
max |DM_out - DM_in|         :     0.0000000449
max |H_out - H_in|      (eV) :     0.0000004822
SCF cycle converged after 16 iterations

Using DM_out to compute the final energy and forces

siesta: E_KS(eV) =            -9618.2379
     spin moment: {S} , |S| = {   -0.00000   -0.00000   -0.00000 }     0.00000

siesta: Atomic forces (eV/Ang):
     1    0.003047    0.139807   -0.064415
     2    0.144347   -0.013268    0.026335
     3    0.164703   -0.048783    0.035169
     4   -0.111532    0.099648   -0.044726
     5    0.165678    0.155460   -0.045977
     6   -0.089344   -0.057909    0.028505
     7    0.058151   -0.191146    0.065588
     8   -0.057379    0.085876   -0.027319
     9   -0.683160   -1.199632    0.368464
    10    0.583018    0.977867   -0.280657
    11   -0.038535   -0.007251    0.009503
    12   -0.158937   -0.045066   -0.004619
    13    0.039523   -0.267065    0.108529
    14   -0.087726    0.003288   -0.020107
    15   -0.180096    0.062813   -0.042902
    16   -0.181941   -0.138264    0.062274
    17    0.108091   -0.061171    0.008219
    18   -0.014752    0.074021   -0.022697
    19   -0.027479   -0.086533    0.037838
    20   -0.001932   -0.121156    0.039037
    21    0.066636    0.004575   -0.013531
    22    0.032514    0.044134    0.264372
    23    0.037325    0.211026   -0.094190
    24   -0.004766   -0.109967   -0.237215
    25    0.137681    0.147263   -0.055465
    26   -0.014337   -0.115813    0.036925
    27    0.101674   -0.223643    0.090701
    28    0.346154    0.530851   -0.226453
    29   -0.495584    0.221747   -0.042248
    30    0.227898   -0.104269   -0.010349
----------------------------------------
   Tot    0.068940   -0.032558   -0.051412
----------------------------------------
   Max    1.199632
   Res    0.236703    sqrt( Sum f_i^2 / 3N )
----------------------------------------
   Max    1.199632    constrained

Stress tensor Voigt[x,y,z,yz,xz,xy] (kbar):        0.89        2.08        0.53       -0.53       -0.21        0.69
(Free)E + p*V (eV/cell)    -9620.3960
Target enthalpy (eV/cell)    -9618.2379

                     ====================================
                        Begin Broyden opt. move =      3
                     ====================================

outcell: Unit cell vectors (Ang):
       13.410444    0.000000    0.000000
        0.000000   19.141444    0.000000
        0.000000    0.000000   11.548144

outcell: Cell vector modules (Ang)   :   13.410444   19.141444   11.548144
outcell: Cell angles (23,13,12) (deg):     90.0000     90.0000     90.0000
outcell: Cell volume (Ang**3)        :   2964.3539
<dSpData1D:S at geom step 3
  <sparsity:sparsity for geom step 3
    nrows_g=302 nrows=18 sparsity=.0447 nnzs=4076, refcount: 8>
  <dData1D:(new from dSpData1D) n=4076, refcount: 1>
refcount: 1>
new_DM -- step:     4
Re-using DM from previous geometries...
Number of DMs in history: 1
 DM extrapolation coefficients: 
1   1.00000
New DM after history re-use:
<dSpData2D:SpM extrapolated using coords
  <sparsity:sparsity for geom step 3
    nrows_g=302 nrows=18 sparsity=.0447 nnzs=4076, refcount: 10>
  <dData2D:(temp array for extrapolation) n=4076 m=8, refcount: 1>
refcount: 1>
     spin moment: {S} , |S| = {    0.00000    0.00000   -0.00000 }     0.00001

InitMesh: MESH = 144 x 200 x 128 = 3686400
InitMesh: Mesh cutoff (required, used) =   300.000   301.726 Ry
New grid distribution [1]: sub = 2
New grid distribution [2]: sub = 2
New grid distribution [3]: sub = 2
Setting up quadratic distribution...

        iscf     Eharris(eV)        E_KS(eV)     FreeEng(eV)     dDmax    Ef(eV) dHmax(eV)
   scf:    1    -9618.184299    -9618.243515    -9618.243515  0.003658 -3.132359  0.218571
     spin moment: {S} , |S| = {   -0.00000   -0.00000   -0.00000 }     0.00000
   scf:    2    -9618.205832    -9618.233032    -9618.233032  0.007111 -3.046776  0.529779
     spin moment: {S} , |S| = {   -0.00000   -0.00000   -0.00000 }     0.00000
   scf:    3    -9618.248288    -9618.245301    -9618.245301  0.005206 -3.102238  0.020385
     spin moment: {S} , |S| = {   -0.00000   -0.00000   -0.00000 }     0.00000
   scf:    4    -9618.245340    -9618.245326    -9618.245326  0.000231 -3.096019  0.006480
     spin moment: {S} , |S| = {   -0.00000   -0.00000   -0.00000 }     0.00000
   scf:    5    -9618.245329    -9618.245327    -9618.245327  0.000066 -3.094792  0.002534
     spin moment: {S} , |S| = {   -0.00000   -0.00000   -0.00000 }     0.00000
   scf:    6    -9618.245328    -9618.245328    -9618.245328  0.000054 -3.094338  0.000685
     spin moment: {S} , |S| = {   -0.00000   -0.00000   -0.00000 }     0.00000
   scf:    7    -9618.245328    -9618.245328    -9618.245328  0.000013 -3.094204  0.000366
     spin moment: {S} , |S| = {   -0.00000   -0.00000   -0.00000 }     0.00000
   scf:    8    -9618.245328    -9618.245328    -9618.245328  0.000003 -3.094190  0.000159
     spin moment: {S} , |S| = {   -0.00000   -0.00000   -0.00000 }     0.00000
   scf:    9    -9618.245328    -9618.245328    -9618.245328  0.000002 -3.094174  0.000026
     spin moment: {S} , |S| = {   -0.00000   -0.00000   -0.00000 }     0.00000
   scf:   10    -9618.245328    -9618.245328    -9618.245328  0.000001 -3.094174  0.000026
     spin moment: {S} , |S| = {   -0.00000   -0.00000   -0.00000 }     0.00000
   scf:   11    -9618.245328    -9618.245328    -9618.245328  0.000000 -3.094173  0.000014
     spin moment: {S} , |S| = {   -0.00000   -0.00000   -0.00000 }     0.00000
   scf:   12    -9618.245328    -9618.245328    -9618.245328  0.000000 -3.094173  0.000005
     spin moment: {S} , |S| = {   -0.00000   -0.00000   -0.00000 }     0.00000
   scf:   13    -9618.245328    -9618.245328    -9618.245328  0.000000 -3.094174  0.000002
     spin moment: {S} , |S| = {   -0.00000   -0.00000   -0.00000 }     0.00000
   scf:   14    -9618.245328    -9618.245328    -9618.245328  0.000000 -3.094174  0.000001
     spin moment: {S} , |S| = {   -0.00000   -0.00000   -0.00000 }     0.00000
   scf:   15    -9618.245328    -9618.245328    -9618.245328  0.000000 -3.094174  0.000000
     spin moment: {S} , |S| = {   -0.00000   -0.00000   -0.00000 }     0.00000

SCF Convergence by DM+H criterion
max |DM_out - DM_in|         :     0.0000000353
max |H_out - H_in|      (eV) :     0.0000002344
SCF cycle converged after 15 iterations

Using DM_out to compute the final energy and forces

siesta: E_KS(eV) =            -9618.2453
     spin moment: {S} , |S| = {   -0.00000   -0.00000   -0.00000 }     0.00000

siesta: Atomic forces (eV/Ang):
     1   -0.026650    0.100480   -0.051590
     2    0.046441    0.032885    0.000178
     3    0.114973    0.072755   -0.013843
     4   -0.039090    0.106643   -0.040592
     5    0.171982    0.020590    0.005182
     6   -0.121408   -0.086721    0.034933
     7   -0.001291   -0.009065   -0.000263
     8    0.214829   -0.080145    0.025556
     9    0.669600    0.895661   -0.268929
    10   -0.185540   -0.679209    0.204097
    11   -0.063622   -0.035302    0.016626
    12   -0.139092   -0.054056    0.001300
    13    0.006569   -0.205792    0.081485
    14   -0.132008   -0.019550   -0.014987
    15   -0.013216    0.027631   -0.016767
    16   -0.076349   -0.098740    0.040116
    17   -0.013766   -0.055917    0.016697
    18    0.020513    0.024635   -0.009510
    19    0.063673   -0.010236   -0.001588
    20   -0.002493   -0.061877    0.019164
    21    0.078696   -0.018438   -0.008852
    22    0.005785    0.074131   -0.430610
    23   -0.136067   -0.285131    0.115063
    24    0.068797    0.307612    0.278902
    25    0.135049    0.043684   -0.020988
    26   -0.013831   -0.080958    0.026450
    27    0.047651    0.042731   -0.005943
    28   -0.397980   -0.061816    0.003539
    29   -0.327259    0.123925   -0.021678
    30    0.123913   -0.056256   -0.018566
----------------------------------------
   Tot    0.078809   -0.025844   -0.055419
----------------------------------------
   Max    0.895661
   Res    0.181580    sqrt( Sum f_i^2 / 3N )
----------------------------------------
   Max    0.895661    constrained

Stress tensor Voigt[x,y,z,yz,xz,xy] (kbar):        1.43        0.11       -0.21       -0.11       -0.07        0.14
(Free)E + p*V (eV/cell)    -9619.0606
Target enthalpy (eV/cell)    -9618.2453

                     ====================================
                        Begin Broyden opt. move =      4
                     ====================================

outcell: Unit cell vectors (Ang):
       13.410444    0.000000    0.000000
        0.000000   19.141444    0.000000
        0.000000    0.000000   11.548144

outcell: Cell vector modules (Ang)   :   13.410444   19.141444   11.548144
outcell: Cell angles (23,13,12) (deg):     90.0000     90.0000     90.0000
outcell: Cell volume (Ang**3)        :   2964.3539
<dSpData1D:S at geom step 4
  <sparsity:sparsity for geom step 4
    nrows_g=302 nrows=18 sparsity=.0447 nnzs=4076, refcount: 8>
  <dData1D:(new from dSpData1D) n=4076, refcount: 1>
refcount: 1>
new_DM -- step:     5
Re-using DM from previous geometries...
Number of DMs in history: 1
 DM extrapolation coefficients: 
1   1.00000
New DM after history re-use:
<dSpData2D:SpM extrapolated using coords
  <sparsity:sparsity for geom step 4
    nrows_g=302 nrows=18 sparsity=.0447 nnzs=4076, refcount: 10>
  <dData2D:(temp array for extrapolation) n=4076 m=8, refcount: 1>
refcount: 1>
     spin moment: {S} , |S| = {   -0.00001   -0.00001   -0.00000 }     0.00001

InitMesh: MESH = 144 x 200 x 128 = 3686400
InitMesh: Mesh cutoff (required, used) =   300.000   301.726 Ry
New grid distribution [1]: sub = 2
New grid distribution [2]: sub = 2
New grid distribution [3]: sub = 2
Setting up quadratic distribution...

        iscf     Eharris(eV)        E_KS(eV)     FreeEng(eV)     dDmax    Ef(eV) dHmax(eV)
   scf:    1    -9618.225013    -9618.248360    -9618.248360  0.007319 -3.068329  0.349575
     spin moment: {S} , |S| = {   -0.00000   -0.00000   -0.00000 }     0.00000
   scf:    2    -9618.153259    -9618.221010    -9618.221010  0.015590 -2.976456  0.991850
     spin moment: {S} , |S| = {   -0.00000   -0.00000   -0.00000 }     0.00000
   scf:    3    -9618.258698    -9618.251631    -9618.251631  0.011749 -3.037472  0.017457
     spin moment: {S} , |S| = {   -0.00000   -0.00000   -0.00000 }     0.00000
   scf:    4    -9618.251663    -9618.251650    -9618.251650  0.000284 -3.032962  0.006971
     spin moment: {S} , |S| = {   -0.00000   -0.00000   -0.00000 }     0.00000
   scf:    5    -9618.251656    -9618.251653    -9618.251653  0.000145 -3.030989  0.001819
     spin moment: {S} , |S| = {   -0.00000   -0.00000   -0.00000 }     0.00000
   scf:    6    -9618.251654    -9618.251654    -9618.251654  0.000069 -3.030564  0.000691
     spin moment: {S} , |S| = {   -0.00000   -0.00000   -0.00000 }     0.00000
   scf:    7    -9618.251654    -9618.251654    -9618.251654  0.000023 -3.030480  0.000359
     spin moment: {S} , |S| = {   -0.00000   -0.00000   -0.00000 }     0.00000
   scf:    8    -9618.251654    -9618.251654    -9618.251654  0.000011 -3.030431  0.000109
     spin moment: {S} , |S| = {   -0.00000   -0.00000   -0.00000 }     0.00000
   scf:    9    -9618.251654    -9618.251654    -9618.251654  0.000001 -3.030435  0.000055
     spin moment: {S} , |S| = {   -0.00000   -0.00000   -0.00000 }     0.00000
   scf:   10    -9618.251654    -9618.251654    -9618.251654  0.000001 -3.030443  0.000015
     spin moment: {S} , |S| = {   -0.00000   -0.00000   -0.00000 }     0.00000
   scf:   11    -9618.251654    -9618.251654    -9618.251654  0.000000 -3.030443  0.000006
     spin moment: {S} , |S| = {   -0.00000   -0.00000   -0.00000 }     0.00000
   scf:   12    -9618.251654    -9618.251654    -9618.251654  0.000000 -3.030442  0.000002
     spin moment: {S} , |S| = {   -0.00000   -0.00000   -0.00000 }     0.00000
   scf:   13    -9618.251654    -9618.251654    -9618.251654  0.000000 -3.030442  0.000002
     spin moment: {S} , |S| = {   -0.00000   -0.00000   -0.00000 }     0.00000
   scf:   14    -9618.251654    -9618.251654    -9618.251654  0.000000 -3.030442  0.000001
     spin moment: {S} , |S| = {   -0.00000   -0.00000   -0.00000 }     0.00000

SCF Convergence by DM+H criterion
max |DM_out - DM_in|         :     0.0000000258
max |H_out - H_in|      (eV) :     0.0000006518
SCF cycle converged after 14 iterations

Using DM_out to compute the final energy and forces

siesta: E_KS(eV) =            -9618.2517
     spin moment: {S} , |S| = {   -0.00000   -0.00000   -0.00000 }     0.00000

siesta: Atomic forces (eV/Ang):
     1   -0.022406    0.064959   -0.036703
     2   -0.009957    0.075201   -0.020750
     3    0.083207    0.093227   -0.024107
     4    0.012282    0.093629   -0.031301
     5    0.126506   -0.029365    0.020800
     6   -0.111250   -0.097800    0.038543
     7   -0.010459    0.034732   -0.015891
     8    0.138071    0.015285   -0.002672
     9    0.015108   -0.005747    0.010589
    10    0.058129   -0.063827    0.022912
    11   -0.064286   -0.023902    0.011311
    12   -0.097328   -0.045218    0.002278
    13   -0.293324   -0.022149   -0.014441
    14   -0.120981   -0.024020   -0.012353
    15    0.045630   -0.003532   -0.000307
    16    0.042367   -0.107821    0.033044
    17   -0.108695   -0.022486    0.014135
    18    0.023240   -0.028791    0.008220
    19   -0.074365    0.024983   -0.000605
    20    0.023327   -0.000351   -0.003722
    21   -0.002009    0.008320    0.001594
    22   -0.026375   -0.054395    0.494835
    23    0.200141    0.527097   -0.212308
    24   -0.109790   -0.373462   -0.341986
    25    0.058222   -0.058554    0.018128
    26    0.058221   -0.026145    0.001047
    27   -0.046306    0.122579   -0.029886
    28    0.371025   -0.121687    0.051043
    29    0.085825   -0.048227    0.007400
    30   -0.173881    0.067502   -0.039356
----------------------------------------
   Tot    0.069890   -0.029964   -0.050512
----------------------------------------
   Max    0.527097
   Res    0.123581    sqrt( Sum f_i^2 / 3N )
----------------------------------------
   Max    0.527097    constrained

Stress tensor Voigt[x,y,z,yz,xz,xy] (kbar):        1.51        1.27        0.64       -0.25        0.02        0.18
(Free)E + p*V (eV/cell)    -9620.3527
Target enthalpy (eV/cell)    -9618.2517

                     ====================================
                        Begin Broyden opt. move =      5
                     ====================================

outcell: Unit cell vectors (Ang):
       13.410444    0.000000    0.000000
        0.000000   19.141444    0.000000
        0.000000    0.000000   11.548144

outcell: Cell vector modules (Ang)   :   13.410444   19.141444   11.548144
outcell: Cell angles (23,13,12) (deg):     90.0000     90.0000     90.0000
outcell: Cell volume (Ang**3)        :   2964.3539
<dSpData1D:S at geom step 5
  <sparsity:sparsity for geom step 5
    nrows_g=302 nrows=18 sparsity=.0447 nnzs=4076, refcount: 8>
  <dData1D:(new from dSpData1D) n=4076, refcount: 1>
refcount: 1>
new_DM -- step:     6
Re-using DM from previous geometries...
Number of DMs in history: 1
 DM extrapolation coefficients: 
1   1.00000
New DM after history re-use:
<dSpData2D:SpM extrapolated using coords
  <sparsity:sparsity for geom step 5
    nrows_g=302 nrows=18 sparsity=.0447 nnzs=4076, refcount: 10>
  <dData2D:(temp array for extrapolation) n=4076 m=8, refcount: 1>
refcount: 1>
     spin moment: {S} , |S| = {    0.00000    0.00000   -0.00000 }     0.00000

InitMesh: MESH = 144 x 200 x 128 = 3686400
InitMesh: Mesh cutoff (required, used) =   300.000   301.726 Ry
New grid distribution [1]: sub = 2
New grid distribution [2]: sub = 2
New grid distribution [3]: sub = 2
Setting up quadratic distribution...

        iscf     Eharris(eV)        E_KS(eV)     FreeEng(eV)     dDmax    Ef(eV) dHmax(eV)
   scf:    1    -9618.184538    -9618.253663    -9618.253663  0.001541 -3.012460  0.075749
     spin moment: {S} , |S| = {   -0.00000   -0.00000   -0.00000 }     0.00000
   scf:    2    -9618.249096    -9618.252358    -9618.252358  0.002778 -2.997227  0.214580
     spin moment: {S} , |S| = {   -0.00000   -0.00000   -0.00000 }     0.00000
   scf:    3    -9618.254164    -9618.253836    -9618.253836  0.002161 -3.006824  0.008154
     spin moment: {S} , |S| = {   -0.00000   -0.00000   -0.00000 }     0.00000
   scf:    4    -9618.253841    -9618.253839    -9618.253839  0.000058 -3.005066  0.002538
     spin moment: {S} , |S| = {   -0.00000   -0.00000   -0.00000 }     0.00000
   scf:    5    -9618.253839    -9618.253839    -9618.253839  0.000016 -3.004621  0.000835
     spin moment: {S} , |S| = {   -0.00000   -0.00000   -0.00000 }     0.00000
   scf:    6    -9618.253839    -9618.253839    -9618.253839  0.000010 -3.004543  0.000150
     spin moment: {S} , |S| = {   -0.00000   -0.00000   -0.00000 }     0.00000
   scf:    7    -9618.253839    -9618.253839    -9618.253839  0.000003 -3.004536  0.000061
     spin moment: {S} , |S| = {   -0.00000   -0.00000   -0.00000 }     0.00000
   scf:    8    -9618.253839    -9618.253839    -9618.253839  0.000002 -3.004533  0.000028
     spin moment: {S} , |S| = {   -0.00000   -0.00000   -0.00000 }     0.00000
   scf:    9    -9618.253839    -9618.253839    -9618.253839  0.000001 -3.004528  0.000015
     spin moment: {S} , |S| = {   -0.00000   -0.00000   -0.00000 }     0.00000
   scf:   10    -9618.253839    -9618.253839    -9618.253839  0.000000 -3.004527  0.000008
     spin moment: {S} , |S| = {   -0.00000   -0.00000   -0.00000 }     0.00000
   scf:   11    -9618.253839    -9618.253839    -9618.253839  0.000000 -3.004527  0.000003
     spin moment: {S} , |S| = {   -0.00000   -0.00000   -0.00000 }     0.00000
[...]
     spin moment: {S} , |S| = {   -0.00000   -0.00000   -0.00000 }     0.00000
   scf:    4    -9618.263511    -9618.263511    -9618.263511  0.000003 -2.895727  0.000102
     spin moment: {S} , |S| = {   -0.00000   -0.00000   -0.00000 }     0.00000
   scf:    5    -9618.263511    -9618.263511    -9618.263511  0.000002 -2.895728  0.000036
     spin moment: {S} , |S| = {   -0.00000   -0.00000   -0.00000 }     0.00000
   scf:    6    -9618.263511    -9618.263511    -9618.263511  0.000001 -2.895726  0.000012
     spin moment: {S} , |S| = {   -0.00000   -0.00000   -0.00000 }     0.00000
   scf:    7    -9618.263511    -9618.263511    -9618.263511  0.000000 -2.895724  0.000003
     spin moment: {S} , |S| = {   -0.00000   -0.00000   -0.00000 }     0.00000
   scf:    8    -9618.263511    -9618.263511    -9618.263511  0.000000 -2.895723  0.000002
     spin moment: {S} , |S| = {   -0.00000   -0.00000   -0.00000 }     0.00000
   scf:    9    -9618.263511    -9618.263511    -9618.263511  0.000000 -2.895723  0.000001
     spin moment: {S} , |S| = {   -0.00000   -0.00000   -0.00000 }     0.00000

SCF Convergence by DM+H criterion
max |DM_out - DM_in|         :     0.0000000369
max |H_out - H_in|      (eV) :     0.0000005579
SCF cycle converged after 9 iterations

Using DM_out to compute the final energy and forces

siesta: E_KS(eV) =            -9618.2635
     spin moment: {S} , |S| = {   -0.00000   -0.00000   -0.00000 }     0.00000

siesta: Atomic forces (eV/Ang):
     1   -0.005001   -0.002250   -0.003315
     2   -0.002591   -0.000747   -0.001179
     3   -0.003602    0.002147    0.001046
     4   -0.004397    0.004598    0.002013
     5   -0.002301    0.003863    0.001723
     6   -0.008291   -0.059391    0.027476
     7    0.003983    0.000292    0.000264
     8    0.003023    0.004362    0.001813
     9    0.008367    0.000710   -0.002814
    10    0.004368    0.005015    0.000485
    11    0.004140    0.000936   -0.002713
    12    0.003775   -0.000653   -0.002504
    13    0.006488   -0.004491   -0.002739
    14    0.000873   -0.000400   -0.000799
    15   -0.000731   -0.000469   -0.001094
    16    0.001137    0.000196   -0.003669
    17    0.003417    0.000535   -0.001321
    18    0.001556   -0.000331   -0.001722
    19    0.003811   -0.002508    0.004017
    20    0.002958   -0.002090   -0.003955
    21    0.000561   -0.000100   -0.002604
    22    0.004331    0.005513   -0.005345
    23   -0.005233    0.004231   -0.005011
    24    0.001086   -0.003551   -0.001339
    25    0.005342   -0.000388   -0.003743
    26    0.002376   -0.001176    0.000303
    27    0.005232   -0.001502   -0.005200
    28    0.008008   -0.003398   -0.001583
    29    0.003286    0.001447    0.000203
    30    0.006627    0.002623    0.005360
----------------------------------------
   Tot    0.052600   -0.046976   -0.007946
----------------------------------------
   Max    0.059391
   Res    0.007692    sqrt( Sum f_i^2 / 3N )
----------------------------------------
   Max    0.008367    constrained

Stress tensor Voigt[x,y,z,yz,xz,xy] (kbar):        0.09        0.11        0.08        0.04        0.04       -0.10
(Free)E + p*V (eV/cell)    -9618.4338
Target enthalpy (eV/cell)    -9618.2635

                     ====================================
                        Begin Broyden opt. move =     36
                     ====================================

outcell: Unit cell vectors (Ang):
       13.410444    0.000000    0.000000
        0.000000   19.141444    0.000000
        0.000000    0.000000   11.548144

outcell: Cell vector modules (Ang)   :   13.410444   19.141444   11.548144
outcell: Cell angles (23,13,12) (deg):     90.0000     90.0000     90.0000
outcell: Cell volume (Ang**3)        :   2964.3539
<dSpData1D:S at geom step 36
  <sparsity:sparsity for geom step 36
    nrows_g=302 nrows=18 sparsity=.0447 nnzs=4077, refcount: 8>
  <dData1D:(new from dSpData1D) n=4077, refcount: 1>
refcount: 1>
new_DM -- step:    37
Re-using DM from previous geometries...
Number of DMs in history: 1
 DM extrapolation coefficients: 
1   1.00000
New DM after history re-use:
<dSpData2D:SpM extrapolated using coords
  <sparsity:sparsity for geom step 36
    nrows_g=302 nrows=18 sparsity=.0447 nnzs=4077, refcount: 10>
  <dData2D:(temp array for extrapolation) n=4077 m=8, refcount: 1>
refcount: 1>
     spin moment: {S} , |S| = {   -0.00000   -0.00000   -0.00000 }     0.00000

InitMesh: MESH = 144 x 200 x 128 = 3686400
InitMesh: Mesh cutoff (required, used) =   300.000   301.726 Ry
New grid distribution [1]: sub = 2
New grid distribution [2]: sub = 2
New grid distribution [3]: sub = 2
Setting up quadratic distribution...

        iscf     Eharris(eV)        E_KS(eV)     FreeEng(eV)     dDmax    Ef(eV) dHmax(eV)
   scf:    1    -9618.265428    -9618.263557    -9618.263557  0.000045 -2.896372  0.002399
     spin moment: {S} , |S| = {   -0.00000   -0.00000   -0.00000 }     0.00000
   scf:    2    -9618.263553    -9618.263556    -9618.263556  0.000068 -2.895435  0.005460
     spin moment: {S} , |S| = {   -0.00000   -0.00000   -0.00000 }     0.00000
   scf:    3    -9618.263558    -9618.263557    -9618.263557  0.000051 -2.896018  0.000178
     spin moment: {S} , |S| = {   -0.00000   -0.00000   -0.00000 }     0.00000
   scf:    4    -9618.263558    -9618.263557    -9618.263557  0.000002 -2.895959  0.000081
     spin moment: {S} , |S| = {   -0.00000   -0.00000   -0.00000 }     0.00000
   scf:    5    -9618.263557    -9618.263557    -9618.263557  0.000001 -2.895937  0.000033
     spin moment: {S} , |S| = {   -0.00000   -0.00000   -0.00000 }     0.00000
   scf:    6    -9618.263557    -9618.263557    -9618.263557  0.000000 -2.895935  0.000012
     spin moment: {S} , |S| = {   -0.00000   -0.00000   -0.00000 }     0.00000
   scf:    7    -9618.263557    -9618.263557    -9618.263557  0.000000 -2.895933  0.000003
     spin moment: {S} , |S| = {   -0.00000   -0.00000   -0.00000 }     0.00000
   scf:    8    -9618.263557    -9618.263557    -9618.263557  0.000000 -2.895933  0.000002
     spin moment: {S} , |S| = {   -0.00000   -0.00000   -0.00000 }     0.00000
   scf:    9    -9618.263557    -9618.263557    -9618.263557  0.000000 -2.895933  0.000000
     spin moment: {S} , |S| = {   -0.00000   -0.00000   -0.00000 }     0.00000

SCF Convergence by DM+H criterion
max |DM_out - DM_in|         :     0.0000000241
max |H_out - H_in|      (eV) :     0.0000004857
SCF cycle converged after 9 iterations

Using DM_out to compute the final energy and forces

siesta: E_KS(eV) =            -9618.2636
     spin moment: {S} , |S| = {   -0.00000   -0.00000   -0.00000 }     0.00000

siesta: Atomic forces (eV/Ang):
     1   -0.003573   -0.002111   -0.002965
     2   -0.003021   -0.000051   -0.001374
     3   -0.003433    0.001899    0.001015
     4   -0.005780    0.002965    0.002368
     5   -0.001939    0.003805    0.001495
     6   -0.005971   -0.056477    0.026995
     7    0.003549    0.000716   -0.000038
     8    0.003853    0.003731    0.001555
     9    0.007081    0.001983   -0.002828
    10    0.002486    0.003821    0.000937
    11    0.005341    0.000372   -0.002161
    12    0.003710   -0.002105   -0.001961
    13    0.007041   -0.005632   -0.002743
    14    0.000888   -0.000636   -0.001060
    15   -0.000533   -0.000856   -0.000910
    16    0.004281    0.000042   -0.003427
    17    0.003204    0.000783   -0.001444
    18    0.002664   -0.002483   -0.000927
    19    0.005026    0.001537    0.002535
    20    0.002037   -0.001721   -0.003709
    21    0.000757   -0.000842   -0.003147
    22    0.000977    0.002196   -0.003760
    23   -0.004650    0.003675   -0.007925
    24    0.001147    0.000301    0.001197
    25    0.003664   -0.002092   -0.002818
    26    0.003484   -0.000990   -0.000184
    27    0.004627   -0.002786   -0.004113
    28    0.008549   -0.001589   -0.002492
    29    0.004607    0.001029    0.000189
    30    0.005075    0.003631    0.004753
----------------------------------------
   Tot    0.055150   -0.047884   -0.006947
----------------------------------------
   Max    0.056477
   Res    0.007338    sqrt( Sum f_i^2 / 3N )
----------------------------------------
   Max    0.008549    constrained

Stress tensor Voigt[x,y,z,yz,xz,xy] (kbar):        0.09        0.10        0.08        0.04        0.04       -0.10
(Free)E + p*V (eV/cell)    -9618.4240
Target enthalpy (eV/cell)    -9618.2636

                     ====================================
                        Begin Broyden opt. move =     37
                     ====================================

outcell: Unit cell vectors (Ang):
       13.410444    0.000000    0.000000
        0.000000   19.141444    0.000000
        0.000000    0.000000   11.548144

outcell: Cell vector modules (Ang)   :   13.410444   19.141444   11.548144
outcell: Cell angles (23,13,12) (deg):     90.0000     90.0000     90.0000
outcell: Cell volume (Ang**3)        :   2964.3539
<dSpData1D:S at geom step 37
  <sparsity:sparsity for geom step 37
    nrows_g=302 nrows=18 sparsity=.0447 nnzs=4077, refcount: 8>
  <dData1D:(new from dSpData1D) n=4077, refcount: 1>
refcount: 1>
new_DM -- step:    38
Re-using DM from previous geometries...
Number of DMs in history: 1
 DM extrapolation coefficients: 
1   1.00000
New DM after history re-use:
<dSpData2D:SpM extrapolated using coords
  <sparsity:sparsity for geom step 37
    nrows_g=302 nrows=18 sparsity=.0447 nnzs=4077, refcount: 10>
  <dData2D:(temp array for extrapolation) n=4077 m=8, refcount: 1>
refcount: 1>
     spin moment: {S} , |S| = {   -0.00000   -0.00000   -0.00000 }     0.00000

InitMesh: MESH = 144 x 200 x 128 = 3686400
InitMesh: Mesh cutoff (required, used) =   300.000   301.726 Ry
New grid distribution [1]: sub = 2
New grid distribution [2]: sub = 2
New grid distribution [3]: sub = 2
Setting up quadratic distribution...

        iscf     Eharris(eV)        E_KS(eV)     FreeEng(eV)     dDmax    Ef(eV) dHmax(eV)
   scf:    1    -9618.267169    -9618.263636    -9618.263636  0.000105 -2.896602  0.003156
     spin moment: {S} , |S| = {   -0.00000   -0.00000   -0.00000 }     0.00000
   scf:    2    -9618.263619    -9618.263631    -9618.263631  0.000184 -2.896561  0.009162
     spin moment: {S} , |S| = {   -0.00000   -0.00000   -0.00000 }     0.00000
   scf:    3    -9618.263638    -9618.263637    -9618.263637  0.000138 -2.896550  0.000374
     spin moment: {S} , |S| = {   -0.00000   -0.00000   -0.00000 }     0.00000
   scf:    4    -9618.263637    -9618.263637    -9618.263637  0.000004 -2.896524  0.000135
     spin moment: {S} , |S| = {   -0.00000   -0.00000   -0.00000 }     0.00000
   scf:    5    -9618.263637    -9618.263637    -9618.263637  0.000002 -2.896512  0.000053
     spin moment: {S} , |S| = {   -0.00000   -0.00000   -0.00000 }     0.00000
   scf:    6    -9618.263637    -9618.263637    -9618.263637  0.000001 -2.896507  0.000016
     spin moment: {S} , |S| = {   -0.00000   -0.00000   -0.00000 }     0.00000
   scf:    7    -9618.263637    -9618.263637    -9618.263637  0.000000 -2.896504  0.000006
     spin moment: {S} , |S| = {   -0.00000   -0.00000   -0.00000 }     0.00000
   scf:    8    -9618.263637    -9618.263637    -9618.263637  0.000000 -2.896503  0.000003
     spin moment: {S} , |S| = {   -0.00000   -0.00000   -0.00000 }     0.00000
   scf:    9    -9618.263637    -9618.263637    -9618.263637  0.000000 -2.896503  0.000001
     spin moment: {S} , |S| = {   -0.00000   -0.00000   -0.00000 }     0.00000

SCF Convergence by DM+H criterion
max |DM_out - DM_in|         :     0.0000000567
max |H_out - H_in|      (eV) :     0.0000009188
SCF cycle converged after 9 iterations

Using DM_out to compute the final energy and forces

siesta: E_KS(eV) =            -9618.2636
     spin moment: {S} , |S| = {   -0.00000   -0.00000   -0.00000 }     0.00000

siesta: Atomic forces (eV/Ang):
     1   -0.006069   -0.001883   -0.002796
     2   -0.003449   -0.001122   -0.000920
     3   -0.004255    0.001931    0.000804
     4   -0.004080    0.005893    0.002187
     5   -0.002224    0.003663    0.001236
     6    0.001878   -0.053214    0.026885
     7    0.003053    0.001649   -0.000477
     8    0.005086    0.001346    0.002048
     9    0.007474    0.001965   -0.003118
    10    0.002390    0.005284    0.000823
    11    0.004068   -0.001184   -0.001594
    12    0.003642   -0.002256   -0.001943
    13    0.007669   -0.006849   -0.002984
    14    0.000692   -0.002422   -0.000843
    15   -0.000461   -0.000629   -0.000949
    16    0.001831    0.000289   -0.002860
    17    0.003871    0.000427   -0.001371
    18    0.002794   -0.000217   -0.001680
    19    0.001140   -0.001292    0.003501
    20    0.001509   -0.002317   -0.003132
    21    0.001459    0.000604   -0.003209
    22    0.006361    0.006128   -0.001268
    23   -0.006420    0.000555   -0.004602
    24    0.004579   -0.001539   -0.005694
    25    0.003082   -0.002702   -0.002495
    26    0.003271   -0.001419   -0.000326
    27    0.004056   -0.002798   -0.003573
    28    0.006051   -0.001247   -0.003224
    29    0.003467    0.001371    0.000445
    30    0.004612    0.003990    0.004919
----------------------------------------
   Tot    0.057074   -0.047997   -0.006208
----------------------------------------
   Max    0.053214
   Res    0.007081    sqrt( Sum f_i^2 / 3N )
----------------------------------------
   Max    0.007669    constrained

Stress tensor Voigt[x,y,z,yz,xz,xy] (kbar):        0.11        0.10        0.08        0.05        0.03       -0.09
(Free)E + p*V (eV/cell)    -9618.4388
Target enthalpy (eV/cell)    -9618.2636

outcoor: Relaxed atomic coordinates (Ang):                  
    6.52909429   -4.94616355    1.94675048   1       1  H
    5.76121005   -4.33377627    1.64918020   2       2  N
    4.36609754   -4.65214580    1.65983672   3       3  C
    4.04778630   -5.63069541    1.99730332   1       4  H
    3.56616219   -3.63409487    1.22096669   2       5  N
    4.53000000   -2.59400000    0.91000000   3       6  C
    4.30860393   -1.27228435    0.42509746   3       7  C
    3.02725643   -0.77289477    0.16031288   2       8  N
    2.93051717    0.28470643   -0.13856245   1       9  H
    2.26119987   -1.48469232    0.37316799   1      10  H
    5.43611597   -0.44738505    0.20450963   2      11  N
    6.70209218   -0.99118260    0.48777023   3      12  C
    7.55642262   -0.32705424    0.29793129   1      13  H
    7.03198017   -2.25087024    0.97345278   2      14  N
    5.86271939   -2.99286919    1.15875873   3      15  C
    6.69724998    4.81047891   -1.90609399   1      16  H
    5.84399824    4.27397805   -1.65651223   2      17  N
    4.51426716    4.80609652   -1.70306695   3      18  C
    4.34777268    5.84102458   -2.04325739   1      19  H
    3.41979725    4.06074338   -1.34052920   3      20  C
    2.01578806    4.61862113   -1.39162322   3      21  C
    1.75351381    4.91664587   -2.41409161   1      22  H
    1.29611916    3.86205372   -1.05710023   1      23  H
    1.91439986    5.50053228   -0.74598890   1      24  H
    3.59963657    2.67683175   -0.90284796   3      25  C
    2.63834281    1.92314173   -0.57327463   4      26  O
    4.94859424    2.18288108   -0.85993107   2      27  N
    5.09666469    1.18803118   -0.49113777   1      28  H
    6.13487852    2.91451397   -1.20249465   3      29  C
    7.28661565    2.46134101   -1.13215748   4      30  O

siesta: Program's energy decomposition (eV):
siesta: Ebs     =     -1314.173783
siesta: Eions   =     11405.106776
siesta: Ena     =      1808.629984
siesta: Ekin    =      3381.756562
siesta: Enl(+so)=     -2084.827459
siesta: Eso(nil)=         0.000000
siesta: Edftu   =         0.000000
siesta: DEna    =       -51.334326
siesta: DUscf   =         9.954874
siesta: DUext   =         0.000000
siesta: Ex      =     -1149.245204
siesta: Ec      =      -128.091291
siesta: Exc     =     -1277.336495
siesta: EbV     =         0.000000
siesta: eta*DQ  =         0.000000
siesta: Emadel  =         0.000000
siesta: Emeta   =         0.000000
siesta: Emolmec =         0.000000
siesta: Ekinion =         0.000000
siesta: Eharris =     -9618.263637
siesta: Etot    =     -9618.263637
siesta: FreeEng =     -9618.263637

siesta: Final energy (eV):
siesta:  Band Struct. =   -1314.173783
siesta:       Kinetic =    3381.756562
siesta:       Hartree =   10052.495143
siesta:         Edftu =       0.000000
siesta:      Eso(nil) =       0.000000
siesta:    Ext. field =       0.000000
siesta:         Exch. =   -1149.245204
siesta:         Corr. =    -128.091291
siesta:     Bulk bias =       0.000000
siesta:   Exch.-corr. =   -1277.336495
siesta:  Ion-electron =  -23157.122521
siesta:       Ion-ion =    1381.943674
siesta:       Ekinion =       0.000000
siesta: D3 dispersion =       0.000000
siesta:         Total =   -9618.263637
siesta:         Fermi =      -2.896503

siesta: Atomic forces (eV/Ang):
siesta:      1   -0.006069   -0.001883   -0.002796
siesta:      2   -0.003449   -0.001122   -0.000920
siesta:      3   -0.004255    0.001931    0.000804
siesta:      4   -0.004080    0.005893    0.002187
siesta:      5   -0.002224    0.003663    0.001236
siesta:      6    0.001878   -0.053214    0.026885
siesta:      7    0.003053    0.001649   -0.000477
siesta:      8    0.005086    0.001346    0.002048
siesta:      9    0.007474    0.001965   -0.003118
siesta:     10    0.002390    0.005284    0.000823
siesta:     11    0.004068   -0.001184   -0.001594
siesta:     12    0.003642   -0.002256   -0.001943
siesta:     13    0.007669   -0.006849   -0.002984
siesta:     14    0.000692   -0.002422   -0.000843
siesta:     15   -0.000461   -0.000629   -0.000949
siesta:     16    0.001831    0.000289   -0.002860
siesta:     17    0.003871    0.000427   -0.001371
siesta:     18    0.002794   -0.000217   -0.001680
siesta:     19    0.001140   -0.001292    0.003501
siesta:     20    0.001509   -0.002317   -0.003132
siesta:     21    0.001459    0.000604   -0.003209
siesta:     22    0.006361    0.006128   -0.001268
siesta:     23   -0.006420    0.000555   -0.004602
siesta:     24    0.004579   -0.001539   -0.005694
siesta:     25    0.003082   -0.002702   -0.002495
siesta:     26    0.003271   -0.001419   -0.000326
siesta:     27    0.004056   -0.002798   -0.003573
siesta:     28    0.006051   -0.001247   -0.003224
siesta:     29    0.003467    0.001371    0.000445
siesta:     30    0.004612    0.003990    0.004919
siesta: ----------------------------------------
siesta:    Tot    0.057074   -0.047997   -0.006208

siesta: Stress tensor (static) (eV/Ang**3):
siesta:     0.000066   -0.000059    0.000021
siesta:    -0.000059    0.000062    0.000030
siesta:     0.000021    0.000030    0.000050

siesta: Cell volume =       2964.353859 Ang**3

siesta: Pressure (static):
siesta:                Solid            Molecule  Units
siesta:          -0.00000064         -0.00000088  Ry/Bohr**3
siesta:          -0.00005910         -0.00008077  eV/Ang**3
siesta:          -0.09468288         -0.12940040  kBar
(Free)E+ p_basis*V_orbitals  =       -9607.552915
(Free)Eharris+ p_basis*V_orbitals  =       -9607.552915
     spin moment: {S} , |S| = {   -0.00000   -0.00000   -0.00000 }     0.00000

siesta: Electric dipole (a.u.)  =   -0.187771    0.661263   -0.164389
siesta: Electric dipole (Debye) =   -0.477267    1.680763   -0.417834

cite: Please see "AT.bib" for an exhaustive BiBTeX file.
cite: Please clearly indicate Siesta version in published work: 5.1-MaX-41-g6ad11e234
cite: This calculation has made use of the following articles
cite: which are encouraged to be cited in a published work.
        Primary SIESTA paper
          DOI: www.doi.org/10.1088/0953-8984/14/11/302
        Spin-orbit coupling (off-site approximation)
          DOI: www.doi.org/10.1088/0953-8984/24/8/086005
        ELPA library
          DOI: www.doi.org/10.1088/0953-8984/26/21/213201


>> End of run:   3-SEP-2024   9:54:57
Job completed
