Siesta Version  : v4.1.5-1-g384057250
Architecture    : gcc
Compiler version: GNU Fortran (Ubuntu 11.3.0-1ubuntu1~22.04) 11.3.0
Compiler flags  : mpifort -O2 -fPIC -ftree-vectorize -fallow-argument-mismatch
PP flags        : -DFC_HAVE_ABORT -DMPI -DSIESTA__FLOOK -DSIESTA__METIS -DSIESTA__MUMPS -DCDF -DNCDF -DNCDF_4 -DNCDF_PARALLEL -DSIESTA__MRRR -DSIESTA__ELPA
Libraries       : libncdf.a libfdict.a  -lflookall -ldl -lnetcdff -lnetcdf -lhdf5_hl -lhdf5 -lhdf5_fortran -lz -lscalapack-openmpi -lopenblas -lmetis -lzmumps -lcmumps -ldmumps -lmumps_common -lpord -lsmumps -lesmumps -lscotch -lscotcherr -fopenmp -lelpa
PARALLEL version
NetCDF support
NetCDF-4 support
NetCDF-4 MPI-IO support
METIS ordering support
Lua support

* Running on 4 nodes in parallel
>> Start of run:  22-MAY-2023  17:20:03

                           ***********************       
                           *  WELCOME TO SIESTA  *       
                           ***********************       

reinit: Reading from standard input
reinit: Dumped input in INPUT_TMP.56269
************************** Dump of input data file ****************************
SystemLabel      GC
NumberOfAtoms    29
NumberOfSpecies  4
%block ChemicalSpeciesLabel
    1    8  O
    2    7  N
    3   14  Si
    4    1  H
%endblock ChemicalSpeciesLabel
# Single point calculation
MD.TypeOfRun                CG
MD.Steps                    0
SCF.MustConverge            F # In case it does not. There can be 2 very close atoms
AtomicCoordinatesFormat NotScaledCartesianAng
%block AtomicCoordinatesAndAtomicSpecies
0.854927710    3.902811360    0.000000000       1
-3.151486600   0.823854130    0.000000000       2
1.928518680    1.174000900    0.000000000       2
0.979899500    -1.830275890   0.000000000       2
-2.159258930   -2.028004800   0.000000000       2
3.785319770    -1.112700660   0.000000000       2
-1.345933810   0.976250250    0.000000000       3
-0.599439880   -1.096077170   0.000000000       3
0.453182890    2.350510230    0.000000000       3
2.133302030    -0.576510800   0.000000000       3
-3.516065660   -0.842056510   0.000000000       3
2.824527830    1.754723110    0.000000000       4
-4.877551690   -1.469214660   0.000000000       4
3.994952020    -2.143204000   0.000000000       4
4.620903610    -0.483666060   0.000000000       4
-2.279085180   -3.081514090   0.000000000       4
5.433528502    5.458633294    -0.000000000      3
7.302487992    6.718276924    -0.000000000      3
6.843555612    2.716895074    -0.000000000      3
8.911148332    5.223486294    -0.000000000      3
5.493058452    3.773680834    -0.000000000      2
3.803529302    6.088693524    -0.000000000      2
8.487444482    3.507985484    -0.000000000      2
7.582851692    8.188499444    -0.000000000      4
10.406559712   5.442338834    -0.000000000      4
3.559070312    7.107159474    -0.000000000      4
2.976788122    5.431845394    -0.000000000      4
6.902831372    1.134453044    -0.000000000      1
9.259100072    2.781018124    -0.000000000      4
%endblock AtomicCoordinatesAndAtomicSpecies
%include ../../../Defaults.fdf
************************** End of input data file *****************************

reinit: -----------------------------------------------------------------------
reinit: System Name: 
reinit: -----------------------------------------------------------------------
reinit: System Label: GC
reinit: -----------------------------------------------------------------------

initatom: Reading input for the pseudopotentials and atomic orbitals ----------
Species number:   1 Atomic number:    8 Label: O
Species number:   2 Atomic number:    7 Label: N
Species number:   3 Atomic number:   14 Label: Si
Species number:   4 Atomic number:    1 Label: H

Ground state valence configuration:   2s02  2p04
Reading pseudopotential information in formatted form from O.psf

Pseudopotential generated from a relativistic atomic calculation

Valence configuration for pseudopotential generation:
2s( 2.00) rc: 0.45
2p( 4.00) rc: 0.92
3d( 0.00) rc: 2.24
4f( 0.00) rc: 0.25
Ground state valence configuration:   2s02  2p03
Reading pseudopotential information in formatted form from N.psf

Pseudopotential generated from a relativistic atomic calculation

Valence configuration for pseudopotential generation:
2s( 2.00) rc: 0.94
2p( 3.00) rc: 0.59
3d( 0.00) rc: 3.46
4f( 0.00) rc: 2.47
Ground state valence configuration:   3s02  3p02
Reading pseudopotential information in formatted form from Si.psf

Pseudopotential generated from a relativistic atomic calculation

Valence configuration for pseudopotential generation:
3s( 2.00) rc: 1.67
3p( 2.00) rc: 2.04
3d( 0.00) rc: 2.89
4f( 0.00) rc: 2.49
Ground state valence configuration:   1s01
Reading pseudopotential information in formatted form from H.psf

Pseudopotential generated from a relativistic atomic calculation

Valence configuration for pseudopotential generation:
1s( 1.00) rc: 0.01
2p( 0.00) rc: 0.60
3d( 0.00) rc: 1.99
4f( 0.00) rc: 2.49
For O, standard SIESTA heuristics set lmxkb to 3
 (one more than the basis l, including polarization orbitals).
Use PS.lmax or PS.KBprojectors blocks to override.
For N, standard SIESTA heuristics set lmxkb to 3
 (one more than the basis l, including polarization orbitals).
Use PS.lmax or PS.KBprojectors blocks to override.
For Si, standard SIESTA heuristics set lmxkb to 3
 (one more than the basis l, including polarization orbitals).
Use PS.lmax or PS.KBprojectors blocks to override.
For H, standard SIESTA heuristics set lmxkb to 2
 (one more than the basis l, including polarization orbitals).
Use PS.lmax or PS.KBprojectors blocks to override.

<basis_specs>
===============================================================================
O                    Z=   8    Mass=  16.000        Charge= 0.17977+309
Lmxo=1 Lmxkb= 3    BasisType=split      Semic=F
L=0  Nsemic=0  Cnfigmx=2
          i=1  nzeta=2  polorb=0  (2s)
            splnorm:   0.28000    
               vcte:    0.0000    
               rinn:    0.0000    
               qcoe:    0.0000    
               qyuk:    0.0000    
               qwid:   0.10000E-01
                rcs:    0.0000      0.0000    
            lambdas:    1.0000      1.0000    
L=1  Nsemic=0  Cnfigmx=2
          i=1  nzeta=2  polorb=1  (2p)
            splnorm:   0.28000    
               vcte:    0.0000    
               rinn:    0.0000    
               qcoe:    0.0000    
               qyuk:    0.0000    
               qwid:   0.10000E-01
                rcs:    0.0000      0.0000    
            lambdas:    1.0000      1.0000    
-------------------------------------------------------------------------------
L=0  Nkbl=1  erefs: 0.17977+309
L=1  Nkbl=1  erefs: 0.17977+309
L=2  Nkbl=1  erefs: 0.17977+309
L=3  Nkbl=1  erefs: 0.17977+309
===============================================================================
</basis_specs>

atom: Called for O                     (Z =   8)

read_vps: Pseudopotential generation method:
read_vps: ATM4.2.7  Troullier-Martins                       
Valence charge for ps generation:    6.00000

xc_check: Exchange-correlation functional:
xc_check: GGA Perdew, Burke & Ernzerhof 1996
V l=0 = -2*Zval/r beyond r=  1.1000
V l=1 = -2*Zval/r beyond r=  1.1000
V l=2 = -2*Zval/r beyond r=  2.2154
V l=3 = -2*Zval/r beyond r=  1.1000
All V_l potentials equal beyond r=  2.2154
This should be close to max(r_c) in ps generation
All pots = -2*Zval/r beyond r=  2.2154

VLOCAL1: 99.0% of the norm of Vloc inside      8.845 Ry
VLOCAL1: 99.9% of the norm of Vloc inside     20.157 Ry
atom: Maximum radius for 4*pi*r*r*local-pseudopot. charge    2.67231
atom: Maximum radius for r*vlocal+2*Zval:    2.32897
GHOST: No ghost state for L =  0
GHOST: No ghost state for L =  1
GHOST: No ghost state for L =  2
GHOST: No ghost state for L =  3

KBgen: Kleinman-Bylander projectors: 
   l= 0   rc=  2.243238   el= -1.759686   Ekb=**********   kbcos= -0.171774
   l= 1   rc=  2.328968   el= -0.663873   Ekb=-14.506792   kbcos= -0.519897
   l= 2   rc=  2.573941   el=  0.002031   Ekb= -1.137373   kbcos= -0.019581
   l= 3   rc=  2.606321   el=  0.003153   Ekb= -1.013546   kbcos= -0.003122

KBgen: Total number of Kleinman-Bylander projectors:   16
atom: -------------------------------------------------------------------------

atom: SANKEY-TYPE ORBITALS:
atom: Selected multiple-zeta basis: split     

SPLIT: Orbitals with angular momentum L= 0

SPLIT: Basis orbitals for state 2s

SPLIT: PAO cut-off radius determined from an
SPLIT: energy shift=  0.002000 Ry

   izeta = 1
                 lambda =    1.000000
                     rc =    4.243912
                 energy =   -1.758270
                kinetic =    3.286084
    potential(screened) =   -5.044353
       potential(ionic) =  -12.921184

   izeta = 2
                 rmatch =    2.187845
              splitnorm =    0.280000
                 energy =   -0.885018
                kinetic =    8.134434
    potential(screened) =   -9.019452
       potential(ionic) =  -17.710645

SPLIT: Orbitals with angular momentum L= 1

SPLIT: Basis orbitals for state 2p

SPLIT: PAO cut-off radius determined from an
SPLIT: energy shift=  0.002000 Ry

   izeta = 1
                 lambda =    1.000000
                     rc =    5.314825
                 energy =   -0.661986
                kinetic =    4.917472
    potential(screened) =   -5.579458
       potential(ionic) =  -13.236259

   izeta = 2
                 rmatch =    2.160663
              splitnorm =    0.280000
                 energy =   -0.068760
                kinetic =    9.183374
    potential(screened) =   -9.252135
       potential(ionic) =  -18.274251

POLgen: Perturbative polarization orbital with L=  2

POLgen: Polarization orbital for state 2p

   izeta = 1
                     rc =    5.314825
                 energy =    1.970580
                kinetic =    3.886128
    potential(screened) =   -1.915547
       potential(ionic) =   -7.749584
atom: Total number of Sankey-type orbitals: 13

atm_pop: Valence configuration (for local Pseudopot. screening):
 2s( 2.00)                                                            
 2p( 4.00)                                                            
Vna: chval, zval:    6.00000   6.00000

Vna:  Cut-off radius for the neutral-atom potential:   5.314825

atom: _________________________________________________________________________

<basis_specs>
===============================================================================
N                    Z=   7    Mass=  14.010        Charge= 0.17977+309
Lmxo=1 Lmxkb= 3    BasisType=split      Semic=F
L=0  Nsemic=0  Cnfigmx=2
          i=1  nzeta=2  polorb=0  (2s)
            splnorm:   0.28000    
               vcte:    0.0000    
               rinn:    0.0000    
               qcoe:    0.0000    
               qyuk:    0.0000    
               qwid:   0.10000E-01
                rcs:    0.0000      0.0000    
            lambdas:    1.0000      1.0000    
L=1  Nsemic=0  Cnfigmx=2
          i=1  nzeta=2  polorb=1  (2p)
            splnorm:   0.28000    
               vcte:    0.0000    
               rinn:    0.0000    
               qcoe:    0.0000    
               qyuk:    0.0000    
               qwid:   0.10000E-01
                rcs:    0.0000      0.0000    
            lambdas:    1.0000      1.0000    
-------------------------------------------------------------------------------
L=0  Nkbl=1  erefs: 0.17977+309
L=1  Nkbl=1  erefs: 0.17977+309
L=2  Nkbl=1  erefs: 0.17977+309
L=3  Nkbl=1  erefs: 0.17977+309
===============================================================================
</basis_specs>

atom: Called for N                     (Z =   7)

read_vps: Pseudopotential generation method:
read_vps: ATM4.2.7  Troullier-Martins                       
Valence charge for ps generation:    5.00000

xc_check: Exchange-correlation functional:
xc_check: GGA Perdew, Burke & Ernzerhof 1996
V l=0 = -2*Zval/r beyond r=  1.2889
V l=1 = -2*Zval/r beyond r=  1.2889
V l=2 = -2*Zval/r beyond r=  3.4178
V l=3 = -2*Zval/r beyond r=  2.4084
All V_l potentials equal beyond r=  3.3753
This should be close to max(r_c) in ps generation
All pots = -2*Zval/r beyond r=  3.4178

VLOCAL1: 99.0% of the norm of Vloc inside      3.810 Ry
VLOCAL1: 99.9% of the norm of Vloc inside      8.683 Ry
atom: Maximum radius for 4*pi*r*r*local-pseudopot. charge    4.02088
atom: Maximum radius for r*vlocal+2*Zval:    3.54838
GHOST: No ghost state for L =  0
GHOST: No ghost state for L =  1
GHOST: No ghost state for L =  2
GHOST: No ghost state for L =  3

KBgen: Kleinman-Bylander projectors: 
   l= 0   rc=  3.417763   el= -1.365098   Ekb= -4.433130   kbcos= -0.707855
   l= 1   rc=  3.375302   el= -0.521201   Ekb=-13.264039   kbcos= -0.535594
   l= 2   rc=  3.872880   el=  0.001991   Ekb= -0.641094   kbcos= -0.062456
   l= 3   rc=  3.970931   el=  0.003093   Ekb= -0.474517   kbcos= -0.018236

KBgen: Total number of Kleinman-Bylander projectors:   16
atom: -------------------------------------------------------------------------

atom: SANKEY-TYPE ORBITALS:
atom: Selected multiple-zeta basis: split     

SPLIT: Orbitals with angular momentum L= 0

SPLIT: Basis orbitals for state 2s

SPLIT: PAO cut-off radius determined from an
SPLIT: energy shift=  0.002000 Ry

   izeta = 1
                 lambda =    1.000000
                     rc =    4.730425
                 energy =   -1.363399
                kinetic =    1.245246
    potential(screened) =   -2.608645
       potential(ionic) =   -8.121105

   izeta = 2
                 rmatch =    2.531849
              splitnorm =    0.280000
                 energy =   -0.959908
                kinetic =    2.409435
    potential(screened) =   -3.369343
       potential(ionic) =   -9.427975

SPLIT: Orbitals with angular momentum L= 1

SPLIT: Basis orbitals for state 2p

SPLIT: PAO cut-off radius determined from an
SPLIT: energy shift=  0.002000 Ry

   izeta = 1
                 lambda =    1.000000
                     rc =    5.924108
                 energy =   -0.519262
                kinetic =    3.672940
    potential(screened) =   -4.192202
       potential(ionic) =   -9.518354

   izeta = 2
                 rmatch =    2.531849
              splitnorm =    0.280000
                 energy =   -0.104258
                kinetic =    6.807538
    potential(screened) =   -6.911796
       potential(ionic) =  -13.149920

POLgen: Perturbative polarization orbital with L=  2

POLgen: Polarization orbital for state 2p

   izeta = 1
                     rc =    5.924108
                 energy =    1.427508
                kinetic =    2.872379
    potential(screened) =   -1.444871
       potential(ionic) =   -5.563644
atom: Total number of Sankey-type orbitals: 13

atm_pop: Valence configuration (for local Pseudopot. screening):
 2s( 2.00)                                                            
 2p( 3.00)                                                            
Vna: chval, zval:    5.00000   5.00000

Vna:  Cut-off radius for the neutral-atom potential:   5.924108

atom: _________________________________________________________________________

<basis_specs>
===============================================================================
Si                   Z=  14    Mass=  28.090        Charge= 0.17977+309
Lmxo=1 Lmxkb= 3    BasisType=split      Semic=F
L=0  Nsemic=0  Cnfigmx=3
          i=1  nzeta=2  polorb=0  (3s)
            splnorm:   0.28000    
               vcte:    0.0000    
               rinn:    0.0000    
               qcoe:    0.0000    
               qyuk:    0.0000    
               qwid:   0.10000E-01
                rcs:    0.0000      0.0000    
            lambdas:    1.0000      1.0000    
L=1  Nsemic=0  Cnfigmx=3
          i=1  nzeta=2  polorb=1  (3p)
            splnorm:   0.28000    
               vcte:    0.0000    
               rinn:    0.0000    
               qcoe:    0.0000    
               qyuk:    0.0000    
               qwid:   0.10000E-01
                rcs:    0.0000      0.0000    
            lambdas:    1.0000      1.0000    
-------------------------------------------------------------------------------
L=0  Nkbl=1  erefs: 0.17977+309
L=1  Nkbl=1  erefs: 0.17977+309
L=2  Nkbl=1  erefs: 0.17977+309
L=3  Nkbl=1  erefs: 0.17977+309
===============================================================================
</basis_specs>

atom: Called for Si                    (Z =  14)

read_vps: Pseudopotential generation method:
read_vps: ATM4.2.7  Troullier-Martins                       
Valence charge for ps generation:    4.00000

xc_check: Exchange-correlation functional:
xc_check: GGA Perdew, Burke & Ernzerhof 1996
V l=0 = -2*Zval/r beyond r=  2.7826
V l=1 = -2*Zval/r beyond r=  2.7826
V l=2 = -2*Zval/r beyond r=  2.9253
V l=3 = -2*Zval/r beyond r=  2.7826
All V_l potentials equal beyond r=  2.8530
This should be close to max(r_c) in ps generation
All pots = -2*Zval/r beyond r=  2.9253

VLOCAL1: 99.0% of the norm of Vloc inside      5.333 Ry
VLOCAL1: 99.9% of the norm of Vloc inside     12.154 Ry
atom: Maximum radius for 4*pi*r*r*local-pseudopot. charge    3.39869
atom: Maximum radius for r*vlocal+2*Zval:    2.96205
GHOST: No ghost state for L =  0
GHOST: No ghost state for L =  1
GHOST: No ghost state for L =  2
GHOST: No ghost state for L =  3

KBgen: Kleinman-Bylander projectors: 
   l= 0   rc=  3.075247   el= -0.794092   Ekb=  5.879390   kbcos=  0.167461
   l= 1   rc=  3.153101   el= -0.300068   Ekb=  2.642817   kbcos=  0.058301
   l= 2   rc=  3.273594   el=  0.001958   Ekb= -1.185135   kbcos= -0.104411
   l= 3   rc=  3.232927   el=  0.003046   Ekb= -0.497174   kbcos= -0.015889

KBgen: Total number of Kleinman-Bylander projectors:   16
atom: -------------------------------------------------------------------------

atom: SANKEY-TYPE ORBITALS:
atom: Selected multiple-zeta basis: split     

SPLIT: Orbitals with angular momentum L= 0

SPLIT: Basis orbitals for state 3s

SPLIT: PAO cut-off radius determined from an
SPLIT: energy shift=  0.002000 Ry

   izeta = 1
                 lambda =    1.000000
                     rc =    6.429618
                 energy =   -0.792283
                kinetic =    0.525293
    potential(screened) =   -1.317576
       potential(ionic) =   -3.744923

   izeta = 2
                 rmatch =    3.998416
              splitnorm =    0.280000
                 energy =   -0.583081
                kinetic =    1.069570
    potential(screened) =   -1.652651
       potential(ionic) =   -4.235185

SPLIT: Orbitals with angular momentum L= 1

SPLIT: Basis orbitals for state 3p

SPLIT: PAO cut-off radius determined from an
SPLIT: energy shift=  0.002000 Ry

   izeta = 1
                 lambda =    1.000000
                     rc =    8.464845
                 energy =   -0.298236
                kinetic =    0.785360
    potential(screened) =   -1.083596
       potential(ionic) =   -3.273779

   izeta = 2
                 rmatch =    4.587816
              splitnorm =    0.280000
                 energy =   -0.131871
                kinetic =    1.403687
    potential(screened) =   -1.535557
       potential(ionic) =   -4.015310

POLgen: Perturbative polarization orbital with L=  2

POLgen: Polarization orbital for state 3p

   izeta = 1
                     rc =    8.464845
                 energy =    0.321949
                kinetic =    1.055677
    potential(screened) =   -0.733728
       potential(ionic) =   -2.672950
atom: Total number of Sankey-type orbitals: 13

atm_pop: Valence configuration (for local Pseudopot. screening):
 3s( 2.00)                                                            
 3p( 2.00)                                                            
Vna: chval, zval:    4.00000   4.00000

Vna:  Cut-off radius for the neutral-atom potential:   8.464845

atom: _________________________________________________________________________

<basis_specs>
===============================================================================
H                    Z=   1    Mass=  1.0100        Charge= 0.17977+309
Lmxo=0 Lmxkb= 2    BasisType=split      Semic=F
L=0  Nsemic=0  Cnfigmx=1
          i=1  nzeta=2  polorb=1  (1s)
            splnorm:   0.62000    
               vcte:    0.0000    
               rinn:    0.0000    
               qcoe:    0.0000    
               qyuk:    0.0000    
               qwid:   0.10000E-01
                rcs:    0.0000      0.0000    
            lambdas:    1.0000      1.0000    
-------------------------------------------------------------------------------
L=0  Nkbl=1  erefs: 0.17977+309
L=1  Nkbl=1  erefs: 0.17977+309
L=2  Nkbl=1  erefs: 0.17977+309
===============================================================================
</basis_specs>

atom: Called for H                     (Z =   1)

read_vps: Pseudopotential generation method:
read_vps: ATM4.2.7  Troullier-Martins                       
Valence charge for ps generation:    1.00000

xc_check: Exchange-correlation functional:
xc_check: GGA Perdew, Burke & Ernzerhof 1996
V l=0 = -2*Zval/r beyond r=  0.0098
V l=1 = -2*Zval/r beyond r=  0.5817
V l=2 = -2*Zval/r beyond r=  1.9372
All V_l potentials equal beyond r=  1.9372
This should be close to max(r_c) in ps generation
All pots = -2*Zval/r beyond r=  1.9372

VLOCAL1: 99.0% of the norm of Vloc inside     11.567 Ry
VLOCAL1: 99.9% of the norm of Vloc inside     26.362 Ry
atom: Maximum radius for 4*pi*r*r*local-pseudopot. charge    2.25106
atom: Maximum radius for r*vlocal+2*Zval:    1.91306
GHOST: No ghost state for L =  0
GHOST: No ghost state for L =  1
GHOST: No ghost state for L =  2

KBgen: Kleinman-Bylander projectors: 
   l= 0   rc=  2.036604   el= -0.477180   Ekb= -6.081590   kbcos= -0.277285
   l= 1   rc=  2.195416   el=  0.001076   Ekb= -0.926943   kbcos= -0.034643
   l= 2   rc=  2.251056   el=  0.002010   Ekb= -0.130941   kbcos= -0.009788

KBgen: Total number of Kleinman-Bylander projectors:    9
atom: -------------------------------------------------------------------------

atom: SANKEY-TYPE ORBITALS:
atom: Selected multiple-zeta basis: split     

SPLIT: Orbitals with angular momentum L= 0

SPLIT: Basis orbitals for state 1s

SPLIT: PAO cut-off radius determined from an
SPLIT: energy shift=  0.002000 Ry

   izeta = 1
                 lambda =    1.000000
                     rc =    6.518340
                 energy =   -0.475305
                kinetic =    0.912139
    potential(screened) =   -1.387444
       potential(ionic) =   -1.907295

   izeta = 2
                 rmatch =    2.141150
              splitnorm =    0.620000
                 energy =    0.566467
                kinetic =    3.772856
    potential(screened) =   -3.206389
       potential(ionic) =   -3.759093

POLgen: Perturbative polarization orbital with L=  1

POLgen: Polarization orbital for state 1s

   izeta = 1
                     rc =    6.518340
                 energy =    0.533861
                kinetic =    1.121086
    potential(screened) =   -0.587225
       potential(ionic) =   -1.053027
atom: Total number of Sankey-type orbitals:  5

atm_pop: Valence configuration (for local Pseudopot. screening):
 1s( 1.00)                                                            
Vna: chval, zval:    1.00000   1.00000

Vna:  Cut-off radius for the neutral-atom potential:   6.518340

atom: _________________________________________________________________________

prinput: Basis input ----------------------------------------------------------

PAO.BasisType split     

%block ChemicalSpeciesLabel
    1    8 O                       # Species index, atomic number, species label
    2    7 N                       # Species index, atomic number, species label
    3   14 Si                      # Species index, atomic number, species label
    4    1 H                       # Species index, atomic number, species label
%endblock ChemicalSpeciesLabel

%block PAO.Basis                 # Define Basis set
O                     2                    # Species label, number of l-shells
 n=2   0   2                         # n, l, Nzeta 
   4.244      2.188   
   1.000      1.000   
 n=2   1   2 P   1                   # n, l, Nzeta, Polarization, NzetaPol
   5.315      2.161   
   1.000      1.000   
N                     2                    # Species label, number of l-shells
 n=2   0   2                         # n, l, Nzeta 
   4.730      2.532   
   1.000      1.000   
 n=2   1   2 P   1                   # n, l, Nzeta, Polarization, NzetaPol
   5.924      2.532   
   1.000      1.000   
Si                    2                    # Species label, number of l-shells
 n=3   0   2                         # n, l, Nzeta 
   6.430      3.998   
   1.000      1.000   
 n=3   1   2 P   1                   # n, l, Nzeta, Polarization, NzetaPol
   8.465      4.588   
   1.000      1.000   
H                     1                    # Species label, number of l-shells
 n=1   0   2 P   1                   # n, l, Nzeta, Polarization, NzetaPol
   6.518      2.141   
   1.000      1.000   
%endblock PAO.Basis

prinput: ----------------------------------------------------------------------

Dumping basis to NetCDF file O.ion.nc
Dumping basis to NetCDF file N.ion.nc
Dumping basis to NetCDF file Si.ion.nc
Dumping basis to NetCDF file H.ion.nc
coor:   Atomic-coordinates input format  =     Cartesian coordinates
coor:                                          (in Angstroms)

siesta: Atomic coordinates (Bohr) and species
siesta:      1.61558   7.37525   0.00000  1        1
siesta:     -5.95545   1.55686   0.00000  2        2
siesta:      3.64437   2.21854   0.00000  2        3
siesta:      1.85174  -3.45872   0.00000  2        4
siesta:     -4.08041  -3.83238   0.00000  2        5
siesta:      7.15322  -2.10270   0.00000  2        6
siesta:     -2.54345   1.84485   0.00000  3        7
siesta:     -1.13278  -2.07129   0.00000  3        8
siesta:      0.85639   4.44182   0.00000  3        9
siesta:      4.03136  -1.08945   0.00000  3       10
siesta:     -6.64440  -1.59126   0.00000  3       11
siesta:      5.33759   3.31595   0.00000  4       12
siesta:     -9.21724  -2.77641   0.00000  4       13
siesta:      7.54937  -4.05007   0.00000  4       14
siesta:      8.73225  -0.91400   0.00000  4       15
siesta:     -4.30685  -5.82322   0.00000  4       16
siesta:     10.26788  10.31533  -0.00000  3       17
siesta:     13.79971  12.69571  -0.00000  3       18
siesta:     12.93245   5.13419  -0.00000  3       19
siesta:     16.83964   9.87096  -0.00000  3       20
siesta:     10.38038   7.13123  -0.00000  2       21
siesta:      7.18763  11.50597  -0.00000  2       22
siesta:     16.03895   6.62913  -0.00000  2       23
siesta:     14.32952  15.47403  -0.00000  4       24
siesta:     19.66556  10.28453  -0.00000  4       25
siesta:      6.72567  13.43059  -0.00000  4       26
siesta:      5.62532  10.26470  -0.00000  4       27
siesta:     13.04447   2.14381  -0.00000  1       28
siesta:     17.49717   5.25536  -0.00000  4       29

siesta: Automatic unit cell vectors (Ang):
siesta:   24.401105    0.000000    0.000000
siesta:    0.000000   19.985598    0.000000
siesta:    0.000000    0.000000    9.854683

siesta: System type = molecule  

initatomlists: Number of atoms, orbitals, and projectors:     29   297   394

siesta: ******************** Simulation parameters ****************************
siesta:
siesta: The following are some of the parameters of the simulation.
siesta: A complete list of the parameters used, including default values,
siesta: can be found in file out.fdf
siesta:
redata: Spin configuration                          = spin-orbit
redata: Number of spin components                   = 8
redata: Time-Reversal Symmetry                      = F
redata: Spin spiral                                 = F
############################################################
This spin-orbit implementation uses a local approximation.
From 4.2 and onwards the full non-local approximation is implemented
You are strongly advised to use >=4.2 versions!
############################################################
redata: Long output                                 =   F
redata: Number of Atomic Species                    =        4
redata: Charge density info will appear in .RHO file
redata: Write Mulliken Pop.                         = Atomic and Orbital charges
redata: Matel table size (NRTAB)                    =     1024
redata: Mesh Cutoff                                 =   340.0000 Ry
redata: Net charge of the system                    =     0.0000 |e|
redata: Min. number of SCF Iter                     =        1
redata: Max. number of SCF Iter                     =      200
redata: SCF mix quantity                            = Hamiltonian
redata: Mix DM or H after convergence               =   F
redata: Recompute H after scf cycle                 =   F
redata: Mix DM in first SCF step                    =   T
redata: Write Pulay info on disk                    =   F
redata: New DM Occupancy tolerance                  = 0.000000000001
redata: No kicks to SCF
redata: DM Mixing Weight for Kicks                  =     0.5000
redata: Require Harris convergence for SCF          =   F
redata: Harris energy tolerance for SCF             =     0.000100 eV
redata: Require DM convergence for SCF              =   T
redata: DM tolerance for SCF                        =     0.000008
redata: Require EDM convergence for SCF             =   F
redata: EDM tolerance for SCF                       =     0.001000 eV
redata: Require H convergence for SCF               =   T
redata: Hamiltonian tolerance for SCF               =     0.000001 eV
redata: Require (free) Energy convergence for SCF   =   F
redata: (free) Energy tolerance for SCF             =     0.000100 eV
redata: Using Saved Data (generic)                  =   F
redata: Use continuation files for DM               =   F
redata: Neglect nonoverlap interactions             =   F
redata: Method of Calculation                       = Diagonalization
redata: Electronic Temperature                      =   299.9978 K
redata: Fix the spin of the system                  =   F
redata: Dynamics option                             = Single-point calculation
mix.SCF: Pulay mixing                            = Pulay
mix.SCF:    Variant                              = stable
mix.SCF:    History steps                        = 6
mix.SCF:    Linear mixing weight                 =     0.250000
mix.SCF:    Mixing weight                        =     0.250000
mix.SCF:    SVD condition                        = 0.1000E-07
mix.SCF:    Restart steps                        = 24
mix.SCF:    Restart save steps                   = 3
mix.SCF: Spin-component mixing                   all
redata: Save all siesta data in one NC              =   F
redata: ***********************************************************************

%block SCF.Mixers
  Pulay
%endblock SCF.Mixers

%block SCF.Mixer.Pulay
  # Mixing method
  method pulay
  variant stable

  # Mixing options
  weight 0.2500
  weight.linear 0.2500
  history 6
  restart 24
  restart.save 3
%endblock SCF.Mixer.Pulay

DM_history_depth set to one: no extrapolation allowed by default for geometry relaxation
Size of DM history Fstack: 1
Total number of electrons:    98.000000
Total ionic charge:    98.000000

* ProcessorY, Blocksize:    2  24


* Orbital distribution balance (max,min):    81    72


Time-reversal symmetry not used.

siesta: k-grid: Number of k-points =     1
siesta: k-grid: Cutoff (effective) =     4.927 Ang
siesta: k-grid: Supercell and displacements
siesta: k-grid:    1   0   0      0.000
siesta: k-grid:    0   1   0      0.000
siesta: k-grid:    0   0   1      0.000

diag: Algorithm                                     = ELPA-1stage
diag: Parallel over k                               =   F
diag: Use parallel 2D distribution                  =   T
diag: Parallel block-size                           = 24
diag: Parallel distribution                         =     2 x     2
diag: Used triangular part                          = Lower
diag: Absolute tolerance                            =  0.100E-15
diag: Orthogonalization factor                      =  0.100E-05
diag: Memory factor                                 =  1.0000


ts: **************************************************************
ts: Save H and S matrices                           =    F
ts: Save DM and EDM matrices                        =    F
ts: Only save the overlap matrix S                  =    F
ts: **************************************************************

************************ Begin: TS CHECKS AND WARNINGS ************************
************************ End: TS CHECKS AND WARNINGS **************************


                     ====================================
                        Single-point calculation
                     ====================================

outcoor: Atomic coordinates (Ang):                          
    0.85492771    3.90281136    0.00000000   1       1  O
   -3.15148660    0.82385413    0.00000000   2       2  N
    1.92851868    1.17400090    0.00000000   2       3  N
    0.97989950   -1.83027589    0.00000000   2       4  N
   -2.15925893   -2.02800480    0.00000000   2       5  N
    3.78531977   -1.11270066    0.00000000   2       6  N
   -1.34593381    0.97625025    0.00000000   3       7  Si
   -0.59943988   -1.09607717    0.00000000   3       8  Si
    0.45318289    2.35051023    0.00000000   3       9  Si
    2.13330203   -0.57651080    0.00000000   3      10  Si
   -3.51606566   -0.84205651    0.00000000   3      11  Si
    2.82452783    1.75472311    0.00000000   4      12  H
   -4.87755169   -1.46921466    0.00000000   4      13  H
    3.99495202   -2.14320400    0.00000000   4      14  H
    4.62090361   -0.48366606    0.00000000   4      15  H
   -2.27908518   -3.08151409    0.00000000   4      16  H
    5.43352850    5.45863329    0.00000000   3      17  Si
    7.30248799    6.71827692    0.00000000   3      18  Si
    6.84355561    2.71689507    0.00000000   3      19  Si
    8.91114833    5.22348629    0.00000000   3      20  Si
    5.49305845    3.77368083    0.00000000   2      21  N
    3.80352930    6.08869352    0.00000000   2      22  N
    8.48744448    3.50798548    0.00000000   2      23  N
    7.58285169    8.18849944    0.00000000   4      24  H
   10.40655971    5.44233883    0.00000000   4      25  H
    3.55907031    7.10715947    0.00000000   4      26  H
    2.97678812    5.43184539    0.00000000   4      27  H
    6.90283137    1.13445304    0.00000000   1      28  O
    9.25910007    2.78101812    0.00000000   4      29  H

outcell: Unit cell vectors (Ang):
       24.401105    0.000000    0.000000
        0.000000   19.985598    0.000000
        0.000000    0.000000    9.854683

outcell: Cell vector modules (Ang)   :   24.401105   19.985598    9.854683
outcell: Cell angles (23,13,12) (deg):     90.0000     90.0000     90.0000
outcell: Cell volume (Ang**3)        :   4805.8400
<dSpData1D:S at geom step 0
  <sparsity:sparsity for geom step 0
    nrows_g=297 nrows=81 sparsity=.2068 nnzs=18246, refcount: 8>
  <dData1D:(new from dSpData1D) n=18246, refcount: 1>
refcount: 1>
new_DM -- step:     1
Initializing Density Matrix...
DM filled with atomic data:
<dSpData2D:DM initialized from atoms
  <sparsity:sparsity for geom step 0
    nrows_g=297 nrows=81 sparsity=.2068 nnzs=18246, refcount: 9>
  <dData2D:DM n=18246 m=8, refcount: 1>
refcount: 1>
     spin moment: S , {S} =   56.00000   0.00000   0.00000  56.00000
No. of atoms with KB's overlaping orbs in proc 0. Max # of overlaps:      29     176

Initializing spin-orbit part of the Hamiltonian
  Adding spin-orbit effects for O 
  Adding spin-orbit effects for N 
  Adding spin-orbit effects for Si
  Adding spin-orbit effects for H 


New grid distribution:   1
           1       1:  144    1:   60    1:   30
           2       1:  144    1:   60   31:   60
           3       1:  144   61:  120    1:   30
           4       1:  144   61:  120   31:   60

InitMesh: MESH =   288 x   240 x   120 =     8294400
InitMesh: (bp) =   144 x   120 x    60 =     1036800
InitMesh: Mesh cutoff (required, used) =   340.000   385.006 Ry
ExtMesh (bp) on 0 =   252 x   168 x   142 =     6011712
New grid distribution:   2
           1      39:  144    1:   30    1:   60
           2       1:   38    1:   28    1:   60
           3      39:  144   31:  120    1:   60
           4       1:   38   29:  120    1:   60
New grid distribution:   3
           1      48:  144    1:   36    1:   60
           2       1:   47    1:   40    1:   60
           3      48:  144   37:  120    1:   60
           4       1:   47   41:  120    1:   60
Setting up quadratic distribution...
ExtMesh (bp) on 0 =   214 x   138 x   172 =     5079504
PhiOnMesh: Number of (b)points on node 0 =               190800
PhiOnMesh: nlist on node 0 =              2801693

stepf: Fermi-Dirac step function

siesta: Program's energy decomposition (eV):
siesta: Ebs     =      -612.042532
siesta: Eions   =      3585.165840
siesta: Ena     =       384.910448
siesta: Ekin    =      3373.003201
siesta: Enl     =     -3305.191041
siesta: Eso     =        -0.003388
siesta: Edftu   =         0.000000
siesta: DEna    =       154.460397
siesta: DUscf   =        80.737325
siesta: DUext   =         0.000000
siesta: Exc     =     -1204.620839
siesta: eta*DQ  =         0.000000
siesta: Emadel  =         0.000000
siesta: Emeta   =         0.000000
siesta: Emolmec =         0.000000
siesta: Ekinion =         0.000000
siesta: Eharris =     -4024.463117
siesta: Etot    =     -4101.869737
siesta: FreeEng =     -4101.871214

        iscf     Eharris(eV)        E_KS(eV)     FreeEng(eV)     dDmax    Ef(eV) dHmax(eV)
   scf:    1    -4024.463117    -4101.869737    -4101.871214  0.962411 -4.889725 21.260924
     spin moment: S , {S} =    2.00777   0.00000   0.00000   2.00777
timer: Routine,Calls,Time,% = IterSCF        1      14.151  18.36
   scf:    2    -4149.749409    -4137.598881    -4137.603329  0.463516 -4.216129 11.316971
     spin moment: S , {S} =    1.96687  -0.00000   0.00000   1.96687
   scf:    3    -4112.061172    -4135.320216    -4135.343018  0.434893 -4.312163 11.277741
     spin moment: S , {S} =    2.00300   0.00000  -0.00000   2.00300
   scf:    4    -4150.306924    -4145.797299    -4145.797299  0.287722 -3.939703  5.887321
     spin moment: S , {S} =    0.00010  -0.00000   0.00000   0.00010
   scf:    5    -4146.986488    -4146.488926    -4146.488926  0.037602 -3.726109  4.158274
     spin moment: S , {S} =    0.00006   0.00000   0.00000   0.00006
   scf:    6    -4147.221362    -4146.860120    -4146.860120  0.024623 -3.661067  2.090187
     spin moment: S , {S} =    0.00003   0.00000   0.00000   0.00003
   scf:    7    -4147.210294    -4147.033234    -4147.033234  0.022192 -3.663696  0.888683
     spin moment: S , {S} =    0.00001   0.00000   0.00000   0.00001
   scf:    8    -4147.152425    -4147.091080    -4147.091080  0.012468 -3.769044  0.488841
     spin moment: S , {S} =    0.00000  -0.00000  -0.00000   0.00000
   scf:    9    -4147.131930    -4147.110787    -4147.110787  0.007053 -3.802919  0.331745
     spin moment: S , {S} =    0.00000  -0.00000  -0.00000   0.00000
   scf:   10    -4147.161304    -4147.131179    -4147.131179  0.019120 -3.812286  0.177286
     spin moment: S , {S} =    0.00000   0.00000   0.00000  -0.00000
   scf:   11    -4147.134284    -4147.132669    -4147.132669  0.005300 -3.800452  0.047425
     spin moment: S , {S} =    0.00000   0.00000   0.00000  -0.00000
   scf:   12    -4147.133437    -4147.133064    -4147.133064  0.001423 -3.797709  0.027238
     spin moment: S , {S} =    0.00000   0.00000   0.00000   0.00000
   scf:   13    -4147.133469    -4147.133258    -4147.133258  0.001641 -3.794425  0.020698
     spin moment: S , {S} =    0.00000   0.00000   0.00000   0.00000
   scf:   14    -4147.133542    -4147.133390    -4147.133390  0.001601 -3.794994  0.016109
     spin moment: S , {S} =    0.00000  -0.00000   0.00000   0.00000
   scf:   15    -4147.133582    -4147.133476    -4147.133476  0.001584 -3.794427  0.011412
     spin moment: S , {S} =    0.00000  -0.00000   0.00000   0.00000
   scf:   16    -4147.133603    -4147.133528    -4147.133528  0.001615 -3.794191  0.006486
     spin moment: S , {S} =    0.00000  -0.00000   0.00000   0.00000
   scf:   17    -4147.133562    -4147.133542    -4147.133542  0.000846 -3.794302  0.003850
     spin moment: S , {S} =    0.00000  -0.00000   0.00000   0.00000
   scf:   18    -4147.133553    -4147.133547    -4147.133547  0.000486 -3.794336  0.001656
     spin moment: S , {S} =    0.00000  -0.00000   0.00000   0.00000
   scf:   19    -4147.133550    -4147.133548    -4147.133548  0.000235 -3.794342  0.000876
     spin moment: S , {S} =    0.00000  -0.00000   0.00000   0.00000
   scf:   20    -4147.133548    -4147.133548    -4147.133548  0.000085 -3.794344  0.000562
     spin moment: S , {S} =    0.00000  -0.00000   0.00000   0.00000
   scf:   21    -4147.133549    -4147.133548    -4147.133548  0.000076 -3.794355  0.000253
     spin moment: S , {S} =    0.00000  -0.00000   0.00000   0.00000
   scf:   22    -4147.133548    -4147.133548    -4147.133548  0.000036 -3.794364  0.000122
     spin moment: S , {S} =    0.00000  -0.00000   0.00000   0.00000
   scf:   23    -4147.133548    -4147.133548    -4147.133548  0.000004 -3.794367  0.000107
     spin moment: S , {S} =    0.00000  -0.00000   0.00000  -0.00000
   scf:   24    -4147.133548    -4147.133548    -4147.133548  0.000006 -3.794367  0.000104
     spin moment: S , {S} =    0.00000  -0.00000   0.00000  -0.00000
mix: Pulay -- resetting history
   scf:   25    -4147.133548    -4147.133548    -4147.133548  0.000008 -3.794364  0.000067
     spin moment: S , {S} =    0.00000  -0.00000   0.00000  -0.00000
   scf:   26    -4147.133548    -4147.133548    -4147.133548  0.000007 -3.794362  0.000044
     spin moment: S , {S} =    0.00000  -0.00000   0.00000  -0.00000
   scf:   27    -4147.133548    -4147.133548    -4147.133548  0.000005 -3.794360  0.000029
     spin moment: S , {S} =    0.00000  -0.00000   0.00000  -0.00000
   scf:   28    -4147.133548    -4147.133548    -4147.133548  0.000005 -3.794359  0.000012
     spin moment: S , {S} =    0.00000  -0.00000   0.00000  -0.00000
   scf:   29    -4147.133548    -4147.133548    -4147.133548  0.000001 -3.794359  0.000007
     spin moment: S , {S} =    0.00000  -0.00000   0.00000  -0.00000
   scf:   30    -4147.133548    -4147.133548    -4147.133548  0.000001 -3.794360  0.000002
     spin moment: S , {S} =    0.00000  -0.00000   0.00000   0.00000
   scf:   31    -4147.133548    -4147.133548    -4147.133548  0.000001 -3.794360  0.000001
     spin moment: S , {S} =    0.00000  -0.00000   0.00000   0.00000

SCF Convergence by DM+H criterion
max |DM_out - DM_in|         :     0.0000005253
max |H_out - H_in|      (eV) :     0.0000009691
SCF cycle converged after 31 iterations

Using DM_out to compute the final energy and forces
No. of atoms with KB's overlaping orbs in proc 0. Max # of overlaps:      29     176

siesta: E_KS(eV) =            -4147.1335

siesta: E_KS - E_eggbox =     -4147.1335
     spin moment: S , {S} =    0.00000  -0.00000   0.00000   0.00000

siesta: Atomic forces (eV/Ang):
     1   -1.131905    1.243284   -0.000000
     2   -0.041655   -0.031239    0.000000
     3   -0.250207    0.176905    0.000000
     4   -0.261860   -0.047255   -0.000000
     5   -0.019084    0.001904    0.000000
     6   -0.282523   -0.003452    0.000000
     7   -0.020065    0.067810    0.000000
     8    0.168066   -0.048613    0.000000
     9    0.176345   -0.331849   -0.000000
    10    0.478110   -0.014835    0.000000
    11   -0.021229    0.032903   -0.000000
    12   -0.061032   -0.062510   -0.000000
    13    0.007294    0.079448   -0.000000
    14   -0.053126   -0.041024   -0.000000
    15    0.436292    0.258109    0.000000
    16   -0.098270    0.159868   -0.000000
    17   -0.419726    0.264481    0.000000
    18    0.071008   -0.059801    0.000000
    19    0.019609    0.445704   -0.000000
    20   -0.023266    0.124235   -0.000000
    21    0.129364   -0.376771    0.000000
    22    0.331793   -0.006981   -0.000000
    23   -0.059098   -0.184522    0.000000
    24   -0.041682    0.071885    0.000000
    25   -0.068086   -0.045390   -0.000000
    26   -0.030432    0.096125   -0.000000
    27   -0.290652   -0.241537    0.000000
    28   -0.778890    1.595822    0.000000
    29    0.047975    0.023852    0.000000
----------------------------------------
   Tot   -2.086932    3.146555   -0.000000
----------------------------------------
   Max    1.595822
   Res    0.301173    sqrt( Sum f_i^2 / 3N )
----------------------------------------
   Max    1.595822    constrained

Stress tensor Voigt[x,y,z,yz,xz,xy] (kbar):        0.80        0.20       -0.09        0.00       -0.00        0.52
(Free)E + p*V (eV/cell)    -4148.0413
Target enthalpy (eV/cell)    -4147.1335

mulliken: Atomic and Orbital Populations:

Species: O                   

Atom      Orb        Charge      Spin       Svec
----------------------------------------------------------------
    1  1 2s         1.74623   0.00000      0.000  -0.000   0.000
    1  2 2s         0.06451   0.00000     -0.000   0.000   0.000
    1  3 2py        1.43186   0.00000     -0.000   0.000   0.000
    1  4 2pz        1.56200   0.00000     -0.000  -0.000   0.000
    1  5 2px        1.62509   0.00000      0.000   0.000  -0.000
    1  6 2py        0.04250   0.00000      0.000  -0.000   0.000
    1  7 2pz       -0.00697   0.00000      0.000   0.000   0.000
    1  8 2px        0.00296   0.00000     -0.000  -0.000   0.000
    1  9 3Pdxy      0.00693   0.00000      0.000   0.000   0.000
    1 10 3Pdyz      0.00894   0.00000      0.000  -0.000  -0.000
    1 11 3Pdz2      0.00152   0.00000     -0.000   0.000  -0.000
    1 12 3Pdxz      0.00034   0.00000     -0.000   0.000   0.000
    1 13 3Pdx2-y2   0.00677   0.00000      0.000   0.000  -0.000
    1     Total     6.49269   0.00000      0.000   0.000   0.000

   28  1 2s         1.73967   0.00000      0.000   0.000   0.000
   28  2 2s         0.06576   0.00000     -0.000  -0.000   0.000
   28  3 2py        1.42549   0.00000     -0.000  -0.000   0.000
   28  4 2pz        1.55507   0.00000      0.000  -0.000   0.000
   28  5 2px        1.63762   0.00000      0.000   0.000   0.000
   28  6 2py        0.04468   0.00000      0.000   0.000   0.000
   28  7 2pz       -0.00562   0.00000      0.000   0.000   0.000
   28  8 2px        0.01042   0.00000     -0.000   0.000   0.000
   28  9 3Pdxy      0.00686   0.00000     -0.000  -0.000   0.000
   28 10 3Pdyz      0.01002   0.00000     -0.000   0.000  -0.000
   28 11 3Pdz2      0.00114   0.00000      0.000  -0.000   0.000
   28 12 3Pdxz     -0.00015   0.00000     -0.000  -0.000  -0.000
   28 13 3Pdx2-y2   0.00758   0.00000      0.000  -0.000  -0.000
   28     Total     6.49854   0.00000      0.000  -0.000   0.000

----------------------------------------------------------------
Total              12.99122   0.00000      0.000  -0.000   0.000


Species: N                   

Atom      Orb        Charge      Spin       Svec
----------------------------------------------------------------
    2  1 2s         1.54874   0.00000     -0.000  -0.000  -0.000
    2  2 2s         0.08464   0.00000      0.000   0.000  -0.000
    2  3 2py        1.03208   0.00000      0.000  -0.000  -0.000
    2  4 2pz        1.22404   0.00000     -0.000  -0.000  -0.000
    2  5 2px        1.00696   0.00000     -0.000  -0.000  -0.000
    2  6 2py        0.19262   0.00000     -0.000   0.000   0.000
    2  7 2pz        0.05445   0.00000     -0.000   0.000   0.000
    2  8 2px        0.19055   0.00000     -0.000   0.000   0.000
    2  9 3Pdxy      0.00840   0.00000      0.000  -0.000   0.000
    2 10 3Pdyz      0.01081   0.00000     -0.000  -0.000   0.000
    2 11 3Pdz2      0.00194   0.00000      0.000   0.000   0.000
    2 12 3Pdxz      0.00754   0.00000      0.000   0.000   0.000
    2 13 3Pdx2-y2   0.00891   0.00000     -0.000   0.000  -0.000
    2     Total     5.37166   0.00000     -0.000  -0.000  -0.000

    3  1 2s         1.40015   0.00000      0.000  -0.000  -0.000
    3  2 2s         0.11760   0.00000     -0.000   0.000   0.000
    3  3 2py        0.93922   0.00000      0.000  -0.000   0.000
    3  4 2pz        1.53925   0.00000     -0.000   0.000   0.000
    3  5 2px        1.09909   0.00000      0.000   0.000   0.000
    3  6 2py        0.24924   0.00000     -0.000   0.000   0.000
    3  7 2pz        0.00748   0.00000      0.000  -0.000   0.000
    3  8 2px        0.16949   0.00000     -0.000  -0.000   0.000
    3  9 3Pdxy      0.00415   0.00000      0.000   0.000   0.000
    3 10 3Pdyz      0.00405   0.00000     -0.000  -0.000  -0.000
    3 11 3Pdz2      0.00077   0.00000      0.000   0.000  -0.000
    3 12 3Pdxz      0.00260   0.00000     -0.000   0.000  -0.000
    3 13 3Pdx2-y2   0.00288   0.00000     -0.000  -0.000  -0.000
    3     Total     5.53596   0.00000      0.000  -0.000   0.000

    4  1 2s         1.46958   0.00000     -0.000   0.000   0.000
    4  2 2s         0.11660   0.00000      0.000  -0.000   0.000
    4  3 2py        1.10398   0.00000     -0.000   0.000   0.000
    4  4 2pz        1.29278   0.00000      0.000  -0.000   0.000
    4  5 2px        0.84155   0.00000     -0.000  -0.000   0.000
    4  6 2py        0.15608   0.00000      0.000  -0.000   0.000
    4  7 2pz        0.05334   0.00000     -0.000   0.000   0.000
    4  8 2px        0.28662   0.00000      0.000   0.000   0.000
    4  9 3Pdxy      0.00857   0.00000      0.000   0.000   0.000
    4 10 3Pdyz      0.01078   0.00000     -0.000   0.000  -0.000
    4 11 3Pdz2      0.00132   0.00000      0.000  -0.000   0.000
    4 12 3Pdxz      0.00489   0.00000      0.000  -0.000   0.000
    4 13 3Pdx2-y2   0.00853   0.00000      0.000  -0.000  -0.000
    4     Total     5.35461   0.00000     -0.000  -0.000   0.000

    5  1 2s         1.37339   0.00000     -0.000   0.000  -0.000
    5  2 2s         0.12906   0.00000      0.000  -0.000   0.000
    5  3 2py        1.02651   0.00000     -0.000  -0.000  -0.000
    5  4 2pz        1.50106   0.00000     -0.000   0.000  -0.000
    5  5 2px        1.05900   0.00000     -0.000   0.000  -0.000
    5  6 2py        0.20359   0.00000     -0.000   0.000   0.000
    5  7 2pz        0.01351   0.00000      0.000  -0.000   0.000
    5  8 2px        0.20260   0.00000      0.000  -0.000   0.000
    5  9 3Pdxy      0.00368   0.00000      0.000   0.000  -0.000
    5 10 3Pdyz      0.00250   0.00000     -0.000   0.000   0.000
    5 11 3Pdz2      0.00138   0.00000     -0.000   0.000   0.000
    5 12 3Pdxz      0.00678   0.00000      0.000   0.000   0.000
    5 13 3Pdx2-y2   0.00571   0.00000     -0.000  -0.000   0.000
    5     Total     5.52876   0.00000     -0.000   0.000  -0.000

    6  1 2s         1.26319   0.00000      0.000   0.000  -0.000
    6  2 2s         0.18171   0.00000     -0.000  -0.000   0.000
    6  3 2py        1.08181   0.00000      0.000   0.000  -0.000
    6  4 2pz        1.56569   0.00000      0.000   0.000  -0.000
    6  5 2px        0.97727   0.00000     -0.000   0.000  -0.000
    6  6 2py        0.18841   0.00000     -0.000  -0.000   0.000
    6  7 2pz        0.02941   0.00000     -0.000  -0.000   0.000
    6  8 2px        0.25221   0.00000      0.000   0.000   0.000
    6  9 3Pdxy      0.00232   0.00000     -0.000  -0.000   0.000
    6 10 3Pdyz      0.00008   0.00000      0.000  -0.000  -0.000
    6 11 3Pdz2      0.00155   0.00000     -0.000  -0.000   0.000
    6 12 3Pdxz      0.00298   0.00000      0.000   0.000  -0.000
    6 13 3Pdx2-y2   0.00309   0.00000      0.000  -0.000   0.000
    6     Total     5.54972   0.00000      0.000   0.000  -0.000

   21  1 2s         1.40544   0.00000      0.000  -0.000   0.000
   21  2 2s         0.13456   0.00000     -0.000   0.000   0.000
   21  3 2py        0.87316   0.00000     -0.000   0.000   0.000
   21  4 2pz        1.30099   0.00000      0.000  -0.000   0.000
   21  5 2px        1.16146   0.00000      0.000  -0.000   0.000
   21  6 2py        0.28081   0.00000      0.000  -0.000   0.000
   21  7 2pz        0.04865   0.00000      0.000   0.000   0.000
   21  8 2px        0.16250   0.00000     -0.000   0.000   0.000
   21  9 3Pdxy      0.00628   0.00000      0.000   0.000   0.000
   21 10 3Pdyz      0.00500   0.00000     -0.000  -0.000  -0.000
   21 11 3Pdz2     -0.00012   0.00000      0.000   0.000   0.000
   21 12 3Pdxz      0.00585   0.00000      0.000   0.000  -0.000
   21 13 3Pdx2-y2   0.00570   0.00000     -0.000   0.000  -0.000
   21     Total     5.39027   0.00000      0.000  -0.000   0.000

   22  1 2s         1.28167   0.00000      0.000  -0.000  -0.000
   22  2 2s         0.17371   0.00000     -0.000   0.000  -0.000
   22  3 2py        1.07450   0.00000      0.000  -0.000  -0.000
   22  4 2pz        1.54391   0.00000     -0.000   0.000  -0.000
   22  5 2px        1.01041   0.00000      0.000   0.000  -0.000
   22  6 2py        0.19363   0.00000     -0.000   0.000   0.000
   22  7 2pz        0.02802   0.00000      0.000   0.000   0.000
   22  8 2px        0.23140   0.00000     -0.000  -0.000   0.000
   22  9 3Pdxy      0.00326   0.00000     -0.000   0.000  -0.000
   22 10 3Pdyz      0.00009   0.00000      0.000   0.000  -0.000
   22 11 3Pdz2      0.00244   0.00000     -0.000   0.000   0.000
   22 12 3Pdxz      0.00296   0.00000     -0.000   0.000  -0.000
   22 13 3Pdx2-y2   0.00337   0.00000      0.000  -0.000  -0.000
   22     Total     5.54937   0.00000      0.000   0.000  -0.000

   23  1 2s         1.39056   0.00000     -0.000  -0.000  -0.000
   23  2 2s         0.12083   0.00000      0.000   0.000  -0.000
   23  3 2py        0.99647   0.00000      0.000   0.000  -0.000
   23  4 2pz        1.52340   0.00000     -0.000  -0.000  -0.000
   23  5 2px        1.07275   0.00000     -0.000   0.000  -0.000
   23  6 2py        0.22198   0.00000     -0.000   0.000   0.000
   23  7 2pz        0.00508   0.00000     -0.000  -0.000   0.000
   23  8 2px        0.19264   0.00000      0.000   0.000   0.000
   23  9 3Pdxy      0.00528   0.00000      0.000  -0.000   0.000
   23 10 3Pdyz      0.00453   0.00000     -0.000   0.000  -0.000
   23 11 3Pdz2      0.00062   0.00000     -0.000   0.000   0.000
   23 12 3Pdxz      0.00230   0.00000      0.000  -0.000  -0.000
   23 13 3Pdx2-y2   0.00122   0.00000     -0.000  -0.000  -0.000
   23     Total     5.53766   0.00000     -0.000  -0.000  -0.000

----------------------------------------------------------------
Total              56.80924   0.00000      0.000  -0.000  -0.000


Species: Si                  

Atom      Orb        Charge      Spin       Svec
----------------------------------------------------------------
    7  1 3s         0.68833   0.00000     -0.000   0.000   0.000
    7  2 3s         0.35784   0.00000      0.000  -0.000   0.000
    7  3 3py        0.46739   0.00000     -0.000  -0.000   0.000
    7  4 3pz        0.70444   0.00000      0.000  -0.000   0.000
    7  5 3px        0.13448   0.00000     -0.000   0.000   0.000
    7  6 3py        0.27628   0.00000      0.000   0.000   0.000
    7  7 3pz        0.25812   0.00000     -0.000   0.000   0.000
    7  8 3px        0.42307   0.00000      0.000  -0.000   0.000
    7  9 3Pdxy      0.24272   0.00000     -0.000   0.000   0.000
    7 10 3Pdyz      0.03010   0.00000     -0.000   0.000   0.000
    7 11 3Pdz2      0.01197   0.00000      0.000  -0.000   0.000
    7 12 3Pdxz      0.13855   0.00000      0.000  -0.000  -0.000
    7 13 3Pdx2-y2   0.11339   0.00000     -0.000  -0.000   0.000
    7     Total     3.84669   0.00000     -0.000   0.000   0.000

    8  1 3s         0.64780   0.00000     -0.000   0.000   0.000
    8  2 3s         0.37126   0.00000      0.000  -0.000   0.000
    8  3 3py        0.38823   0.00000      0.000   0.000  -0.000
    8  4 3pz        0.51904   0.00000      0.000  -0.000   0.000
    8  5 3px       -0.02940   0.00000      0.000   0.000  -0.000
    8  6 3py        0.30381   0.00000      0.000  -0.000   0.000
    8  7 3pz        0.20355   0.00000      0.000  -0.000   0.000
    8  8 3px        0.52028   0.00000     -0.000  -0.000   0.000
    8  9 3Pdxy      0.25985   0.00000      0.000  -0.000  -0.000
    8 10 3Pdyz      0.11039   0.00000      0.000  -0.000   0.000
    8 11 3Pdz2      0.01304   0.00000      0.000  -0.000   0.000
    8 12 3Pdxz      0.15703   0.00000     -0.000  -0.000   0.000
    8 13 3Pdx2-y2   0.18847   0.00000      0.000   0.000   0.000
    8     Total     3.65336   0.00000      0.000  -0.000   0.000

    9  1 3s         0.62820   0.00000      0.000   0.000  -0.000
    9  2 3s         0.35758   0.00000     -0.000   0.000  -0.000
    9  3 3py        0.09564   0.00000     -0.000  -0.000  -0.000
    9  4 3pz        0.48193   0.00000     -0.000   0.000  -0.000
    9  5 3px        0.36748   0.00000     -0.000  -0.000  -0.000
    9  6 3py        0.42895   0.00000      0.000   0.000  -0.000
    9  7 3pz        0.18364   0.00000     -0.000  -0.000  -0.000
    9  8 3px        0.27036   0.00000     -0.000  -0.000   0.000
    9  9 3Pdxy      0.30859   0.00000     -0.000   0.000  -0.000
    9 10 3Pdyz      0.19278   0.00000      0.000   0.000  -0.000
    9 11 3Pdz2      0.01478   0.00000     -0.000  -0.000  -0.000
    9 12 3Pdxz      0.09082   0.00000     -0.000   0.000  -0.000
    9 13 3Pdx2-y2   0.15668   0.00000      0.000  -0.000  -0.000
    9     Total     3.57744   0.00000     -0.000   0.000  -0.000

   10  1 3s         0.48113   0.00000     -0.000   0.000  -0.000
   10  2 3s         0.38075   0.00000      0.000  -0.000   0.000
   10  3 3py        0.23763   0.00000     -0.000   0.000  -0.000
   10  4 3pz        0.40920   0.00000     -0.000  -0.000  -0.000
   10  5 3px        0.10244   0.00000     -0.000  -0.000  -0.000
   10  6 3py        0.33537   0.00000      0.000  -0.000   0.000
   10  7 3pz        0.22066   0.00000     -0.000   0.000  -0.000
   10  8 3px        0.42524   0.00000      0.000   0.000  -0.000
   10  9 3Pdxy      0.16369   0.00000     -0.000  -0.000  -0.000
   10 10 3Pdyz      0.14645   0.00000      0.000   0.000  -0.000
   10 11 3Pdz2      0.01106   0.00000      0.000   0.000  -0.000
   10 12 3Pdxz      0.17154   0.00000     -0.000  -0.000  -0.000
   10 13 3Pdx2-y2   0.32051   0.00000      0.000  -0.000  -0.000
   10     Total     3.40567   0.00000     -0.000   0.000  -0.000

   11  1 3s         0.55887   0.00000      0.000   0.000   0.000
   11  2 3s         0.38178   0.00000     -0.000  -0.000   0.000
   11  3 3py        0.30499   0.00000      0.000  -0.000   0.000
   11  4 3pz        0.54451   0.00000      0.000   0.000   0.000
   11  5 3px        0.13952   0.00000     -0.000   0.000   0.000
   11  6 3py        0.30260   0.00000     -0.000   0.000   0.000
   11  7 3pz        0.17656   0.00000      0.000  -0.000   0.000
   11  8 3px        0.43140   0.00000      0.000  -0.000   0.000
   11  9 3Pdxy      0.24407   0.00000      0.000   0.000   0.000
   11 10 3Pdyz      0.12502   0.00000     -0.000   0.000   0.000
   11 11 3Pdz2      0.00941   0.00000      0.000  -0.000   0.000
   11 12 3Pdxz      0.05289   0.00000      0.000   0.000   0.000
   11 13 3Pdx2-y2   0.18403   0.00000      0.000   0.000   0.000
   11     Total     3.45566   0.00000      0.000   0.000   0.000

   17  1 3s         0.64586   0.00000      0.000  -0.000   0.000
   17  2 3s         0.35872   0.00000      0.000   0.000  -0.000
   17  3 3py        0.24615   0.00000     -0.000   0.000  -0.000
   17  4 3pz        0.42387   0.00000     -0.000   0.000   0.000
   17  5 3px        0.22687   0.00000     -0.000  -0.000  -0.000
   17  6 3py        0.36869   0.00000      0.000  -0.000  -0.000
   17  7 3pz        0.21417   0.00000     -0.000  -0.000   0.000
   17  8 3px        0.38067   0.00000     -0.000  -0.000  -0.000
   17  9 3Pdxy      0.29275   0.00000      0.000  -0.000  -0.000
   17 10 3Pdyz      0.13804   0.00000     -0.000   0.000   0.000
   17 11 3Pdz2      0.00946   0.00000      0.000  -0.000   0.000
   17 12 3Pdxz      0.14841   0.00000     -0.000   0.000   0.000
   17 13 3Pdx2-y2   0.17075   0.00000     -0.000   0.000   0.000
   17     Total     3.62442   0.00000     -0.000   0.000   0.000

   18  1 3s         0.74512   0.00000     -0.000   0.000   0.000
   18  2 3s         0.33935   0.00000      0.000  -0.000   0.000
   18  3 3py        0.08433   0.00000     -0.000   0.000   0.000
   18  4 3pz        0.82457   0.00000      0.000   0.000   0.000
   18  5 3px        0.54502   0.00000     -0.000  -0.000   0.000
   18  6 3py        0.51647   0.00000     -0.000   0.000   0.000
   18  7 3pz        0.19783   0.00000     -0.000  -0.000   0.000
   18  8 3px        0.25356   0.00000      0.000   0.000   0.000
   18  9 3Pdxy      0.10840   0.00000      0.000   0.000  -0.000
   18 10 3Pdyz      0.02784   0.00000     -0.000   0.000  -0.000
   18 11 3Pdz2      0.00925   0.00000     -0.000  -0.000  -0.000
   18 12 3Pdxz      0.02959   0.00000      0.000   0.000  -0.000
   18 13 3Pdx2-y2   0.10533   0.00000     -0.000   0.000   0.000
   18     Total     3.78666   0.00000     -0.000   0.000   0.000

   19  1 3s         0.45681   0.00000      0.000   0.000  -0.000
   19  2 3s         0.36418   0.00000     -0.000  -0.000  -0.000
   19  3 3py        0.08223   0.00000     -0.000  -0.000  -0.000
   19  4 3pz        0.41721   0.00000     -0.000   0.000  -0.000
   19  5 3px        0.33631   0.00000     -0.000   0.000  -0.000
   19  6 3py        0.46591   0.00000      0.000   0.000  -0.000
   19  7 3pz        0.18739   0.00000     -0.000   0.000  -0.000
   19  8 3px        0.25129   0.00000      0.000  -0.000   0.000
   19  9 3Pdxy      0.34798   0.00000     -0.000  -0.000  -0.000
   19 10 3Pdyz      0.19107   0.00000      0.000   0.000  -0.000
   19 11 3Pdz2      0.01500   0.00000     -0.000   0.000  -0.000
   19 12 3Pdxz      0.08794   0.00000     -0.000   0.000  -0.000
   19 13 3Pdx2-y2   0.23278   0.00000      0.000   0.000  -0.000
   19     Total     3.43609   0.00000     -0.000   0.000  -0.000

   20  1 3s         0.67396   0.00000     -0.000   0.000   0.000
   20  2 3s         0.37947   0.00000      0.000  -0.000  -0.000
   20  3 3py        0.33844   0.00000     -0.000   0.000  -0.000
   20  4 3pz        0.58513   0.00000     -0.000  -0.000  -0.000
   20  5 3px        0.13920   0.00000      0.000  -0.000   0.000
   20  6 3py        0.28882   0.00000      0.000  -0.000   0.000
   20  7 3pz        0.16300   0.00000     -0.000   0.000  -0.000
   20  8 3px        0.49919   0.00000     -0.000   0.000   0.000
   20  9 3Pdxy      0.10254   0.00000     -0.000  -0.000  -0.000
   20 10 3Pdyz      0.13420   0.00000     -0.000   0.000  -0.000
   20 11 3Pdz2      0.00741   0.00000     -0.000  -0.000   0.000
   20 12 3Pdxz      0.02675   0.00000      0.000   0.000  -0.000
   20 13 3Pdx2-y2   0.17186   0.00000      0.000   0.000   0.000
   20     Total     3.50997   0.00000      0.000  -0.000  -0.000

----------------------------------------------------------------
Total              89.10520   0.00000     -0.000   0.000   0.000


Species: H                   

Atom      Orb        Charge      Spin       Svec
----------------------------------------------------------------
   12  1 1s         0.48337   0.00000      0.000  -0.000  -0.000
   12  2 1s         0.18666   0.00000      0.000   0.000   0.000
   12  3 2Ppy       0.02926   0.00000     -0.000   0.000  -0.000
   12  4 2Ppz       0.03348   0.00000      0.000  -0.000  -0.000
   12  5 2Ppx       0.02483   0.00000      0.000  -0.000  -0.000
   12     Total     0.75759   0.00000      0.000  -0.000  -0.000

   13  1 1s         1.02091   0.00000      0.000   0.000  -0.000
   13  2 1s         0.09453   0.00000      0.000   0.000   0.000
   13  3 2Ppy       0.01982   0.00000     -0.000   0.000  -0.000
   13  4 2Ppz       0.02020   0.00000      0.000   0.000   0.000
   13  5 2Ppx       0.03315   0.00000     -0.000  -0.000   0.000
   13     Total     1.18861   0.00000      0.000   0.000  -0.000

   14  1 1s         0.46915   0.00000     -0.000  -0.000  -0.000
   14  2 1s         0.19917   0.00000     -0.000   0.000   0.000
   14  3 2Ppy       0.01873   0.00000     -0.000   0.000  -0.000
   14  4 2Ppz       0.04746   0.00000     -0.000  -0.000  -0.000
   14  5 2Ppx       0.01775   0.00000      0.000  -0.000  -0.000
   14     Total     0.75226   0.00000     -0.000  -0.000  -0.000

   15  1 1s         0.45284   0.00000      0.000   0.000  -0.000
   15  2 1s         0.20043   0.00000     -0.000   0.000   0.000
   15  3 2Ppy       0.00697   0.00000     -0.000   0.000   0.000
   15  4 2Ppz       0.04333   0.00000     -0.000   0.000  -0.000
   15  5 2Ppx       0.03549   0.00000     -0.000   0.000  -0.000
   15     Total     0.73905   0.00000     -0.000   0.000   0.000

   16  1 1s         0.50784   0.00000      0.000  -0.000  -0.000
   16  2 1s         0.18773   0.00000     -0.000  -0.000   0.000
   16  3 2Ppy       0.03004   0.00000      0.000  -0.000  -0.000
   16  4 2Ppz       0.03943   0.00000      0.000  -0.000  -0.000
   16  5 2Ppx       0.02317   0.00000      0.000  -0.000   0.000
   16     Total     0.78821   0.00000      0.000  -0.000  -0.000

   24  1 1s         1.05741   0.00000      0.000  -0.000  -0.000
   24  2 1s         0.07601   0.00000      0.000   0.000   0.000
   24  3 2Ppy       0.03157   0.00000     -0.000   0.000   0.000
   24  4 2Ppz       0.03118   0.00000      0.000   0.000   0.000
   24  5 2Ppx       0.01759   0.00000      0.000   0.000  -0.000
   24     Total     1.21376   0.00000      0.000   0.000  -0.000

   25  1 1s         1.04748   0.00000     -0.000   0.000  -0.000
   25  2 1s         0.08409   0.00000      0.000  -0.000   0.000
   25  3 2Ppy       0.01170   0.00000     -0.000   0.000  -0.000
   25  4 2Ppz       0.01802   0.00000      0.000  -0.000  -0.000
   25  5 2Ppx       0.03641   0.00000      0.000   0.000   0.000
   25     Total     1.19769   0.00000     -0.000   0.000  -0.000

   26  1 1s         0.47848   0.00000      0.000  -0.000  -0.000
   26  2 1s         0.19860   0.00000      0.000   0.000   0.000
   26  3 2Ppy       0.01937   0.00000      0.000   0.000  -0.000
   26  4 2Ppz       0.05091   0.00000     -0.000   0.000  -0.000
   26  5 2Ppx       0.01647   0.00000      0.000   0.000  -0.000
   26     Total     0.76383   0.00000      0.000   0.000  -0.000

   27  1 1s         0.45081   0.00000      0.000   0.000   0.000
   27  2 1s         0.19826   0.00000      0.000  -0.000   0.000
   27  3 2Ppy       0.00949   0.00000     -0.000   0.000   0.000
   27  4 2Ppz       0.03883   0.00000      0.000  -0.000   0.000
   27  5 2Ppx       0.03843   0.00000     -0.000   0.000   0.000
   27     Total     0.73582   0.00000      0.000  -0.000   0.000

   29  1 1s         0.48549   0.00000     -0.000  -0.000  -0.000
   29  2 1s         0.18812   0.00000      0.000   0.000   0.000
   29  3 2Ppy       0.02517   0.00000      0.000   0.000  -0.000
   29  4 2Ppz       0.03451   0.00000     -0.000  -0.000  -0.000
   29  5 2Ppx       0.02468   0.00000      0.000  -0.000  -0.000
   29     Total     0.75796   0.00000      0.000  -0.000  -0.000

----------------------------------------------------------------
Total              98.00000   0.00000     -0.000   0.000   0.000


siesta: Eigenvalues (eV):
ik =     1
  -22.2752  -22.2752  -21.9818  -21.9818  -21.4350  -21.4350  -21.2743  -21.2743  -21.2702  -21.2702
  -21.1787  -21.1787  -20.6151  -20.6151  -19.7374  -19.7374  -19.5561  -19.5561  -19.3570  -19.3570
  -14.7448  -14.7448  -13.8354  -13.8354  -13.2801  -13.2801  -13.1397  -13.1397  -12.9173  -12.9173
  -12.7749  -12.7749  -12.6070  -12.6070  -12.2118  -12.2118  -12.1560  -12.1560  -11.9723  -11.9723
  -11.2464  -11.2464  -10.7886  -10.7886  -10.6726  -10.6726  -10.5547  -10.5547  -10.1191  -10.1191
   -9.6113   -9.6113   -9.0808   -9.0808   -8.9538   -8.9538   -8.7639   -8.7639   -8.6278   -8.6278
   -8.5134   -8.5134   -8.4812   -8.4812   -8.0918   -8.0918   -7.9910   -7.9910   -7.8363   -7.8363
   -7.6314   -7.6314   -7.4320   -7.4320   -7.1813   -7.1813   -6.8960   -6.8960   -6.6648   -6.6648
   -6.6644   -6.6644   -6.4805   -6.4805   -6.2896   -6.2896   -6.2567   -6.2567   -6.2300   -6.2300
   -6.2056   -6.2056   -5.9696   -5.9696   -5.5031   -5.5031   -4.3562   -4.3562   -3.2329   -3.2329
   -2.3900   -2.3900   -2.2751   -2.2751   -2.2527   -2.2527   -1.9537   -1.9537   -1.8965   -1.8965
   -1.8034   -1.8034   -1.7804   -1.7804   -1.6314   -1.6314   -1.3446   -1.3446   -1.2434   -1.2434
   -1.0527   -1.0527   -0.6865   -0.6865   -0.4208   -0.4208   -0.2887   -0.2887    0.2856    0.2856
    0.3616    0.3616    0.4646    0.4646    0.6961    0.6961    0.7539    0.7539    1.1287    1.1287
    1.2639    1.2639    1.3133    1.3133    1.4225    1.4225    1.4285    1.4285    1.6709    1.6709
    1.9398    1.9398    1.9786    1.9786    2.4990    2.4990    2.6606    2.6606    2.6872    2.6872
    2.7203    2.7203    2.9519    2.9519    2.9969    2.9969    3.3615    3.3615    3.3687    3.3687
    3.7448    3.7448    3.8644    3.8644    4.0446    4.0446    4.1044    4.1044    4.3665    4.3665
    4.4727    4.4727    4.6466    4.6466    4.6832    4.6832    4.7437    4.7437    4.8546    4.8546
    5.0353    5.0353    5.1296    5.1296    5.2669    5.2669    5.5819    5.5819    5.5960    5.5960
    5.8677    5.8677    5.9176    5.9176    5.9882    5.9882    6.2722    6.2722    6.2750    6.2750
    6.4106    6.4106    6.5267    6.5267    6.5522    6.5522    6.6902    6.6902    6.9669    6.9669
    7.0747    7.0747    7.1852    7.1852    7.4179    7.4179    7.7122    7.7122    7.8417    7.8417
    7.9531    7.9531    8.0706    8.0706    8.0995    8.0995    8.2725    8.2725    8.6082    8.6082
    8.7361    8.7361    8.7619    8.7619    8.9007    8.9007    8.9640    8.9640    9.2521    9.2521
    9.3139    9.3139    9.6056    9.6056    9.7742    9.7742    9.7789    9.7789    9.9575    9.9575
   10.0174   10.0174   10.2700   10.2700   10.4336   10.4336   10.9094   10.9094   10.9768   10.9768
   11.1534   11.1534   11.1877   11.1877   11.7326   11.7326   11.9270   11.9270   12.1333   12.1333
   12.2056   12.2056   12.2359   12.2359   12.3296   12.3296   12.5764   12.5764   12.6328   12.6328
   12.8341   12.8341   12.9784   12.9784   13.5212   13.5212   13.5921   13.5921   13.9263   13.9263
   13.9708   13.9708   14.0627   14.0627   14.2678   14.2678   14.4538   14.4538   14.7297   14.7297
   15.1174   15.1174   15.5468   15.5468   15.9532   15.9532   16.5040   16.5040   16.7344   16.7344
   16.9955   16.9955   17.4229   17.4229   17.8203   17.8203   18.4951   18.4951   18.5826   18.5826
   19.1555   19.1555   19.5458   19.5458   19.7570   19.7570   20.1879   20.1879   20.2980   20.2980
   21.1742   21.1742   21.3687   21.3687   21.9322   21.9322   22.3834   22.3834   22.6528   22.6528
   23.1272   23.1272   23.5205   23.5205   23.6685   23.6685   23.9738   23.9738   24.3864   24.3864
   24.8827   24.8827   24.9434   24.9434   26.3545   26.3545   27.1762   27.1762   28.4155   28.4155
   28.8358   28.8358   29.2345   29.2345   29.4322   29.4322   29.8454   29.8454   30.1035   30.1035
   30.2540   30.2540   30.6506   30.6506   30.7448   30.7448   30.9448   30.9448   31.1258   31.1258
   31.4218   31.4218   31.6350   31.6350   32.1176   32.1176   32.6690   32.6690   33.2333   33.2333
   34.1401   34.1401   34.2647   34.2647   34.3736   34.3736   34.4108   34.4108   34.6249   34.6249
   35.1713   35.1713   35.5149   35.5149   35.5286   35.5286   35.8627   35.8627   36.4667   36.4667
   36.9900   36.9900   37.8862   37.8862   37.9791   37.9791   38.0536   38.0536   38.2892   38.2892
   38.6753   38.6753   39.3338   39.3338   39.8349   39.8349   40.1918   40.1918   40.6986   40.6986
   40.7350   40.7350   40.8638   40.8638   41.0559   41.0559   41.2150   41.2150   41.5278   41.5278
   42.5565   42.5565   42.8792   42.8792   43.2091   43.2091   43.3032   43.3032   43.6989   43.6989
   43.9130   43.9130   44.2991   44.2991   44.4218   44.4218   44.8142   44.8142   44.9851   44.9851
   45.0271   45.0271   45.7654   45.7654   46.4689   46.4689   46.9210   46.9210   47.4238   47.4238
   47.5137   47.5137   48.3330   48.3330   48.5002   48.5002   49.3835   49.3835   49.4738   49.4738
   50.6405   50.6405   50.6567   50.6567   51.0324   51.0324   51.1061   51.1061   51.5544   51.5544
   51.6500   51.6500   52.3618   52.3618   53.3406   53.3406   54.5176   54.5176   54.8285   54.8285
   55.2359   55.2359   55.3270   55.3270   56.0702   56.0702   56.1269   56.1269   56.7814   56.7814
   56.9648   56.9648   57.8145   57.8145   58.0019   58.0019   59.4112   59.4112   60.0134   60.0134
   60.5963   60.5963   60.9233   60.9233   61.4742   61.4742   62.0075   62.0075   62.5294   62.5294
   63.6864   63.6864   63.7239   63.7239   64.8511   64.8511   65.3107   65.3107   66.9336   66.9336
   67.4675   67.4675   67.9248   67.9248   69.0190   69.0190   70.1536   70.1536   70.8040   70.8040
   74.2424   74.2424   84.2869   84.2869   90.6453   90.6453   91.7659   91.7659   93.7792   93.7792
   98.5188   98.5188   99.9669   99.9669  102.5286  102.5286  103.5247  103.5247  104.5302  104.5302
  111.6830  111.6830  113.2822  113.2822  124.1242  124.1242  126.5428  126.5428  132.4957  132.4957
  141.6722  141.6722  142.4381  142.4381
siesta: Fermi energy =      -3.794360 eV

siesta: Program's energy decomposition (eV):
siesta: Ebs     =     -1134.827218
siesta: Eions   =      3585.165840
siesta: Ena     =       384.910448
siesta: Ekin    =      2907.699559
siesta: Enl     =     -2795.535857
siesta: Eso     =        -0.004262
siesta: Edftu   =         0.000000
siesta: DEna    =        47.694921
siesta: DUscf   =        14.118092
siesta: DUext   =         0.000000
siesta: Exc     =     -1120.850610
siesta: eta*DQ  =         0.000000
siesta: Emadel  =         0.000000
siesta: Emeta   =         0.000000
siesta: Emolmec =         0.000000
siesta: Ekinion =         0.000000
siesta: Eharris =     -4147.133548
siesta: Etot    =     -4147.133548
siesta: FreeEng =     -4147.133548

siesta: Final energy (eV):
siesta:  Band Struct. =   -1134.827218
siesta:       Kinetic =    2907.699559
siesta:       Hartree =    8612.889565
siesta:       Edftu   =       0.000000
siesta:       Eso     =      -0.004262
siesta:    Ext. field =       0.000000
siesta:   Exch.-corr. =   -1120.850610
siesta:  Ion-electron =  -19813.310001
siesta:       Ion-ion =    5266.442200
siesta:       Ekinion =       0.000000
siesta:         Total =   -4147.133548
siesta:         Fermi =      -3.794360

siesta: Atomic forces (eV/Ang):
siesta:      1   -1.131905    1.243284   -0.000000
siesta:      2   -0.041655   -0.031239    0.000000
siesta:      3   -0.250207    0.176905    0.000000
siesta:      4   -0.261860   -0.047255   -0.000000
siesta:      5   -0.019084    0.001904    0.000000
siesta:      6   -0.282523   -0.003452    0.000000
siesta:      7   -0.020065    0.067810    0.000000
siesta:      8    0.168066   -0.048613    0.000000
siesta:      9    0.176345   -0.331849   -0.000000
siesta:     10    0.478110   -0.014835    0.000000
siesta:     11   -0.021229    0.032903   -0.000000
siesta:     12   -0.061032   -0.062510   -0.000000
siesta:     13    0.007294    0.079448   -0.000000
siesta:     14   -0.053126   -0.041024   -0.000000
siesta:     15    0.436292    0.258109    0.000000
siesta:     16   -0.098270    0.159868   -0.000000
siesta:     17   -0.419726    0.264481    0.000000
siesta:     18    0.071008   -0.059801    0.000000
siesta:     19    0.019609    0.445704   -0.000000
siesta:     20   -0.023266    0.124235   -0.000000
siesta:     21    0.129364   -0.376771    0.000000
siesta:     22    0.331793   -0.006981   -0.000000
siesta:     23   -0.059098   -0.184522    0.000000
siesta:     24   -0.041682    0.071885    0.000000
siesta:     25   -0.068086   -0.045390   -0.000000
siesta:     26   -0.030432    0.096125   -0.000000
siesta:     27   -0.290652   -0.241537    0.000000
siesta:     28   -0.778890    1.595822    0.000000
siesta:     29    0.047975    0.023852    0.000000
siesta: ----------------------------------------
siesta:    Tot   -2.086932    3.146555   -0.000000

siesta: Stress tensor (static) (eV/Ang**3):
siesta:     0.000498    0.000327    0.000000
siesta:     0.000327    0.000122   -0.000000
siesta:    -0.000000    0.000000   -0.000053

siesta: Cell volume =       4805.840040 Ang**3

siesta: Pressure (static):
siesta:                Solid            Molecule  Units
siesta:          -0.00000206         -0.00000138  Ry/Bohr**3
siesta:          -0.00018889         -0.00012709  eV/Ang**3
siesta:          -0.30263800         -0.20362662  kBar
(Free)E+ p_basis*V_orbitals  =       -4127.283131
(Free)Eharris+ p_basis*V_orbitals  =       -4127.283131
     spin moment: S , {S} =    0.00000  -0.00000   0.00000   0.00000

siesta: Electric dipole (a.u.)  =    1.475955    0.077625   -0.000000
siesta: Electric dipole (Debye) =    3.751505    0.197302   -0.000000

cite: Please see "GC.bib" for an exhaustive BiBTeX file.
cite: Please clearly indicate Siesta version in published work: v4.1.5-1-g384057250
cite: This calculation has made use of the following articles
cite: which are encouraged to be cited in a published work.
        Primary SIESTA paper
          DOI: www.doi.org/10.1088/0953-8984/14/11/302
        Spin-orbit coupling (on-site approximation)
          DOI: www.doi.org/10.1088/0953-8984/19/19/489001


WARNING: alloc-realloc-dealloc name mismatch
         Name: atomlist isa
         Size:              -116. Bytes
         Node:     0
         Subsequent mismatches will not be reported
>> End of run:  22-MAY-2023  17:25:12
Job completed
