Siesta Version  : v4.1.5-1-g384057250
Architecture    : gcc
Compiler version: GNU Fortran (Debian 12.2.0-14) 12.2.0
Compiler flags  : mpifort -O2 -fPIC -ftree-vectorize -fallow-argument-mismatch
PP flags        : -DFC_HAVE_ABORT -DMPI -DSIESTA__FLOOK -DSIESTA__METIS -DSIESTA__MUMPS -DCDF -DNCDF -DNCDF_4 -DNCDF_PARALLEL -DSIESTA__MRRR -DSIESTA__ELPA
Libraries       : libncdf.a libfdict.a  -lflookall -ldl -lnetcdff -lnetcdf -lz -lscalapack-openmpi -lopenblas -lmetis -lzmumps -lcmumps -ldmumps -lmumps_common -lpord -lsmumps -lesmumps -lscotch -lscotcherr -fopenmp -lelpa
PARALLEL version
NetCDF support
NetCDF-4 support
NetCDF-4 MPI-IO support
METIS ordering support
Lua support

* Running on 32 nodes in parallel
>> Start of run:  16-OCT-2023  20:19:44

                           ***********************       
                           *  WELCOME TO SIESTA  *       
                           ***********************       

reinit: Reading from standard input
reinit: Dumped input in INPUT_TMP.98810
************************** Dump of input data file ****************************
# mpirun -np 4 siesta-4.1.5 < AT.fdf > AT.out &
SystemLabel      AT
NumberOfAtoms    30
NumberOfSpecies  4
%block ChemicalSpeciesLabel
    1    1  H
    2    7  N
    3   14  Si
    4    8  O
%endblock ChemicalSpeciesLabel
############################################
# This overrides Defaults.fdf configuration
############################################
MD.TypeOfRun                Verlet # CG, Verlet
MD.Steps                    0
MaxSCFIterations            300
AtomicCoordinatesFormat NotScaledCartesianAng
%block AtomicCoordinatesAndAtomicSpecies
    2.28494382 -5.19529124 0.0  1  1  H
    1.37433094 -4.6647107 0.0  2  2  N
    -0.21830245 -5.49458215 0.0  3  3  Si
    -0.17484108 -6.98516892 0.0  1  4  H
    -1.66171682 -4.58600741 0.0  2  5  N
    -1.09026419 -2.87456374 0.0  3  6  Si
    -1.53038332 -0.70765692 0.0  3  7  Si
    -3.14415959 -0.09186471 0.0  2  8  N
    -3.40268075 0.95848335 0.0  1  9  H
    -3.95073599 -0.76720972 0.0  1  10  H
    -0.17836637 0.41349951 0.0  2  11  N
    1.49520211 -0.0473996 0.0  3  12  Si
    2.45603905 1.10727302 0.0  1  13  H
    2.30451743 -1.58574382 0.0  2  14  N
    1.10725559 -2.84610319 0.0  3  15  Si
    0.5648706942610879 7.585328046599817 0.0  1  16  H
    -0.2438399857389121 6.893122166599817 0.0  2  17  N
    -1.900429825738912 7.606242266599817 0.0  3  18  Si
    -1.803564655738912 9.116967476599816 0.0  1  19  H
    -3.626586175738912 6.263194136599816 0.0  3  20  Si
    -5.981040425738913 6.255207206599817 0.0  3  21  Si
    -6.543458545738913 6.989696856599816 -1.20183078  1  22  H
    -6.280854175738913 4.776116076599816 -0.08618332  1  23  H
    -6.5435710057389125 6.820039666599817 1.28814761  1  24  H
    -2.697195535738912 4.192622906599817 0.0  3  25  Si
    -3.646663895738912 2.9040867765998164 0.0  4  26  O
    -0.9062506657389121 4.018887436599817 0.0  2  27  N
    -0.575259305738912 2.9865304565998168 0.0  1  28  H
    0.4022075542610879 5.213433856599816 0.0  3  29  Si
    1.9681444842610878 4.946187006599817 0.0  4  30  O
%endblock AtomicCoordinatesAndAtomicSpecies
%include ../../../../Defaults.fdf
************************** End of input data file *****************************

reinit: -----------------------------------------------------------------------
reinit: System Name: 
reinit: -----------------------------------------------------------------------
reinit: System Label: AT
reinit: -----------------------------------------------------------------------

initatom: Reading input for the pseudopotentials and atomic orbitals ----------
Species number:   1 Atomic number:    1 Label: H
Species number:   2 Atomic number:    7 Label: N
Species number:   3 Atomic number:   14 Label: Si
Species number:   4 Atomic number:    8 Label: O

Ground state valence configuration:   1s01
Reading pseudopotential information in formatted form from H.psf

Pseudopotential generated from a relativistic atomic calculation

Valence configuration for pseudopotential generation:
1s( 1.00) rc: 0.01
2p( 0.00) rc: 0.60
3d( 0.00) rc: 1.99
4f( 0.00) rc: 2.49
Ground state valence configuration:   2s02  2p03
Reading pseudopotential information in formatted form from N.psf

Pseudopotential generated from a relativistic atomic calculation

Valence configuration for pseudopotential generation:
2s( 2.00) rc: 0.94
2p( 3.00) rc: 0.59
3d( 0.00) rc: 3.46
4f( 0.00) rc: 2.47
Ground state valence configuration:   3s02  3p02
Reading pseudopotential information in formatted form from Si.psf

Pseudopotential generated from a relativistic atomic calculation

Valence configuration for pseudopotential generation:
3s( 2.00) rc: 1.67
3p( 2.00) rc: 2.04
3d( 0.00) rc: 2.89
4f( 0.00) rc: 2.49
Ground state valence configuration:   2s02  2p04
Reading pseudopotential information in formatted form from O.psf

Pseudopotential generated from a relativistic atomic calculation

Valence configuration for pseudopotential generation:
2s( 2.00) rc: 0.45
2p( 4.00) rc: 0.92
3d( 0.00) rc: 2.24
4f( 0.00) rc: 0.25
For H, standard SIESTA heuristics set lmxkb to 2
 (one more than the basis l, including polarization orbitals).
Use PS.lmax or PS.KBprojectors blocks to override.
For N, standard SIESTA heuristics set lmxkb to 3
 (one more than the basis l, including polarization orbitals).
Use PS.lmax or PS.KBprojectors blocks to override.
For Si, standard SIESTA heuristics set lmxkb to 3
 (one more than the basis l, including polarization orbitals).
Use PS.lmax or PS.KBprojectors blocks to override.
For O, standard SIESTA heuristics set lmxkb to 3
 (one more than the basis l, including polarization orbitals).
Use PS.lmax or PS.KBprojectors blocks to override.

<basis_specs>
===============================================================================
H                    Z=   1    Mass=  1.0100        Charge= 0.17977+309
Lmxo=0 Lmxkb= 2    BasisType=split      Semic=F
L=0  Nsemic=0  Cnfigmx=1
          i=1  nzeta=2  polorb=1  (1s)
            splnorm:   0.62000    
               vcte:    0.0000    
               rinn:    0.0000    
               qcoe:    0.0000    
               qyuk:    0.0000    
               qwid:   0.10000E-01
                rcs:    0.0000      0.0000    
            lambdas:    1.0000      1.0000    
-------------------------------------------------------------------------------
L=0  Nkbl=1  erefs: 0.17977+309
L=1  Nkbl=1  erefs: 0.17977+309
L=2  Nkbl=1  erefs: 0.17977+309
===============================================================================
</basis_specs>

atom: Called for H                     (Z =   1)

read_vps: Pseudopotential generation method:
read_vps: ATM4.2.7  Troullier-Martins                       
Valence charge for ps generation:    1.00000

xc_check: Exchange-correlation functional:
xc_check: GGA Perdew, Burke & Ernzerhof 1996
V l=0 = -2*Zval/r beyond r=  0.0098
V l=1 = -2*Zval/r beyond r=  0.5817
V l=2 = -2*Zval/r beyond r=  1.9372
All V_l potentials equal beyond r=  1.9372
This should be close to max(r_c) in ps generation
All pots = -2*Zval/r beyond r=  1.9372

VLOCAL1: 99.0% of the norm of Vloc inside     11.567 Ry
VLOCAL1: 99.9% of the norm of Vloc inside     26.362 Ry
atom: Maximum radius for 4*pi*r*r*local-pseudopot. charge    2.25106
atom: Maximum radius for r*vlocal+2*Zval:    1.91306
GHOST: No ghost state for L =  0
GHOST: No ghost state for L =  1
GHOST: No ghost state for L =  2

KBgen: Kleinman-Bylander projectors: 
   l= 0   rc=  2.036604   el= -0.477180   Ekb= -6.081590   kbcos= -0.277285
   l= 1   rc=  2.195416   el=  0.001076   Ekb= -0.926943   kbcos= -0.034643
   l= 2   rc=  2.251056   el=  0.002010   Ekb= -0.130941   kbcos= -0.009788

KBgen: Total number of Kleinman-Bylander projectors:    9
atom: -------------------------------------------------------------------------

atom: SANKEY-TYPE ORBITALS:
atom: Selected multiple-zeta basis: split     

SPLIT: Orbitals with angular momentum L= 0

SPLIT: Basis orbitals for state 1s

SPLIT: PAO cut-off radius determined from an
SPLIT: energy shift=  0.002000 Ry

   izeta = 1
                 lambda =    1.000000
                     rc =    6.518340
                 energy =   -0.475305
                kinetic =    0.912139
    potential(screened) =   -1.387444
       potential(ionic) =   -1.907295

   izeta = 2
                 rmatch =    2.141150
              splitnorm =    0.620000
                 energy =    0.566467
                kinetic =    3.772856
    potential(screened) =   -3.206389
       potential(ionic) =   -3.759093

POLgen: Perturbative polarization orbital with L=  1

POLgen: Polarization orbital for state 1s

   izeta = 1
                     rc =    6.518340
                 energy =    0.533861
                kinetic =    1.121086
    potential(screened) =   -0.587225
       potential(ionic) =   -1.053027
atom: Total number of Sankey-type orbitals:  5

atm_pop: Valence configuration (for local Pseudopot. screening):
 1s( 1.00)                                                            
Vna: chval, zval:    1.00000   1.00000

Vna:  Cut-off radius for the neutral-atom potential:   6.518340

atom: _________________________________________________________________________

<basis_specs>
===============================================================================
N                    Z=   7    Mass=  14.010        Charge= 0.17977+309
Lmxo=1 Lmxkb= 3    BasisType=split      Semic=F
L=0  Nsemic=0  Cnfigmx=2
          i=1  nzeta=2  polorb=0  (2s)
            splnorm:   0.28000    
               vcte:    0.0000    
               rinn:    0.0000    
               qcoe:    0.0000    
               qyuk:    0.0000    
               qwid:   0.10000E-01
                rcs:    0.0000      0.0000    
            lambdas:    1.0000      1.0000    
L=1  Nsemic=0  Cnfigmx=2
          i=1  nzeta=2  polorb=1  (2p)
            splnorm:   0.28000    
               vcte:    0.0000    
               rinn:    0.0000    
               qcoe:    0.0000    
               qyuk:    0.0000    
               qwid:   0.10000E-01
                rcs:    0.0000      0.0000    
            lambdas:    1.0000      1.0000    
-------------------------------------------------------------------------------
L=0  Nkbl=1  erefs: 0.17977+309
L=1  Nkbl=1  erefs: 0.17977+309
L=2  Nkbl=1  erefs: 0.17977+309
L=3  Nkbl=1  erefs: 0.17977+309
===============================================================================
</basis_specs>

atom: Called for N                     (Z =   7)

read_vps: Pseudopotential generation method:
read_vps: ATM4.2.7  Troullier-Martins                       
Valence charge for ps generation:    5.00000

xc_check: Exchange-correlation functional:
xc_check: GGA Perdew, Burke & Ernzerhof 1996
V l=0 = -2*Zval/r beyond r=  1.2889
V l=1 = -2*Zval/r beyond r=  1.2889
V l=2 = -2*Zval/r beyond r=  3.4178
V l=3 = -2*Zval/r beyond r=  2.4084
All V_l potentials equal beyond r=  3.3753
This should be close to max(r_c) in ps generation
All pots = -2*Zval/r beyond r=  3.4178

VLOCAL1: 99.0% of the norm of Vloc inside      3.810 Ry
VLOCAL1: 99.9% of the norm of Vloc inside      8.683 Ry
atom: Maximum radius for 4*pi*r*r*local-pseudopot. charge    4.02088
atom: Maximum radius for r*vlocal+2*Zval:    3.54838
GHOST: No ghost state for L =  0
GHOST: No ghost state for L =  1
GHOST: No ghost state for L =  2
GHOST: No ghost state for L =  3

KBgen: Kleinman-Bylander projectors: 
   l= 0   rc=  3.417763   el= -1.365098   Ekb= -4.433130   kbcos= -0.707855
   l= 1   rc=  3.375302   el= -0.521201   Ekb=-13.264039   kbcos= -0.535594
   l= 2   rc=  3.872880   el=  0.001991   Ekb= -0.641094   kbcos= -0.062456
   l= 3   rc=  3.970931   el=  0.003093   Ekb= -0.474517   kbcos= -0.018236

KBgen: Total number of Kleinman-Bylander projectors:   16
atom: -------------------------------------------------------------------------

atom: SANKEY-TYPE ORBITALS:
atom: Selected multiple-zeta basis: split     

SPLIT: Orbitals with angular momentum L= 0

SPLIT: Basis orbitals for state 2s

SPLIT: PAO cut-off radius determined from an
SPLIT: energy shift=  0.002000 Ry

   izeta = 1
                 lambda =    1.000000
                     rc =    4.730425
                 energy =   -1.363399
                kinetic =    1.245246
    potential(screened) =   -2.608645
       potential(ionic) =   -8.121105

   izeta = 2
                 rmatch =    2.531849
              splitnorm =    0.280000
                 energy =   -0.959908
                kinetic =    2.409435
    potential(screened) =   -3.369343
       potential(ionic) =   -9.427975

SPLIT: Orbitals with angular momentum L= 1

SPLIT: Basis orbitals for state 2p

SPLIT: PAO cut-off radius determined from an
SPLIT: energy shift=  0.002000 Ry

   izeta = 1
                 lambda =    1.000000
                     rc =    5.924108
                 energy =   -0.519262
                kinetic =    3.672940
    potential(screened) =   -4.192202
       potential(ionic) =   -9.518354

   izeta = 2
                 rmatch =    2.531849
              splitnorm =    0.280000
                 energy =   -0.104258
                kinetic =    6.807538
    potential(screened) =   -6.911796
       potential(ionic) =  -13.149920

POLgen: Perturbative polarization orbital with L=  2

POLgen: Polarization orbital for state 2p

   izeta = 1
                     rc =    5.924108
                 energy =    1.427508
                kinetic =    2.872379
    potential(screened) =   -1.444871
       potential(ionic) =   -5.563644
atom: Total number of Sankey-type orbitals: 13

atm_pop: Valence configuration (for local Pseudopot. screening):
 2s( 2.00)                                                            
 2p( 3.00)                                                            
Vna: chval, zval:    5.00000   5.00000

Vna:  Cut-off radius for the neutral-atom potential:   5.924108

atom: _________________________________________________________________________

<basis_specs>
===============================================================================
Si                   Z=  14    Mass=  28.090        Charge= 0.17977+309
Lmxo=1 Lmxkb= 3    BasisType=split      Semic=F
L=0  Nsemic=0  Cnfigmx=3
          i=1  nzeta=2  polorb=0  (3s)
            splnorm:   0.28000    
               vcte:    0.0000    
               rinn:    0.0000    
               qcoe:    0.0000    
               qyuk:    0.0000    
               qwid:   0.10000E-01
                rcs:    0.0000      0.0000    
            lambdas:    1.0000      1.0000    
L=1  Nsemic=0  Cnfigmx=3
          i=1  nzeta=2  polorb=1  (3p)
            splnorm:   0.28000    
               vcte:    0.0000    
               rinn:    0.0000    
               qcoe:    0.0000    
               qyuk:    0.0000    
               qwid:   0.10000E-01
                rcs:    0.0000      0.0000    
            lambdas:    1.0000      1.0000    
-------------------------------------------------------------------------------
L=0  Nkbl=1  erefs: 0.17977+309
L=1  Nkbl=1  erefs: 0.17977+309
L=2  Nkbl=1  erefs: 0.17977+309
L=3  Nkbl=1  erefs: 0.17977+309
===============================================================================
</basis_specs>

atom: Called for Si                    (Z =  14)

read_vps: Pseudopotential generation method:
read_vps: ATM4.2.7  Troullier-Martins                       
Valence charge for ps generation:    4.00000

xc_check: Exchange-correlation functional:
xc_check: GGA Perdew, Burke & Ernzerhof 1996
V l=0 = -2*Zval/r beyond r=  2.7826
V l=1 = -2*Zval/r beyond r=  2.7826
V l=2 = -2*Zval/r beyond r=  2.9253
V l=3 = -2*Zval/r beyond r=  2.7826
All V_l potentials equal beyond r=  2.8530
This should be close to max(r_c) in ps generation
All pots = -2*Zval/r beyond r=  2.9253

VLOCAL1: 99.0% of the norm of Vloc inside      5.333 Ry
VLOCAL1: 99.9% of the norm of Vloc inside     12.154 Ry
atom: Maximum radius for 4*pi*r*r*local-pseudopot. charge    3.39869
atom: Maximum radius for r*vlocal+2*Zval:    2.96205
GHOST: No ghost state for L =  0
GHOST: No ghost state for L =  1
GHOST: No ghost state for L =  2
GHOST: No ghost state for L =  3

KBgen: Kleinman-Bylander projectors: 
   l= 0   rc=  3.075247   el= -0.794092   Ekb=  5.879390   kbcos=  0.167461
   l= 1   rc=  3.153101   el= -0.300068   Ekb=  2.642817   kbcos=  0.058301
   l= 2   rc=  3.273594   el=  0.001958   Ekb= -1.185135   kbcos= -0.104411
   l= 3   rc=  3.232927   el=  0.003046   Ekb= -0.497174   kbcos= -0.015889

KBgen: Total number of Kleinman-Bylander projectors:   16
atom: -------------------------------------------------------------------------

atom: SANKEY-TYPE ORBITALS:
atom: Selected multiple-zeta basis: split     

SPLIT: Orbitals with angular momentum L= 0

SPLIT: Basis orbitals for state 3s

SPLIT: PAO cut-off radius determined from an
SPLIT: energy shift=  0.002000 Ry

   izeta = 1
                 lambda =    1.000000
                     rc =    6.429618
                 energy =   -0.792283
                kinetic =    0.525293
    potential(screened) =   -1.317576
       potential(ionic) =   -3.744923

   izeta = 2
                 rmatch =    3.998416
              splitnorm =    0.280000
                 energy =   -0.583081
                kinetic =    1.069570
    potential(screened) =   -1.652651
       potential(ionic) =   -4.235185

SPLIT: Orbitals with angular momentum L= 1

SPLIT: Basis orbitals for state 3p

SPLIT: PAO cut-off radius determined from an
SPLIT: energy shift=  0.002000 Ry

   izeta = 1
                 lambda =    1.000000
                     rc =    8.464845
                 energy =   -0.298236
                kinetic =    0.785360
    potential(screened) =   -1.083596
       potential(ionic) =   -3.273779

   izeta = 2
                 rmatch =    4.587816
              splitnorm =    0.280000
                 energy =   -0.131871
                kinetic =    1.403687
    potential(screened) =   -1.535557
       potential(ionic) =   -4.015310

POLgen: Perturbative polarization orbital with L=  2

POLgen: Polarization orbital for state 3p

   izeta = 1
                     rc =    8.464845
                 energy =    0.321949
                kinetic =    1.055677
    potential(screened) =   -0.733728
       potential(ionic) =   -2.672950
atom: Total number of Sankey-type orbitals: 13

atm_pop: Valence configuration (for local Pseudopot. screening):
 3s( 2.00)                                                            
 3p( 2.00)                                                            
Vna: chval, zval:    4.00000   4.00000

Vna:  Cut-off radius for the neutral-atom potential:   8.464845

atom: _________________________________________________________________________

<basis_specs>
===============================================================================
O                    Z=   8    Mass=  16.000        Charge= 0.17977+309
Lmxo=1 Lmxkb= 3    BasisType=split      Semic=F
L=0  Nsemic=0  Cnfigmx=2
          i=1  nzeta=2  polorb=0  (2s)
            splnorm:   0.28000    
               vcte:    0.0000    
               rinn:    0.0000    
               qcoe:    0.0000    
               qyuk:    0.0000    
               qwid:   0.10000E-01
                rcs:    0.0000      0.0000    
            lambdas:    1.0000      1.0000    
L=1  Nsemic=0  Cnfigmx=2
          i=1  nzeta=2  polorb=1  (2p)
            splnorm:   0.28000    
               vcte:    0.0000    
               rinn:    0.0000    
               qcoe:    0.0000    
               qyuk:    0.0000    
               qwid:   0.10000E-01
                rcs:    0.0000      0.0000    
            lambdas:    1.0000      1.0000    
-------------------------------------------------------------------------------
L=0  Nkbl=1  erefs: 0.17977+309
L=1  Nkbl=1  erefs: 0.17977+309
L=2  Nkbl=1  erefs: 0.17977+309
L=3  Nkbl=1  erefs: 0.17977+309
===============================================================================
</basis_specs>

atom: Called for O                     (Z =   8)

read_vps: Pseudopotential generation method:
read_vps: ATM4.2.7  Troullier-Martins                       
Valence charge for ps generation:    6.00000

xc_check: Exchange-correlation functional:
xc_check: GGA Perdew, Burke & Ernzerhof 1996
V l=0 = -2*Zval/r beyond r=  1.1000
V l=1 = -2*Zval/r beyond r=  1.1000
V l=2 = -2*Zval/r beyond r=  2.2154
V l=3 = -2*Zval/r beyond r=  1.1000
All V_l potentials equal beyond r=  2.2154
This should be close to max(r_c) in ps generation
All pots = -2*Zval/r beyond r=  2.2154

VLOCAL1: 99.0% of the norm of Vloc inside      8.845 Ry
VLOCAL1: 99.9% of the norm of Vloc inside     20.157 Ry
atom: Maximum radius for 4*pi*r*r*local-pseudopot. charge    2.67231
atom: Maximum radius for r*vlocal+2*Zval:    2.32897
GHOST: No ghost state for L =  0
GHOST: No ghost state for L =  1
GHOST: No ghost state for L =  2
GHOST: No ghost state for L =  3

KBgen: Kleinman-Bylander projectors: 
   l= 0   rc=  2.243238   el= -1.759686   Ekb=**********   kbcos= -0.171774
   l= 1   rc=  2.328968   el= -0.663873   Ekb=-14.506792   kbcos= -0.519897
   l= 2   rc=  2.573941   el=  0.002031   Ekb= -1.137373   kbcos= -0.019581
   l= 3   rc=  2.606321   el=  0.003153   Ekb= -1.013546   kbcos= -0.003122

KBgen: Total number of Kleinman-Bylander projectors:   16
atom: -------------------------------------------------------------------------

atom: SANKEY-TYPE ORBITALS:
atom: Selected multiple-zeta basis: split     

SPLIT: Orbitals with angular momentum L= 0

SPLIT: Basis orbitals for state 2s

SPLIT: PAO cut-off radius determined from an
SPLIT: energy shift=  0.002000 Ry

   izeta = 1
                 lambda =    1.000000
                     rc =    4.243912
                 energy =   -1.758270
                kinetic =    3.286084
    potential(screened) =   -5.044353
       potential(ionic) =  -12.921184

   izeta = 2
                 rmatch =    2.187845
              splitnorm =    0.280000
                 energy =   -0.885018
                kinetic =    8.134434
    potential(screened) =   -9.019452
       potential(ionic) =  -17.710645

SPLIT: Orbitals with angular momentum L= 1

SPLIT: Basis orbitals for state 2p

SPLIT: PAO cut-off radius determined from an
SPLIT: energy shift=  0.002000 Ry

   izeta = 1
                 lambda =    1.000000
                     rc =    5.314825
                 energy =   -0.661986
                kinetic =    4.917472
    potential(screened) =   -5.579458
       potential(ionic) =  -13.236259

   izeta = 2
                 rmatch =    2.160663
              splitnorm =    0.280000
                 energy =   -0.068760
                kinetic =    9.183374
    potential(screened) =   -9.252135
       potential(ionic) =  -18.274251

POLgen: Perturbative polarization orbital with L=  2

POLgen: Polarization orbital for state 2p

   izeta = 1
                     rc =    5.314825
                 energy =    1.970580
                kinetic =    3.886128
    potential(screened) =   -1.915547
       potential(ionic) =   -7.749584
atom: Total number of Sankey-type orbitals: 13

atm_pop: Valence configuration (for local Pseudopot. screening):
 2s( 2.00)                                                            
 2p( 4.00)                                                            
Vna: chval, zval:    6.00000   6.00000

Vna:  Cut-off radius for the neutral-atom potential:   5.314825

atom: _________________________________________________________________________

prinput: Basis input ----------------------------------------------------------

PAO.BasisType split     

%block ChemicalSpeciesLabel
    1    1 H                       # Species index, atomic number, species label
    2    7 N                       # Species index, atomic number, species label
    3   14 Si                      # Species index, atomic number, species label
    4    8 O                       # Species index, atomic number, species label
%endblock ChemicalSpeciesLabel

%block PAO.Basis                 # Define Basis set
H                     1                    # Species label, number of l-shells
 n=1   0   2 P   1                   # n, l, Nzeta, Polarization, NzetaPol
   6.518      2.141   
   1.000      1.000   
N                     2                    # Species label, number of l-shells
 n=2   0   2                         # n, l, Nzeta 
   4.730      2.532   
   1.000      1.000   
 n=2   1   2 P   1                   # n, l, Nzeta, Polarization, NzetaPol
   5.924      2.532   
   1.000      1.000   
Si                    2                    # Species label, number of l-shells
 n=3   0   2                         # n, l, Nzeta 
   6.430      3.998   
   1.000      1.000   
 n=3   1   2 P   1                   # n, l, Nzeta, Polarization, NzetaPol
   8.465      4.588   
   1.000      1.000   
O                     2                    # Species label, number of l-shells
 n=2   0   2                         # n, l, Nzeta 
   4.244      2.188   
   1.000      1.000   
 n=2   1   2 P   1                   # n, l, Nzeta, Polarization, NzetaPol
   5.315      2.161   
   1.000      1.000   
%endblock PAO.Basis

prinput: ----------------------------------------------------------------------

Dumping basis to NetCDF file H.ion.nc
Dumping basis to NetCDF file N.ion.nc
Dumping basis to NetCDF file Si.ion.nc
Dumping basis to NetCDF file O.ion.nc
coor:   Atomic-coordinates input format  =     Cartesian coordinates
coor:                                          (in Angstroms)

siesta: Atomic coordinates (Bohr) and species
siesta:      4.31792  -9.81768   0.00000  1        1
siesta:      2.59711  -8.81503   0.00000  2        2
siesta:     -0.41253 -10.38326   0.00000  3        3
siesta:     -0.33040 -13.20006   0.00000  1        4
siesta:     -3.14019  -8.66630   0.00000  2        5
siesta:     -2.06030  -5.43214   0.00000  3        6
siesta:     -2.89201  -1.33728   0.00000  3        7
siesta:     -5.94160  -0.17360   0.00000  2        8
siesta:     -6.43014   1.81127   0.00000  1        9
siesta:     -7.46581  -1.44982   0.00000  1       10
siesta:     -0.33706   0.78140   0.00000  2       11
siesta:      2.82552  -0.08957   0.00000  3       12
siesta:      4.64124   2.09244   0.00000  1       13
siesta:      4.35491  -2.99662   0.00000  2       14
siesta:      2.09241  -5.37836   0.00000  3       15
siesta:      1.06745  14.33420   0.00000  1       16
siesta:     -0.46079  13.02612   0.00000  2       17
siesta:     -3.59129  14.37372   0.00000  3       18
siesta:     -3.40824  17.22858   0.00000  1       19
siesta:     -6.85326  11.83573   0.00000  3       20
siesta:    -11.30253  11.82063   0.00000  3       21
siesta:    -12.36535  13.20862  -2.27113  1       22
siesta:    -11.86910   9.02555  -0.16286  1       23
siesta:    -12.36556  12.88801   2.43425  1       24
siesta:     -5.09696   7.92291   0.00000  3       25
siesta:     -6.89120   5.48793   0.00000  4       26
siesta:     -1.71257   7.59460   0.00000  2       27
siesta:     -1.08708   5.64373   0.00000  1       28
siesta:      0.76006   9.85197   0.00000  3       29
siesta:      3.71926   9.34694   0.00000  4       30

siesta: Automatic unit cell vectors (Ang):
siesta:   18.078550    0.000000    0.000000
siesta:    0.000000   25.300933    0.000000
siesta:    0.000000    0.000000   10.327559

siesta: System type = molecule  

initatomlists: Number of atoms, orbitals, and projectors:     30   302   403

siesta: ******************** Simulation parameters ****************************
siesta:
siesta: The following are some of the parameters of the simulation.
siesta: A complete list of the parameters used, including default values,
siesta: can be found in file out.fdf
siesta:
redata: Spin configuration                          = spin-orbit
redata: Number of spin components                   = 8
redata: Time-Reversal Symmetry                      = F
redata: Spin spiral                                 = F
############################################################
This spin-orbit implementation uses a local approximation.
From 4.2 and onwards the full non-local approximation is implemented
You are strongly advised to use >=4.2 versions!
############################################################
redata: Long output                                 =   F
redata: Number of Atomic Species                    =        4
redata: Charge density info will appear in .RHO file
redata: Write Mulliken Pop.                         = NO
redata: Matel table size (NRTAB)                    =     1024
redata: Mesh Cutoff                                 =   340.0000 Ry
redata: Net charge of the system                    =     0.0000 |e|
redata: Min. number of SCF Iter                     =        1
redata: Max. number of SCF Iter                     =      300
redata: SCF convergence failure will abort job
redata: SCF mix quantity                            = Hamiltonian
redata: Mix DM or H after convergence               =   F
redata: Recompute H after scf cycle                 =   F
redata: Mix DM in first SCF step                    =   T
redata: Write Pulay info on disk                    =   F
redata: New DM Occupancy tolerance                  = 0.000000000001
redata: No kicks to SCF
redata: DM Mixing Weight for Kicks                  =     0.5000
redata: Require Harris convergence for SCF          =   F
redata: Harris energy tolerance for SCF             =     0.000100 eV
redata: Require DM convergence for SCF              =   T
redata: DM tolerance for SCF                        =     0.000008
redata: Require EDM convergence for SCF             =   F
redata: EDM tolerance for SCF                       =     0.001000 eV
redata: Require H convergence for SCF               =   T
redata: Hamiltonian tolerance for SCF               =     0.000001 eV
redata: Require (free) Energy convergence for SCF   =   F
redata: (free) Energy tolerance for SCF             =     0.000100 eV
redata: Using Saved Data (generic)                  =   F
redata: Use continuation files for DM               =   T
redata: Neglect nonoverlap interactions             =   F
redata: Method of Calculation                       = Diagonalization
redata: Electronic Temperature                      =   299.9978 K
redata: Fix the spin of the system                  =   F
redata: Dynamics option                             = Verlet MD run
redata: Initial MD time step                        =        1
redata:   Final MD time step                        =        1
redata: Length of MD time step                      =     0.5000 fs
redata: Initial Temperature of MD run               =     0.0000 K
redata: Perform a MD quench                         =   F
mix.SCF: Pulay mixing                            = Pulay
mix.SCF:    Variant                              = stable
mix.SCF:    History steps                        = 6
mix.SCF:    Linear mixing weight                 =     0.250000
mix.SCF:    Mixing weight                        =     0.250000
mix.SCF:    SVD condition                        = 0.1000E-07
mix.SCF:    Restart steps                        = 24
mix.SCF:    Restart save steps                   = 3
mix.SCF: Spin-component mixing                   all
redata: Save all siesta data in one NC              =   F
redata: ***********************************************************************

%block SCF.Mixers
  Pulay
%endblock SCF.Mixers

%block SCF.Mixer.Pulay
  # Mixing method
  method pulay
  variant stable

  # Mixing options
  weight 0.2500
  weight.linear 0.2500
  history 6
  restart 24
  restart.save 3
%endblock SCF.Mixer.Pulay

Size of DM history Fstack: 3
Total number of electrons:    98.000000
Total ionic charge:    98.000000

* ProcessorY, Blocksize:    4   9


* Orbital distribution balance (max,min):    18     9


Time-reversal symmetry not used.

siesta: k-grid: Number of k-points =     1
siesta: k-grid: Cutoff (effective) =     5.164 Ang
siesta: k-grid: Supercell and displacements
siesta: k-grid:    1   0   0      0.000
siesta: k-grid:    0   1   0      0.000
siesta: k-grid:    0   0   1      0.000

diag: Algorithm                                     = ELPA-1stage
diag: Parallel over k                               =   F
diag: Use parallel 2D distribution                  =   T
diag: Parallel block-size                           = 9
diag: Parallel distribution                         =     4 x     8
diag: Used triangular part                          = Lower
diag: Absolute tolerance                            =  0.100E-15
diag: Orthogonalization factor                      =  0.100E-05
diag: Memory factor                                 =  1.0000


ts: **************************************************************
ts: Save H and S matrices                           =    F
ts: Save DM and EDM matrices                        =    F
ts: Only save the overlap matrix S                  =    F
ts: **************************************************************

************************ Begin: TS CHECKS AND WARNINGS ************************
************************ End: TS CHECKS AND WARNINGS **************************


                     ====================================
                        Begin MD step =      1
                     ====================================

outcoor: Atomic coordinates (Ang):                          
    2.28494382   -5.19529124    0.00000000   1       1  H
    1.37433094   -4.66471070    0.00000000   2       2  N
   -0.21830245   -5.49458215    0.00000000   3       3  Si
   -0.17484108   -6.98516892    0.00000000   1       4  H
   -1.66171682   -4.58600741    0.00000000   2       5  N
   -1.09026419   -2.87456374    0.00000000   3       6  Si
   -1.53038332   -0.70765692    0.00000000   3       7  Si
   -3.14415959   -0.09186471    0.00000000   2       8  N
   -3.40268075    0.95848335    0.00000000   1       9  H
   -3.95073599   -0.76720972    0.00000000   1      10  H
   -0.17836637    0.41349951    0.00000000   2      11  N
    1.49520211   -0.04739960    0.00000000   3      12  Si
    2.45603905    1.10727302    0.00000000   1      13  H
    2.30451743   -1.58574382    0.00000000   2      14  N
    1.10725559   -2.84610319    0.00000000   3      15  Si
    0.56487069    7.58532805    0.00000000   1      16  H
   -0.24383999    6.89312217    0.00000000   2      17  N
   -1.90042983    7.60624227    0.00000000   3      18  Si
   -1.80356466    9.11696748    0.00000000   1      19  H
   -3.62658618    6.26319414    0.00000000   3      20  Si
   -5.98104043    6.25520721    0.00000000   3      21  Si
   -6.54345855    6.98969686   -1.20183078   1      22  H
   -6.28085418    4.77611608   -0.08618332   1      23  H
   -6.54357101    6.82003967    1.28814761   1      24  H
   -2.69719554    4.19262291    0.00000000   3      25  Si
   -3.64666390    2.90408678    0.00000000   4      26  O
   -0.90625067    4.01888744    0.00000000   2      27  N
   -0.57525931    2.98653046    0.00000000   1      28  H
    0.40220755    5.21343386    0.00000000   3      29  Si
    1.96814448    4.94618701    0.00000000   4      30  O

outcell: Unit cell vectors (Ang):
       18.078550    0.000000    0.000000
        0.000000   25.300933    0.000000
        0.000000    0.000000   10.327559

outcell: Cell vector modules (Ang)   :   18.078550   25.300933   10.327559
outcell: Cell angles (23,13,12) (deg):     90.0000     90.0000     90.0000
outcell: Cell volume (Ang**3)        :   4723.8687
<dSpData1D:S at geom step 1
  <sparsity:sparsity for geom step 1
    nrows_g=302 nrows=18 sparsity=.0346 nnzs=3158, refcount: 8>
  <dData1D:(new from dSpData1D) n=3158, refcount: 1>
refcount: 1>
new_DM -- step:     1
Initializing Density Matrix...

Attempting to read DM from file... Failed...
DM filled with atomic data:
<dSpData2D:DM initialized from atoms
  <sparsity:sparsity for geom step 1
    nrows_g=302 nrows=18 sparsity=.0346 nnzs=3158, refcount: 9>
  <dData2D:DM n=3158 m=8, refcount: 1>
refcount: 1>
     spin moment: S , {S} =   56.00000   0.00000   0.00000  56.00000
No. of atoms with KB's overlaping orbs in proc 0. Max # of overlaps:      23     172

Initializing spin-orbit part of the Hamiltonian
  Adding spin-orbit effects for H 
  Adding spin-orbit effects for N 
  Adding spin-orbit effects for Si
  Adding spin-orbit effects for O 


New grid distribution:   1
           1       1:  108    1:   36    1:    8
           2       1:  108    1:   36    9:   16
           3       1:  108    1:   36   17:   24
           4       1:  108    1:   36   25:   32
           5       1:  108    1:   36   33:   39
           6       1:  108    1:   36   40:   46
           7       1:  108    1:   36   47:   53
           8       1:  108    1:   36   54:   60
           9       1:  108   37:   72    1:    8
          10       1:  108   37:   72    9:   16
          11       1:  108   37:   72   17:   24
          12       1:  108   37:   72   25:   32
          13       1:  108   37:   72   33:   39
          14       1:  108   37:   72   40:   46
          15       1:  108   37:   72   47:   53
          16       1:  108   37:   72   54:   60
          17       1:  108   73:  108    1:    8
          18       1:  108   73:  108    9:   16
          19       1:  108   73:  108   17:   24
          20       1:  108   73:  108   25:   32
          21       1:  108   73:  108   33:   39
          22       1:  108   73:  108   40:   46
          23       1:  108   73:  108   47:   53
          24       1:  108   73:  108   54:   60
          25       1:  108  109:  144    1:    8
          26       1:  108  109:  144    9:   16
          27       1:  108  109:  144   17:   24
          28       1:  108  109:  144   25:   32
          29       1:  108  109:  144   33:   39
          30       1:  108  109:  144   40:   46
          31       1:  108  109:  144   47:   53
          32       1:  108  109:  144   54:   60

InitMesh: MESH =   216 x   288 x   120 =     7464960
InitMesh: (bp) =   108 x   144 x    60 =      933120
InitMesh: Mesh cutoff (required, used) =   340.000   358.108 Ry
ExtMesh (bp) on 0 =   216 x   140 x   116 =     3507840
New grid distribution:   2
           1      15:   87    1:   24    1:   18
           2       1:   14    1:   24    1:   18
           3      88:   98    1:   21   18:   60
           4      14:   87    1:   24   19:   60
           5       1:   67   25:   41   22:   60
           6       1:   10   42:  124    1:   20
           7       1:   13    1:   24   19:   60
           8      98:  108   22:   41    1:   21
           9      11:   81   42:  124    1:   20
          10       1:   66   25:   41    1:   21
          11      99:  108    1:   21   18:   60
          12      88:   97   22:   41    1:   21
          13       1:   10   42:  124   21:   60
          14      99:  108   42:  122    1:   20
          15      98:  108   22:   41   22:   60
          16      88:   98    1:   21    1:   17
          17      82:   98   42:  122    1:   20
          18      88:   97   22:   41   22:   60
          19       1:    9  125:  144    1:   20
          20      11:   81   42:  124   21:   60
          21      82:   98   42:  122   21:   60
          22      68:   87   25:   41   22:   60
          23      67:   87   25:   41    1:   21
          24      99:  108    1:   21    1:   17
          25      10:   81  125:  144    1:   20
          26      82:   99  123:  144    1:   20
          27     100:  108  123:  144    1:   20
          28      10:   81  125:  144   21:   60
          29      99:  108   42:  122   21:   60
          30      82:   99  123:  144   21:   60
          31     100:  108  123:  144   21:   60
          32       1:    9  125:  144   21:   60
New grid distribution:   3
           1      25:   69   28:   49    1:   25
           2       1:   17    1:   27   26:   60
           3      70:   90    1:   26    1:   25
           4      18:   69    1:   27   26:   60
           5      17:   75  118:  144    1:   25
           6      70:   90    1:   26   26:   60
           7      91:  108    1:   26   26:   60
           8       1:   18    1:   27    1:   25
           9      14:   75   50:  117    1:   24
          10       1:   16  118:  144   26:   60
          11       1:   24   28:   49    1:   25
          12      97:  108   50:  113   25:   60
          13      25:   69   28:   49   26:   60
          14       1:   24   28:   49   26:   60
          15      89:  108   27:   49   27:   60
          16      70:   89   27:   49    1:   26
          17      76:   96   50:  113    1:   24
          18      97:  108   50:  113    1:   24
          19      91:  108    1:   26    1:   25
          20      14:   75   50:  117   25:   60
          21      76:   96   50:  113   25:   60
          22       1:   13   50:  117   25:   60
          23      70:   88   27:   49   27:   60
          24      90:  108   27:   49    1:   26
          25       1:   13   50:  117    1:   24
          26      76:   94  114:  144    1:   25
          27      95:  108  114:  144    1:   25
          28      17:   75  118:  144   26:   60
          29      19:   69    1:   27    1:   25
          30      76:   94  114:  144   26:   60
          31      95:  108  114:  144   26:   60
          32       1:   16  118:  144    1:   25
Setting up quadratic distribution...
ExtMesh (bp) on 0 =   181 x   128 x   126 =     2919168
PhiOnMesh: Number of (b)points on node 0 =                31536
PhiOnMesh: nlist on node 0 =               431288

stepf: Fermi-Dirac step function

siesta: Program's energy decomposition (eV):
siesta: Ebs     =      -638.271598
siesta: Eions   =      3553.971015
siesta: Ena     =       374.853417
siesta: Ekin    =      3166.443745
siesta: Enl     =     -2980.643171
siesta: Eso     =        -0.003907
siesta: Edftu   =         0.000000
siesta: DEna    =       129.752587
siesta: DUscf   =        73.693555
siesta: DUext   =         0.000000
siesta: Exc     =     -1167.750959
siesta: eta*DQ  =         0.000000
siesta: Emadel  =         0.000000
siesta: Emeta   =         0.000000
siesta: Emolmec =         0.000000
siesta: Ekinion =         0.000000
siesta: Eharris =     -3889.440249
siesta: Etot    =     -3957.625750
siesta: FreeEng =     -3957.629076

        iscf     Eharris(eV)        E_KS(eV)     FreeEng(eV)     dDmax    Ef(eV) dHmax(eV)
   scf:    1    -3889.440249    -3957.625750    -3957.629076  0.968957 -4.936914 20.466226
     spin moment: S , {S} =    2.02372  -0.00000  -0.00000   2.02372
timer: Routine,Calls,Time,% = IterSCF        1       3.943   9.23
   scf:    2    -3999.848351    -3990.719053    -3990.719060  0.463274 -4.281657 10.138663
     spin moment: S , {S} =    2.00009   0.00000  -0.00000   2.00009
   scf:    3    -3987.930315    -3994.436583    -3994.471368  0.423139 -4.168256  7.026679
     spin moment: S , {S} =    0.64227  -0.00000   0.00000   0.64227
   scf:    4    -4000.581295    -3998.023155    -3998.023155  0.089273 -3.904601  4.269411
     spin moment: S , {S} =    0.00009  -0.00000   0.00000   0.00009
   scf:    5    -3999.511744    -3998.815310    -3998.815310  0.031498 -3.816199  2.196366
     spin moment: S , {S} =    0.00005  -0.00000   0.00000   0.00005
   scf:    6    -3999.416266    -3999.119917    -3999.119917  0.023878 -3.836103  1.174337
     spin moment: S , {S} =    0.00003  -0.00000   0.00000   0.00003
   scf:    7    -3999.417776    -3999.263084    -3999.263084  0.020415 -3.886743  0.572090
     spin moment: S , {S} =    0.00001  -0.00000   0.00000   0.00001
   scf:    8    -3999.351551    -3999.305598    -3999.305599  0.010183 -3.916132  0.295091
     spin moment: S , {S} =    0.00000  -0.00000   0.00000   0.00000
   scf:    9    -3999.346151    -3999.324816    -3999.324820  0.006999 -3.929976  0.177374
     spin moment: S , {S} =    0.00000  -0.00000   0.00000  -0.00000
   scf:   10    -3999.355456    -3999.338342    -3999.338354  0.010579 -3.936933  0.088854
     spin moment: S , {S} =    0.00002  -0.00000   0.00000  -0.00002
   scf:   11    -3999.343930    -3999.340915    -3999.340927  0.004881 -3.933465  0.042249
     spin moment: S , {S} =    0.00001  -0.00000  -0.00000  -0.00001
   scf:   12    -3999.342861    -3999.341825    -3999.341838  0.002769 -3.932675  0.033184
     spin moment: S , {S} =    0.00000  -0.00000  -0.00000  -0.00000
   scf:   13    -3999.342887    -3999.342319    -3999.342331  0.002209 -3.931903  0.028580
     spin moment: S , {S} =    0.00000  -0.00000  -0.00000  -0.00000
   scf:   14    -3999.343397    -3999.342772    -3999.342784  0.003382 -3.931284  0.015098
     spin moment: S , {S} =    0.00000  -0.00000  -0.00000  -0.00000
   scf:   15    -3999.343030    -3999.342878    -3999.342890  0.001889 -3.931008  0.007849
     spin moment: S , {S} =    0.00000  -0.00000  -0.00000  -0.00000
   scf:   16    -3999.342923    -3999.342897    -3999.342909  0.000751 -3.931085  0.004534
     spin moment: S , {S} =    0.00000  -0.00000  -0.00000  -0.00000
   scf:   17    -3999.342912    -3999.342904    -3999.342916  0.000444 -3.931197  0.003146
     spin moment: S , {S} =    0.00000  -0.00000  -0.00000  -0.00000
   scf:   18    -3999.342912    -3999.342907    -3999.342919  0.000336 -3.931325  0.001700
     spin moment: S , {S} =    0.00000  -0.00000  -0.00000  -0.00000
   scf:   19    -3999.342910    -3999.342908    -3999.342920  0.000176 -3.931346  0.001012
     spin moment: S , {S} =    0.00000  -0.00000  -0.00000   0.00000
   scf:   20    -3999.342910    -3999.342909    -3999.342921  0.000145 -3.931341  0.000470
     spin moment: S , {S} =    0.00000  -0.00000  -0.00000   0.00000
   scf:   21    -3999.342909    -3999.342909    -3999.342921  0.000070 -3.931320  0.000289
     spin moment: S , {S} =    0.00000  -0.00000  -0.00000   0.00000
   scf:   22    -3999.342909    -3999.342909    -3999.342921  0.000038 -3.931319  0.000235
     spin moment: S , {S} =    0.00000  -0.00000  -0.00000  -0.00000
   scf:   23    -3999.342909    -3999.342909    -3999.342921  0.000012 -3.931323  0.000163
     spin moment: S , {S} =    0.00000  -0.00000  -0.00000  -0.00000
   scf:   24    -3999.342909    -3999.342909    -3999.342921  0.000015 -3.931325  0.000090
     spin moment: S , {S} =    0.00000  -0.00000  -0.00000  -0.00000
mix: Pulay -- resetting history
   scf:   25    -3999.342909    -3999.342909    -3999.342921  0.000012 -3.931325  0.000034
     spin moment: S , {S} =    0.00000  -0.00000   0.00000  -0.00000
   scf:   26    -3999.342909    -3999.342909    -3999.342921  0.000003 -3.931324  0.000013
     spin moment: S , {S} =    0.00000  -0.00000   0.00000  -0.00000
   scf:   27    -3999.342909    -3999.342909    -3999.342921  0.000001 -3.931324  0.000006
     spin moment: S , {S} =    0.00000  -0.00000   0.00000  -0.00000
   scf:   28    -3999.342909    -3999.342909    -3999.342921  0.000000 -3.931324  0.000005
     spin moment: S , {S} =    0.00000  -0.00000  -0.00000  -0.00000
   scf:   29    -3999.342909    -3999.342909    -3999.342921  0.000000 -3.931324  0.000004
     spin moment: S , {S} =    0.00000  -0.00000   0.00000  -0.00000
   scf:   30    -3999.342909    -3999.342909    -3999.342921  0.000001 -3.931324  0.000002
     spin moment: S , {S} =    0.00000   0.00000   0.00000  -0.00000
   scf:   31    -3999.342909    -3999.342909    -3999.342921  0.000000 -3.931324  0.000001
     spin moment: S , {S} =    0.00000  -0.00000   0.00000  -0.00000
   scf:   32    -3999.342909    -3999.342909    -3999.342921  0.000000 -3.931324  0.000001
     spin moment: S , {S} =    0.00000  -0.00000   0.00000  -0.00000
   scf:   33    -3999.342909    -3999.342909    -3999.342921  0.000000 -3.931324  0.000001
     spin moment: S , {S} =    0.00000  -0.00000   0.00000  -0.00000

SCF Convergence by DM+H criterion
max |DM_out - DM_in|         :     0.0000000810
max |H_out - H_in|      (eV) :     0.0000007785
SCF cycle converged after 33 iterations

Using DM_out to compute the final energy and forces
No. of atoms with KB's overlaping orbs in proc 0. Max # of overlaps:      23     172

siesta: E_KS(eV) =            -3999.3429

siesta: E_KS - E_eggbox =     -3999.3429
     spin moment: S , {S} =    0.00000  -0.00000   0.00000  -0.00000

siesta: Atomic forces (eV/Ang):
     1    0.098207    0.036222   -0.000000
     2   -0.015321    0.003787   -0.000001
     3   -0.011161   -0.001131   -0.000000
     4    0.064448   -0.101737    0.000000
     5    0.001160   -0.038480   -0.000001
     6   -0.066009    0.007935   -0.000001
     7    0.367200    0.033614   -0.000007
     8   -0.301937    0.878510    0.000029
     9    0.036354   -0.305134   -0.000056
    10   -0.024767   -0.010398   -0.000000
    11   -0.055294   -0.073310    0.000006
    12   -0.104550    0.018097    0.000001
    13   -0.144746    0.013124    0.000000
    14    0.002727   -0.045338   -0.000001
    15    0.037195    0.040128    0.000004
    16   -0.061895   -0.089291   -0.000942
    17    0.016738   -0.026892   -0.000819
    18   -0.043663    0.009434    0.005392
    19    0.031575   -0.098627   -0.001526
    20    0.039078    0.029739   -0.001031
    21    0.019360   -0.006064   -0.005968
    22    0.096112    0.014520    0.103969
    23    0.034808    0.008554   -0.016752
    24    0.096034    0.082299   -0.082182
    25   -0.215363   -0.174632    0.000977
    26   -0.414220   -1.396964    0.000446
    27    0.135994   -0.263531   -0.000547
    28   -0.209082    0.297180   -0.000088
    29    0.066291    0.054471   -0.000184
    30    0.344595   -4.215640    0.000232
----------------------------------------
   Tot   -0.180131   -5.319554    0.000948
----------------------------------------
   Max    4.215640
   Res    0.489471    sqrt( Sum f_i^2 / 3N )
----------------------------------------
   Max    4.215640    constrained

Stress tensor Voigt[x,y,z,yz,xz,xy] (kbar):        0.57        0.78       -0.06       -0.02        0.00        0.24
(Free)E + p*V (eV/cell)    -4000.6189
Target enthalpy (eV/cell)    -3999.3429

siesta: Stress tensor (static) (eV/Ang**3):
         0.000359    0.000153    0.000001
         0.000153    0.000488   -0.000012
         0.000001   -0.000012   -0.000036

siesta: Pressure (static):         -0.43278284  kBar

siesta: Stress tensor (total) (eV/Ang**3):
         0.000359    0.000153    0.000001
         0.000153    0.000488   -0.000012
         0.000001   -0.000012   -0.000036

siesta: Pressure (total):         -0.43278284  kBar

siesta: Temp_ion =       0.000 K

siesta: Eigenvalues (eV):
ik =     1
  -22.9237  -22.9237  -22.7623  -22.7623  -21.8189  -21.8189  -21.2883  -21.2883  -21.0734  -21.0734
  -20.5227  -20.5227  -19.4840  -19.4840  -19.2933  -19.2933  -18.7224  -18.7224  -15.1618  -15.1618
  -14.2201  -14.2201  -13.6675  -13.6675  -13.5958  -13.5958  -13.2041  -13.2041  -12.9344  -12.9344
  -12.4851  -12.4851  -11.9941  -11.9941  -11.9448  -11.9448  -11.5130  -11.5130  -11.4617  -11.4617
  -10.8953  -10.8953  -10.7157  -10.7157  -10.2454  -10.2454   -9.7411   -9.7411   -9.4173   -9.4173
   -9.2887   -9.2887   -9.1564   -9.1564   -9.0921   -9.0921   -8.8670   -8.8670   -8.7036   -8.7036
   -8.5091   -8.5091   -8.3036   -8.3036   -8.1849   -8.1849   -8.1170   -8.1170   -8.1104   -8.1104
   -7.8951   -7.8951   -7.4371   -7.4371   -7.3907   -7.3907   -7.3801   -7.3801   -6.9522   -6.9522
   -6.9134   -6.9134   -6.7715   -6.7715   -6.6576   -6.6576   -6.3956   -6.3956   -6.3310   -6.3310
   -5.8632   -5.8632   -5.8223   -5.8223   -5.6377   -5.6377   -4.2313   -4.2313   -3.6314   -3.6314
   -2.8205   -2.8205   -2.3592   -2.3592   -2.2635   -2.2635   -2.2167   -2.2167   -2.1219   -2.1219
   -1.9975   -1.9975   -1.7870   -1.7870   -1.7402   -1.7402   -1.6075   -1.6075   -1.4516   -1.4516
   -1.2320   -1.2320   -0.5093   -0.5093   -0.3745   -0.3745   -0.2734   -0.2734   -0.2494   -0.2494
   -0.1087   -0.1087   -0.0655   -0.0655    0.1350    0.1350    0.5464    0.5464    0.5533    0.5533
    0.6055    0.6055    0.7774    0.7774    1.2492    1.2492    1.2902    1.2902    1.3304    1.3304
    1.4479    1.4479    1.6383    1.6383    1.7298    1.7298    2.0877    2.0877    2.2209    2.2209
    2.4124    2.4124    2.6528    2.6528    2.8090    2.8090    2.9732    2.9732    2.9908    2.9908
    3.0505    3.0505    3.1283    3.1283    3.1515    3.1515    3.2439    3.2439    3.5536    3.5536
    3.8371    3.8371    4.0197    4.0197    4.1978    4.1978    4.2389    4.2389    4.2993    4.2993
    4.4869    4.4869    4.6116    4.6116    4.7568    4.7568    4.9859    4.9859    5.0645    5.0645
    5.1854    5.1854    5.4521    5.4521    5.5777    5.5777    5.6138    5.6138    5.8022    5.8022
    5.8893    5.8893    6.1238    6.1238    6.1391    6.1391    6.3642    6.3642    6.4682    6.4682
    6.5996    6.5996    6.7275    6.7275    6.8851    6.8851    7.0990    7.0990    7.2228    7.2228
    7.3521    7.3521    7.4883    7.4883    7.7021    7.7021    7.7397    7.7397    7.9420    7.9420
    8.2505    8.2505    8.3722    8.3722    8.3868    8.3868    8.6276    8.6276    8.6982    8.6982
    8.8409    8.8409    9.0890    9.0890    9.1180    9.1180    9.3231    9.3231    9.6092    9.6092
    9.7302    9.7302    9.7586    9.7586    9.8381    9.8381    9.9805    9.9805   10.0979   10.0979
   10.6444   10.6444   10.6801   10.6801   10.8912   10.8912   11.0927   11.0927   11.2158   11.2158
   11.2785   11.2785   11.5400   11.5400   11.6783   11.6783   11.8227   11.8227   11.9026   11.9026
   12.2399   12.2399   12.3045   12.3045   12.4721   12.4721   12.6859   12.6859   12.8060   12.8060
   12.8803   12.8803   12.9673   12.9673   13.3540   13.3540   13.5514   13.5514   13.6840   13.6840
   13.8854   13.8854   14.1153   14.1153   14.4713   14.4713   14.9010   14.9010   14.9847   14.9847
   15.1286   15.1286   15.2051   15.2051   15.4351   15.4351   15.9952   15.9952   16.4616   16.4616
   16.8660   16.8660   16.9352   16.9352   17.0767   17.0767   17.1995   17.1995   17.6549   17.6549
   18.1357   18.1357   18.4869   18.4869   18.6470   18.6470   18.7477   18.7477   18.8001   18.8001
   18.8573   18.8573   19.2860   19.2860   19.6796   19.6796   19.9470   19.9470   20.6571   20.6571
   20.7910   20.7910   21.5449   21.5449   21.6731   21.6731   22.2009   22.2009   22.3150   22.3150
   22.4068   22.4068   23.0417   23.0417   23.2560   23.2560   23.2874   23.2874   24.3986   24.3986
   24.7003   24.7003   24.9271   24.9271   25.0362   25.0362   25.8374   25.8374   26.1061   26.1061
   26.5646   26.5646   26.6569   26.6569   26.8081   26.8081   27.8348   27.8348   28.0910   28.0910
   28.6358   28.6358   29.2436   29.2436   29.5995   29.5995   30.7371   30.7371   30.8100   30.8100
   30.9247   30.9247   31.2229   31.2229   31.3253   31.3253   31.4296   31.4296   31.9569   31.9569
   31.9919   31.9919   32.4421   32.4421   33.4296   33.4296   33.9355   33.9355   34.0623   34.0623
   34.1718   34.1718   34.7409   34.7409   34.9249   34.9249   35.8869   35.8869   36.0382   36.0382
   36.3716   36.3716   36.8072   36.8072   37.1530   37.1530   38.1797   38.1797   38.1880   38.1880
   38.3691   38.3691   39.0095   39.0095   39.1581   39.1581   39.7634   39.7634   40.2549   40.2549
   40.7326   40.7326   41.1482   41.1482   41.2984   41.2984   41.9149   41.9149   42.3825   42.3825
   42.9503   42.9503   43.2879   43.2879   43.5387   43.5387   43.8173   43.8173   43.9707   43.9707
   44.7587   44.7587   45.2613   45.2613   45.4618   45.4618   46.0210   46.0210   46.1254   46.1254
   46.4377   46.4377   46.8439   46.8439   47.3058   47.3058   47.9349   47.9349   48.2877   48.2877
   48.8111   48.8111   49.1739   49.1739   49.3235   49.3235   50.0367   50.0367   50.0779   50.0779
   50.3672   50.3672   50.5130   50.5130   50.6369   50.6369   52.1170   52.1170   52.2920   52.2920
   52.6945   52.6945   54.0601   54.0601   54.5756   54.5756   54.9622   54.9622   55.0388   55.0388
   56.3900   56.3900   56.6506   56.6506   57.1176   57.1176   57.1360   57.1360   57.5812   57.5812
   58.1357   58.1357   59.1824   59.1824   59.4699   59.4699   61.1759   61.1759   61.2715   61.2715
   62.0959   62.0959   63.0650   63.0650   63.6082   63.6082   64.5345   64.5345   65.8478   65.8478
   66.4864   66.4864   66.8032   66.8032   67.2469   67.2469   67.9237   67.9237   68.7671   68.7671
   71.3706   71.3706   72.1227   72.1227   77.3283   77.3283   81.7927   81.7927   88.7395   88.7395
   93.2094   93.2094   94.1778   94.1778   95.6800   95.6800   97.1963   97.1963  100.2470  100.2470
  102.3334  102.3334  102.6866  102.6866  117.6087  117.6087  120.9006  120.9006  123.9515  123.9515
  135.9513  135.9513  145.2011  145.2011
siesta: Fermi energy =      -3.931324 eV

siesta: Program's energy decomposition (eV):
siesta: Ebs     =     -1118.194723
siesta: Eions   =      3553.971015
siesta: Ena     =       374.853417
siesta: Ekin    =      2744.116883
siesta: Enl     =     -2523.912745
siesta: Eso     =        -0.004686
siesta: Edftu   =         0.000000
siesta: DEna    =        37.208313
siesta: DUscf   =        13.659696
siesta: DUext   =         0.000000
siesta: Exc     =     -1091.292772
siesta: eta*DQ  =         0.000000
siesta: Emadel  =         0.000000
siesta: Emeta   =         0.000000
siesta: Emolmec =         0.000000
siesta: Ekinion =         0.000000
siesta: Eharris =     -3999.342909
siesta: Etot    =     -3999.342909
siesta: FreeEng =     -3999.342921

siesta: Final energy (eV):
siesta:  Band Struct. =   -1118.194723
siesta:       Kinetic =    2744.116883
siesta:       Hartree =    8060.366762
siesta:       Edftu   =       0.000000
siesta:       Eso     =      -0.004686
siesta:    Ext. field =       0.000000
siesta:   Exch.-corr. =   -1091.292772
siesta:  Ion-electron =  -18566.730701
siesta:       Ion-ion =    4854.201604
siesta:       Ekinion =       0.000000
siesta:         Total =   -3999.342909
siesta:         Fermi =      -3.931324

siesta: Atomic forces (eV/Ang):
siesta:      1    0.098207    0.036222   -0.000000
siesta:      2   -0.015321    0.003787   -0.000001
siesta:      3   -0.011161   -0.001131   -0.000000
siesta:      4    0.064448   -0.101737    0.000000
siesta:      5    0.001160   -0.038480   -0.000001
siesta:      6   -0.066009    0.007935   -0.000001
siesta:      7    0.367200    0.033614   -0.000007
siesta:      8   -0.301937    0.878510    0.000029
siesta:      9    0.036354   -0.305134   -0.000056
siesta:     10   -0.024767   -0.010398   -0.000000
siesta:     11   -0.055294   -0.073310    0.000006
siesta:     12   -0.104550    0.018097    0.000001
siesta:     13   -0.144746    0.013124    0.000000
siesta:     14    0.002727   -0.045338   -0.000001
siesta:     15    0.037195    0.040128    0.000004
siesta:     16   -0.061895   -0.089291   -0.000942
siesta:     17    0.016738   -0.026892   -0.000819
siesta:     18   -0.043663    0.009434    0.005392
siesta:     19    0.031575   -0.098627   -0.001526
siesta:     20    0.039078    0.029739   -0.001031
siesta:     21    0.019360   -0.006064   -0.005968
siesta:     22    0.096112    0.014520    0.103969
siesta:     23    0.034808    0.008554   -0.016752
siesta:     24    0.096034    0.082299   -0.082182
siesta:     25   -0.215363   -0.174632    0.000977
siesta:     26   -0.414220   -1.396964    0.000446
siesta:     27    0.135994   -0.263531   -0.000547
siesta:     28   -0.209082    0.297180   -0.000088
siesta:     29    0.066291    0.054471   -0.000184
siesta:     30    0.344595   -4.215640    0.000232
siesta: ----------------------------------------
siesta:    Tot   -0.180131   -5.319554    0.000948

siesta: Stress tensor (static) (eV/Ang**3):
siesta:     0.000359    0.000153    0.000001
siesta:     0.000153    0.000488   -0.000012
siesta:     0.000001   -0.000012   -0.000036

siesta: Cell volume =       4723.868664 Ang**3

siesta: Pressure (static):
siesta:                Solid            Molecule  Units
siesta:          -0.00000294          0.00000934  Ry/Bohr**3
siesta:          -0.00027012          0.00085748  eV/Ang**3
siesta:          -0.43278284          1.37385452  kBar
(Free)E+ p_basis*V_orbitals  =       -3978.214836
(Free)Eharris+ p_basis*V_orbitals  =       -3978.214836
     spin moment: S , {S} =    0.00000  -0.00000   0.00000  -0.00000

siesta: Electric dipole (a.u.)  =   -1.301867    2.032510   -0.001729
siesta: Electric dipole (Debye) =   -3.309017    5.166129   -0.004394

cite: Please see "AT.bib" for an exhaustive BiBTeX file.
cite: Please clearly indicate Siesta version in published work: v4.1.5-1-g384057250
cite: This calculation has made use of the following articles
cite: which are encouraged to be cited in a published work.
        Primary SIESTA paper
          DOI: www.doi.org/10.1088/0953-8984/14/11/302
        Spin-orbit coupling (on-site approximation)
          DOI: www.doi.org/10.1088/0953-8984/19/19/489001


WARNING: alloc-realloc-dealloc name mismatch
         Name: atomlist isa
         Size:              -120. Bytes
         Node:     0
         Subsequent mismatches will not be reported
>> End of run:  16-OCT-2023  20:21:49
Job completed
