Siesta Version  : v4.1.5-1-g384057250
Architecture    : gcc
Compiler version: GNU Fortran (Ubuntu 11.3.0-1ubuntu1~22.04) 11.3.0
Compiler flags  : mpifort -O2 -fPIC -ftree-vectorize -fallow-argument-mismatch
PP flags        : -DFC_HAVE_ABORT -DMPI -DSIESTA__FLOOK -DSIESTA__METIS -DSIESTA__MUMPS -DCDF -DNCDF -DNCDF_4 -DNCDF_PARALLEL -DSIESTA__MRRR -DSIESTA__ELPA
Libraries       : libncdf.a libfdict.a  -lflookall -ldl -lnetcdff -lnetcdf -lhdf5_hl -lhdf5 -lhdf5_fortran -lz -lscalapack-openmpi -lopenblas -lmetis -lzmumps -lcmumps -ldmumps -lmumps_common -lpord -lsmumps -lesmumps -lscotch -lscotcherr -fopenmp -lelpa
PARALLEL version
NetCDF support
NetCDF-4 support
NetCDF-4 MPI-IO support
METIS ordering support
Lua support

* Running on 4 nodes in parallel
>> Start of run:   4-JUL-2023   9:31:04

                           ***********************       
                           *  WELCOME TO SIESTA  *       
                           ***********************       

reinit: Reading from standard input
reinit: Dumped input in INPUT_TMP.90855
************************** Dump of input data file ****************************
SystemLabel      GC
NumberOfAtoms    29
NumberOfSpecies  4
%block ChemicalSpeciesLabel
    1    8  O
    2    7  N
    3   14  Si
    4    1  H
%endblock ChemicalSpeciesLabel
# Single point calculation
MD.TypeOfRun                CG
MD.Steps                    0
SCF.MustConverge            F # In case it does not. There can be 2 very close atoms
AtomicCoordinatesFormat NotScaledCartesianAng
%block AtomicCoordinatesAndAtomicSpecies
0.958671510    3.803529300    0.000000000       1
-3.038688210   0.998073330    0.000000000       2
2.066567750    1.099065770    0.000000000       2
1.029569860    -1.834680850   0.000000000       2
-2.108567660   -1.881798240   0.000000000       2
3.912411070    -1.180894430   0.000000000       2
-1.235636790   1.044983000    0.000000000       3
-0.501909240   -1.031832280   0.000000000       3
0.629463280    2.232755840    0.000000000       3
2.280054370    -0.658293540   0.000000000       3
-3.424812990   -0.662324160   0.000000000       3
2.965974160    1.682263990    0.000000000       4
-4.796229390   -1.238728480   0.000000000       4
4.096559410    -2.214148760   0.000000000       4
4.792108680    -0.529147250   0.000000000       4
-2.266861300   -2.922393730   0.000000000       4
4.635489645    4.926918137    0.000000000       3
6.560967395    6.118547467    0.000000000       3
6.096161005    2.192363767    0.000000000       3
8.167340925    4.639410357    0.000000000       3
4.737774185    3.217563447    0.000000000       2
3.056111555    5.597147627    0.000000000       2
7.749230905    2.907527447    0.000000000       2
6.869458215    7.583208827    0.000000000       4
9.659013835    4.839389817    0.000000000       4
2.871485115    6.632021357    0.000000000       4
2.164019765    4.925858897    0.000000000       4
6.086030405    0.594135247    0.000000000       1
8.525829285    2.185697247    0.000000000       4
%endblock AtomicCoordinatesAndAtomicSpecies
%include ../../../Defaults.fdf
************************** End of input data file *****************************

reinit: -----------------------------------------------------------------------
reinit: System Name: 
reinit: -----------------------------------------------------------------------
reinit: System Label: GC
reinit: -----------------------------------------------------------------------

initatom: Reading input for the pseudopotentials and atomic orbitals ----------
Species number:   1 Atomic number:    8 Label: O
Species number:   2 Atomic number:    7 Label: N
Species number:   3 Atomic number:   14 Label: Si
Species number:   4 Atomic number:    1 Label: H

Ground state valence configuration:   2s02  2p04
Reading pseudopotential information in formatted form from O.psf

Pseudopotential generated from a relativistic atomic calculation

Valence configuration for pseudopotential generation:
2s( 2.00) rc: 0.45
2p( 4.00) rc: 0.92
3d( 0.00) rc: 2.24
4f( 0.00) rc: 0.25
Ground state valence configuration:   2s02  2p03
Reading pseudopotential information in formatted form from N.psf

Pseudopotential generated from a relativistic atomic calculation

Valence configuration for pseudopotential generation:
2s( 2.00) rc: 0.94
2p( 3.00) rc: 0.59
3d( 0.00) rc: 3.46
4f( 0.00) rc: 2.47
Ground state valence configuration:   3s02  3p02
Reading pseudopotential information in formatted form from Si.psf

Pseudopotential generated from a relativistic atomic calculation

Valence configuration for pseudopotential generation:
3s( 2.00) rc: 1.67
3p( 2.00) rc: 2.04
3d( 0.00) rc: 2.89
4f( 0.00) rc: 2.49
Ground state valence configuration:   1s01
Reading pseudopotential information in formatted form from H.psf

Pseudopotential generated from a relativistic atomic calculation

Valence configuration for pseudopotential generation:
1s( 1.00) rc: 0.01
2p( 0.00) rc: 0.60
3d( 0.00) rc: 1.99
4f( 0.00) rc: 2.49
For O, standard SIESTA heuristics set lmxkb to 3
 (one more than the basis l, including polarization orbitals).
Use PS.lmax or PS.KBprojectors blocks to override.
For N, standard SIESTA heuristics set lmxkb to 3
 (one more than the basis l, including polarization orbitals).
Use PS.lmax or PS.KBprojectors blocks to override.
For Si, standard SIESTA heuristics set lmxkb to 3
 (one more than the basis l, including polarization orbitals).
Use PS.lmax or PS.KBprojectors blocks to override.
For H, standard SIESTA heuristics set lmxkb to 2
 (one more than the basis l, including polarization orbitals).
Use PS.lmax or PS.KBprojectors blocks to override.

<basis_specs>
===============================================================================
O                    Z=   8    Mass=  16.000        Charge= 0.17977+309
Lmxo=1 Lmxkb= 3    BasisType=split      Semic=F
L=0  Nsemic=0  Cnfigmx=2
          i=1  nzeta=2  polorb=0  (2s)
            splnorm:   0.28000    
               vcte:    0.0000    
               rinn:    0.0000    
               qcoe:    0.0000    
               qyuk:    0.0000    
               qwid:   0.10000E-01
                rcs:    0.0000      0.0000    
            lambdas:    1.0000      1.0000    
L=1  Nsemic=0  Cnfigmx=2
          i=1  nzeta=2  polorb=1  (2p)
            splnorm:   0.28000    
               vcte:    0.0000    
               rinn:    0.0000    
               qcoe:    0.0000    
               qyuk:    0.0000    
               qwid:   0.10000E-01
                rcs:    0.0000      0.0000    
            lambdas:    1.0000      1.0000    
-------------------------------------------------------------------------------
L=0  Nkbl=1  erefs: 0.17977+309
L=1  Nkbl=1  erefs: 0.17977+309
L=2  Nkbl=1  erefs: 0.17977+309
L=3  Nkbl=1  erefs: 0.17977+309
===============================================================================
</basis_specs>

atom: Called for O                     (Z =   8)

read_vps: Pseudopotential generation method:
read_vps: ATM4.2.7  Troullier-Martins                       
Valence charge for ps generation:    6.00000

xc_check: Exchange-correlation functional:
xc_check: GGA Perdew, Burke & Ernzerhof 1996
V l=0 = -2*Zval/r beyond r=  1.1000
V l=1 = -2*Zval/r beyond r=  1.1000
V l=2 = -2*Zval/r beyond r=  2.2154
V l=3 = -2*Zval/r beyond r=  1.1000
All V_l potentials equal beyond r=  2.2154
This should be close to max(r_c) in ps generation
All pots = -2*Zval/r beyond r=  2.2154

VLOCAL1: 99.0% of the norm of Vloc inside      8.845 Ry
VLOCAL1: 99.9% of the norm of Vloc inside     20.157 Ry
atom: Maximum radius for 4*pi*r*r*local-pseudopot. charge    2.67231
atom: Maximum radius for r*vlocal+2*Zval:    2.32897
GHOST: No ghost state for L =  0
GHOST: No ghost state for L =  1
GHOST: No ghost state for L =  2
GHOST: No ghost state for L =  3

KBgen: Kleinman-Bylander projectors: 
   l= 0   rc=  2.243238   el= -1.759686   Ekb=**********   kbcos= -0.171774
   l= 1   rc=  2.328968   el= -0.663873   Ekb=-14.506792   kbcos= -0.519897
   l= 2   rc=  2.573941   el=  0.002031   Ekb= -1.137373   kbcos= -0.019581
   l= 3   rc=  2.606321   el=  0.003153   Ekb= -1.013546   kbcos= -0.003122

KBgen: Total number of Kleinman-Bylander projectors:   16
atom: -------------------------------------------------------------------------

atom: SANKEY-TYPE ORBITALS:
atom: Selected multiple-zeta basis: split     

SPLIT: Orbitals with angular momentum L= 0

SPLIT: Basis orbitals for state 2s

SPLIT: PAO cut-off radius determined from an
SPLIT: energy shift=  0.002000 Ry

   izeta = 1
                 lambda =    1.000000
                     rc =    4.243912
                 energy =   -1.758270
                kinetic =    3.286084
    potential(screened) =   -5.044353
       potential(ionic) =  -12.921184

   izeta = 2
                 rmatch =    2.187845
              splitnorm =    0.280000
                 energy =   -0.885018
                kinetic =    8.134434
    potential(screened) =   -9.019452
       potential(ionic) =  -17.710645

SPLIT: Orbitals with angular momentum L= 1

SPLIT: Basis orbitals for state 2p

SPLIT: PAO cut-off radius determined from an
SPLIT: energy shift=  0.002000 Ry

   izeta = 1
                 lambda =    1.000000
                     rc =    5.314825
                 energy =   -0.661986
                kinetic =    4.917472
    potential(screened) =   -5.579458
       potential(ionic) =  -13.236259

   izeta = 2
                 rmatch =    2.160663
              splitnorm =    0.280000
                 energy =   -0.068760
                kinetic =    9.183374
    potential(screened) =   -9.252135
       potential(ionic) =  -18.274251

POLgen: Perturbative polarization orbital with L=  2

POLgen: Polarization orbital for state 2p

   izeta = 1
                     rc =    5.314825
                 energy =    1.970580
                kinetic =    3.886128
    potential(screened) =   -1.915547
       potential(ionic) =   -7.749584
atom: Total number of Sankey-type orbitals: 13

atm_pop: Valence configuration (for local Pseudopot. screening):
 2s( 2.00)                                                            
 2p( 4.00)                                                            
Vna: chval, zval:    6.00000   6.00000

Vna:  Cut-off radius for the neutral-atom potential:   5.314825

atom: _________________________________________________________________________

<basis_specs>
===============================================================================
N                    Z=   7    Mass=  14.010        Charge= 0.17977+309
Lmxo=1 Lmxkb= 3    BasisType=split      Semic=F
L=0  Nsemic=0  Cnfigmx=2
          i=1  nzeta=2  polorb=0  (2s)
            splnorm:   0.28000    
               vcte:    0.0000    
               rinn:    0.0000    
               qcoe:    0.0000    
               qyuk:    0.0000    
               qwid:   0.10000E-01
                rcs:    0.0000      0.0000    
            lambdas:    1.0000      1.0000    
L=1  Nsemic=0  Cnfigmx=2
          i=1  nzeta=2  polorb=1  (2p)
            splnorm:   0.28000    
               vcte:    0.0000    
               rinn:    0.0000    
               qcoe:    0.0000    
               qyuk:    0.0000    
               qwid:   0.10000E-01
                rcs:    0.0000      0.0000    
            lambdas:    1.0000      1.0000    
-------------------------------------------------------------------------------
L=0  Nkbl=1  erefs: 0.17977+309
L=1  Nkbl=1  erefs: 0.17977+309
L=2  Nkbl=1  erefs: 0.17977+309
L=3  Nkbl=1  erefs: 0.17977+309
===============================================================================
</basis_specs>

atom: Called for N                     (Z =   7)

read_vps: Pseudopotential generation method:
read_vps: ATM4.2.7  Troullier-Martins                       
Valence charge for ps generation:    5.00000

xc_check: Exchange-correlation functional:
xc_check: GGA Perdew, Burke & Ernzerhof 1996
V l=0 = -2*Zval/r beyond r=  1.2889
V l=1 = -2*Zval/r beyond r=  1.2889
V l=2 = -2*Zval/r beyond r=  3.4178
V l=3 = -2*Zval/r beyond r=  2.4084
All V_l potentials equal beyond r=  3.3753
This should be close to max(r_c) in ps generation
All pots = -2*Zval/r beyond r=  3.4178

VLOCAL1: 99.0% of the norm of Vloc inside      3.810 Ry
VLOCAL1: 99.9% of the norm of Vloc inside      8.683 Ry
atom: Maximum radius for 4*pi*r*r*local-pseudopot. charge    4.02088
atom: Maximum radius for r*vlocal+2*Zval:    3.54838
GHOST: No ghost state for L =  0
GHOST: No ghost state for L =  1
GHOST: No ghost state for L =  2
GHOST: No ghost state for L =  3

KBgen: Kleinman-Bylander projectors: 
   l= 0   rc=  3.417763   el= -1.365098   Ekb= -4.433130   kbcos= -0.707855
   l= 1   rc=  3.375302   el= -0.521201   Ekb=-13.264039   kbcos= -0.535594
   l= 2   rc=  3.872880   el=  0.001991   Ekb= -0.641094   kbcos= -0.062456
   l= 3   rc=  3.970931   el=  0.003093   Ekb= -0.474517   kbcos= -0.018236

KBgen: Total number of Kleinman-Bylander projectors:   16
atom: -------------------------------------------------------------------------

atom: SANKEY-TYPE ORBITALS:
atom: Selected multiple-zeta basis: split     

SPLIT: Orbitals with angular momentum L= 0

SPLIT: Basis orbitals for state 2s

SPLIT: PAO cut-off radius determined from an
SPLIT: energy shift=  0.002000 Ry

   izeta = 1
                 lambda =    1.000000
                     rc =    4.730425
                 energy =   -1.363399
                kinetic =    1.245246
    potential(screened) =   -2.608645
       potential(ionic) =   -8.121105

   izeta = 2
                 rmatch =    2.531849
              splitnorm =    0.280000
                 energy =   -0.959908
                kinetic =    2.409435
    potential(screened) =   -3.369343
       potential(ionic) =   -9.427975

SPLIT: Orbitals with angular momentum L= 1

SPLIT: Basis orbitals for state 2p

SPLIT: PAO cut-off radius determined from an
SPLIT: energy shift=  0.002000 Ry

   izeta = 1
                 lambda =    1.000000
                     rc =    5.924108
                 energy =   -0.519262
                kinetic =    3.672940
    potential(screened) =   -4.192202
       potential(ionic) =   -9.518354

   izeta = 2
                 rmatch =    2.531849
              splitnorm =    0.280000
                 energy =   -0.104258
                kinetic =    6.807538
    potential(screened) =   -6.911796
       potential(ionic) =  -13.149920

POLgen: Perturbative polarization orbital with L=  2

POLgen: Polarization orbital for state 2p

   izeta = 1
                     rc =    5.924108
                 energy =    1.427508
                kinetic =    2.872379
    potential(screened) =   -1.444871
       potential(ionic) =   -5.563644
atom: Total number of Sankey-type orbitals: 13

atm_pop: Valence configuration (for local Pseudopot. screening):
 2s( 2.00)                                                            
 2p( 3.00)                                                            
Vna: chval, zval:    5.00000   5.00000

Vna:  Cut-off radius for the neutral-atom potential:   5.924108

atom: _________________________________________________________________________

<basis_specs>
===============================================================================
Si                   Z=  14    Mass=  28.090        Charge= 0.17977+309
Lmxo=1 Lmxkb= 3    BasisType=split      Semic=F
L=0  Nsemic=0  Cnfigmx=3
          i=1  nzeta=2  polorb=0  (3s)
            splnorm:   0.28000    
               vcte:    0.0000    
               rinn:    0.0000    
               qcoe:    0.0000    
               qyuk:    0.0000    
               qwid:   0.10000E-01
                rcs:    0.0000      0.0000    
            lambdas:    1.0000      1.0000    
L=1  Nsemic=0  Cnfigmx=3
          i=1  nzeta=2  polorb=1  (3p)
            splnorm:   0.28000    
               vcte:    0.0000    
               rinn:    0.0000    
               qcoe:    0.0000    
               qyuk:    0.0000    
               qwid:   0.10000E-01
                rcs:    0.0000      0.0000    
            lambdas:    1.0000      1.0000    
-------------------------------------------------------------------------------
L=0  Nkbl=1  erefs: 0.17977+309
L=1  Nkbl=1  erefs: 0.17977+309
L=2  Nkbl=1  erefs: 0.17977+309
L=3  Nkbl=1  erefs: 0.17977+309
===============================================================================
</basis_specs>

atom: Called for Si                    (Z =  14)

read_vps: Pseudopotential generation method:
read_vps: ATM4.2.7  Troullier-Martins                       
Valence charge for ps generation:    4.00000

xc_check: Exchange-correlation functional:
xc_check: GGA Perdew, Burke & Ernzerhof 1996
V l=0 = -2*Zval/r beyond r=  2.7826
V l=1 = -2*Zval/r beyond r=  2.7826
V l=2 = -2*Zval/r beyond r=  2.9253
V l=3 = -2*Zval/r beyond r=  2.7826
All V_l potentials equal beyond r=  2.8530
This should be close to max(r_c) in ps generation
All pots = -2*Zval/r beyond r=  2.9253

VLOCAL1: 99.0% of the norm of Vloc inside      5.333 Ry
VLOCAL1: 99.9% of the norm of Vloc inside     12.154 Ry
atom: Maximum radius for 4*pi*r*r*local-pseudopot. charge    3.39869
atom: Maximum radius for r*vlocal+2*Zval:    2.96205
GHOST: No ghost state for L =  0
GHOST: No ghost state for L =  1
GHOST: No ghost state for L =  2
GHOST: No ghost state for L =  3

KBgen: Kleinman-Bylander projectors: 
   l= 0   rc=  3.075247   el= -0.794092   Ekb=  5.879390   kbcos=  0.167461
   l= 1   rc=  3.153101   el= -0.300068   Ekb=  2.642817   kbcos=  0.058301
   l= 2   rc=  3.273594   el=  0.001958   Ekb= -1.185135   kbcos= -0.104411
   l= 3   rc=  3.232927   el=  0.003046   Ekb= -0.497174   kbcos= -0.015889

KBgen: Total number of Kleinman-Bylander projectors:   16
atom: -------------------------------------------------------------------------

atom: SANKEY-TYPE ORBITALS:
atom: Selected multiple-zeta basis: split     

SPLIT: Orbitals with angular momentum L= 0

SPLIT: Basis orbitals for state 3s

SPLIT: PAO cut-off radius determined from an
SPLIT: energy shift=  0.002000 Ry

   izeta = 1
                 lambda =    1.000000
                     rc =    6.429618
                 energy =   -0.792283
                kinetic =    0.525293
    potential(screened) =   -1.317576
       potential(ionic) =   -3.744923

   izeta = 2
                 rmatch =    3.998416
              splitnorm =    0.280000
                 energy =   -0.583081
                kinetic =    1.069570
    potential(screened) =   -1.652651
       potential(ionic) =   -4.235185

SPLIT: Orbitals with angular momentum L= 1

SPLIT: Basis orbitals for state 3p

SPLIT: PAO cut-off radius determined from an
SPLIT: energy shift=  0.002000 Ry

   izeta = 1
                 lambda =    1.000000
                     rc =    8.464845
                 energy =   -0.298236
                kinetic =    0.785360
    potential(screened) =   -1.083596
       potential(ionic) =   -3.273779

   izeta = 2
                 rmatch =    4.587816
              splitnorm =    0.280000
                 energy =   -0.131871
                kinetic =    1.403687
    potential(screened) =   -1.535557
       potential(ionic) =   -4.015310

POLgen: Perturbative polarization orbital with L=  2

POLgen: Polarization orbital for state 3p

   izeta = 1
                     rc =    8.464845
                 energy =    0.321949
                kinetic =    1.055677
    potential(screened) =   -0.733728
       potential(ionic) =   -2.672950
atom: Total number of Sankey-type orbitals: 13

atm_pop: Valence configuration (for local Pseudopot. screening):
 3s( 2.00)                                                            
 3p( 2.00)                                                            
Vna: chval, zval:    4.00000   4.00000

Vna:  Cut-off radius for the neutral-atom potential:   8.464845

atom: _________________________________________________________________________

<basis_specs>
===============================================================================
H                    Z=   1    Mass=  1.0100        Charge= 0.17977+309
Lmxo=0 Lmxkb= 2    BasisType=split      Semic=F
L=0  Nsemic=0  Cnfigmx=1
          i=1  nzeta=2  polorb=1  (1s)
            splnorm:   0.62000    
               vcte:    0.0000    
               rinn:    0.0000    
               qcoe:    0.0000    
               qyuk:    0.0000    
               qwid:   0.10000E-01
                rcs:    0.0000      0.0000    
            lambdas:    1.0000      1.0000    
-------------------------------------------------------------------------------
L=0  Nkbl=1  erefs: 0.17977+309
L=1  Nkbl=1  erefs: 0.17977+309
L=2  Nkbl=1  erefs: 0.17977+309
===============================================================================
</basis_specs>

atom: Called for H                     (Z =   1)

read_vps: Pseudopotential generation method:
read_vps: ATM4.2.7  Troullier-Martins                       
Valence charge for ps generation:    1.00000

xc_check: Exchange-correlation functional:
xc_check: GGA Perdew, Burke & Ernzerhof 1996
V l=0 = -2*Zval/r beyond r=  0.0098
V l=1 = -2*Zval/r beyond r=  0.5817
V l=2 = -2*Zval/r beyond r=  1.9372
All V_l potentials equal beyond r=  1.9372
This should be close to max(r_c) in ps generation
All pots = -2*Zval/r beyond r=  1.9372

VLOCAL1: 99.0% of the norm of Vloc inside     11.567 Ry
VLOCAL1: 99.9% of the norm of Vloc inside     26.362 Ry
atom: Maximum radius for 4*pi*r*r*local-pseudopot. charge    2.25106
atom: Maximum radius for r*vlocal+2*Zval:    1.91306
GHOST: No ghost state for L =  0
GHOST: No ghost state for L =  1
GHOST: No ghost state for L =  2

KBgen: Kleinman-Bylander projectors: 
   l= 0   rc=  2.036604   el= -0.477180   Ekb= -6.081590   kbcos= -0.277285
   l= 1   rc=  2.195416   el=  0.001076   Ekb= -0.926943   kbcos= -0.034643
   l= 2   rc=  2.251056   el=  0.002010   Ekb= -0.130941   kbcos= -0.009788

KBgen: Total number of Kleinman-Bylander projectors:    9
atom: -------------------------------------------------------------------------

atom: SANKEY-TYPE ORBITALS:
atom: Selected multiple-zeta basis: split     

SPLIT: Orbitals with angular momentum L= 0

SPLIT: Basis orbitals for state 1s

SPLIT: PAO cut-off radius determined from an
SPLIT: energy shift=  0.002000 Ry

   izeta = 1
                 lambda =    1.000000
                     rc =    6.518340
                 energy =   -0.475305
                kinetic =    0.912139
    potential(screened) =   -1.387444
       potential(ionic) =   -1.907295

   izeta = 2
                 rmatch =    2.141150
              splitnorm =    0.620000
                 energy =    0.566467
                kinetic =    3.772856
    potential(screened) =   -3.206389
       potential(ionic) =   -3.759093

POLgen: Perturbative polarization orbital with L=  1

POLgen: Polarization orbital for state 1s

   izeta = 1
                     rc =    6.518340
                 energy =    0.533861
                kinetic =    1.121086
    potential(screened) =   -0.587225
       potential(ionic) =   -1.053027
atom: Total number of Sankey-type orbitals:  5

atm_pop: Valence configuration (for local Pseudopot. screening):
 1s( 1.00)                                                            
Vna: chval, zval:    1.00000   1.00000

Vna:  Cut-off radius for the neutral-atom potential:   6.518340

atom: _________________________________________________________________________

prinput: Basis input ----------------------------------------------------------

PAO.BasisType split     

%block ChemicalSpeciesLabel
    1    8 O                       # Species index, atomic number, species label
    2    7 N                       # Species index, atomic number, species label
    3   14 Si                      # Species index, atomic number, species label
    4    1 H                       # Species index, atomic number, species label
%endblock ChemicalSpeciesLabel

%block PAO.Basis                 # Define Basis set
O                     2                    # Species label, number of l-shells
 n=2   0   2                         # n, l, Nzeta 
   4.244      2.188   
   1.000      1.000   
 n=2   1   2 P   1                   # n, l, Nzeta, Polarization, NzetaPol
   5.315      2.161   
   1.000      1.000   
N                     2                    # Species label, number of l-shells
 n=2   0   2                         # n, l, Nzeta 
   4.730      2.532   
   1.000      1.000   
 n=2   1   2 P   1                   # n, l, Nzeta, Polarization, NzetaPol
   5.924      2.532   
   1.000      1.000   
Si                    2                    # Species label, number of l-shells
 n=3   0   2                         # n, l, Nzeta 
   6.430      3.998   
   1.000      1.000   
 n=3   1   2 P   1                   # n, l, Nzeta, Polarization, NzetaPol
   8.465      4.588   
   1.000      1.000   
H                     1                    # Species label, number of l-shells
 n=1   0   2 P   1                   # n, l, Nzeta, Polarization, NzetaPol
   6.518      2.141   
   1.000      1.000   
%endblock PAO.Basis

prinput: ----------------------------------------------------------------------

Dumping basis to NetCDF file O.ion.nc
Dumping basis to NetCDF file N.ion.nc
Dumping basis to NetCDF file Si.ion.nc
Dumping basis to NetCDF file H.ion.nc
coor:   Atomic-coordinates input format  =     Cartesian coordinates
coor:                                          (in Angstroms)

siesta: Atomic coordinates (Bohr) and species
siesta:      1.81163   7.18763   0.00000  1        1
siesta:     -5.74229   1.88609   0.00000  2        2
siesta:      3.90525   2.07693   0.00000  2        3
siesta:      1.94561  -3.46705   0.00000  2        4
siesta:     -3.98462  -3.55608   0.00000  2        5
siesta:      7.39339  -2.23157   0.00000  2        6
siesta:     -2.33502   1.97473   0.00000  3        7
siesta:     -0.94847  -1.94988   0.00000  3        8
siesta:      1.18951   4.21930   0.00000  3        9
siesta:      4.30868  -1.24399   0.00000  3       10
siesta:     -6.47196  -1.25161   0.00000  3       11
siesta:      5.60488   3.17902   0.00000  4       12
siesta:     -9.06356  -2.34086   0.00000  4       13
siesta:      7.74138  -4.18414   0.00000  4       14
siesta:      9.05578  -0.99994   0.00000  4       15
siesta:     -4.28375  -5.52253   0.00000  4       16
siesta:      8.75981   9.31053   0.00000  3       17
siesta:     12.39844  11.56238   0.00000  3       18
siesta:     11.52008   4.14297   0.00000  3       19
siesta:     15.43404   8.76722   0.00000  3       20
siesta:      8.95310   6.08032   0.00000  2       21
siesta:      5.77522  10.57708   0.00000  2       22
siesta:     14.64393   5.49443   0.00000  2       23
siesta:     12.98140  14.33019   0.00000  4       24
siesta:     18.25290   9.14513   0.00000  4       25
siesta:      5.42632  12.53271   0.00000  4       26
siesta:      4.08941   9.30853   0.00000  4       27
siesta:     11.50094   1.12275   0.00000  1       28
siesta:     16.11149   4.13037   0.00000  4       29

siesta: Automatic unit cell vectors (Ang):
siesta:   23.489350    0.000000    0.000000
siesta:    0.000000   19.144746    0.000000
siesta:    0.000000    0.000000    9.854683

siesta: System type = molecule  

initatomlists: Number of atoms, orbitals, and projectors:     29   297   394

siesta: ******************** Simulation parameters ****************************
siesta:
siesta: The following are some of the parameters of the simulation.
siesta: A complete list of the parameters used, including default values,
siesta: can be found in file out.fdf
siesta:
redata: Spin configuration                          = spin-orbit
redata: Number of spin components                   = 8
redata: Time-Reversal Symmetry                      = F
redata: Spin spiral                                 = F
############################################################
This spin-orbit implementation uses a local approximation.
From 4.2 and onwards the full non-local approximation is implemented
You are strongly advised to use >=4.2 versions!
############################################################
redata: Long output                                 =   F
redata: Number of Atomic Species                    =        4
redata: Charge density info will appear in .RHO file
redata: Write Mulliken Pop.                         = Atomic and Orbital charges
redata: Matel table size (NRTAB)                    =     1024
redata: Mesh Cutoff                                 =   340.0000 Ry
redata: Net charge of the system                    =     0.0000 |e|
redata: Min. number of SCF Iter                     =        1
redata: Max. number of SCF Iter                     =      200
redata: SCF mix quantity                            = Hamiltonian
redata: Mix DM or H after convergence               =   F
redata: Recompute H after scf cycle                 =   F
redata: Mix DM in first SCF step                    =   T
redata: Write Pulay info on disk                    =   F
redata: New DM Occupancy tolerance                  = 0.000000000001
redata: No kicks to SCF
redata: DM Mixing Weight for Kicks                  =     0.5000
redata: Require Harris convergence for SCF          =   F
redata: Harris energy tolerance for SCF             =     0.000100 eV
redata: Require DM convergence for SCF              =   T
redata: DM tolerance for SCF                        =     0.000008
redata: Require EDM convergence for SCF             =   F
redata: EDM tolerance for SCF                       =     0.001000 eV
redata: Require H convergence for SCF               =   T
redata: Hamiltonian tolerance for SCF               =     0.000001 eV
redata: Require (free) Energy convergence for SCF   =   F
redata: (free) Energy tolerance for SCF             =     0.000100 eV
redata: Using Saved Data (generic)                  =   F
redata: Use continuation files for DM               =   F
redata: Neglect nonoverlap interactions             =   F
redata: Method of Calculation                       = Diagonalization
redata: Electronic Temperature                      =   299.9978 K
redata: Fix the spin of the system                  =   F
redata: Dynamics option                             = Single-point calculation
mix.SCF: Pulay mixing                            = Pulay
mix.SCF:    Variant                              = stable
mix.SCF:    History steps                        = 6
mix.SCF:    Linear mixing weight                 =     0.250000
mix.SCF:    Mixing weight                        =     0.250000
mix.SCF:    SVD condition                        = 0.1000E-07
mix.SCF:    Restart steps                        = 24
mix.SCF:    Restart save steps                   = 3
mix.SCF: Spin-component mixing                   all
redata: Save all siesta data in one NC              =   F
redata: ***********************************************************************

%block SCF.Mixers
  Pulay
%endblock SCF.Mixers

%block SCF.Mixer.Pulay
  # Mixing method
  method pulay
  variant stable

  # Mixing options
  weight 0.2500
  weight.linear 0.2500
  history 6
  restart 24
  restart.save 3
%endblock SCF.Mixer.Pulay

DM_history_depth set to one: no extrapolation allowed by default for geometry relaxation
Size of DM history Fstack: 1
Total number of electrons:    98.000000
Total ionic charge:    98.000000

* ProcessorY, Blocksize:    2  24


* Orbital distribution balance (max,min):    81    72


Time-reversal symmetry not used.

siesta: k-grid: Number of k-points =     1
siesta: k-grid: Cutoff (effective) =     4.927 Ang
siesta: k-grid: Supercell and displacements
siesta: k-grid:    1   0   0      0.000
siesta: k-grid:    0   1   0      0.000
siesta: k-grid:    0   0   1      0.000

diag: Algorithm                                     = ELPA-1stage
diag: Parallel over k                               =   F
diag: Use parallel 2D distribution                  =   T
diag: Parallel block-size                           = 24
diag: Parallel distribution                         =     2 x     2
diag: Used triangular part                          = Lower
diag: Absolute tolerance                            =  0.100E-15
diag: Orthogonalization factor                      =  0.100E-05
diag: Memory factor                                 =  1.0000


ts: **************************************************************
ts: Save H and S matrices                           =    F
ts: Save DM and EDM matrices                        =    F
ts: Only save the overlap matrix S                  =    F
ts: **************************************************************

************************ Begin: TS CHECKS AND WARNINGS ************************
************************ End: TS CHECKS AND WARNINGS **************************


                     ====================================
                        Single-point calculation
                     ====================================

outcoor: Atomic coordinates (Ang):                          
    0.95867151    3.80352930    0.00000000   1       1  O
   -3.03868821    0.99807333    0.00000000   2       2  N
    2.06656775    1.09906577    0.00000000   2       3  N
    1.02956986   -1.83468085    0.00000000   2       4  N
   -2.10856766   -1.88179824    0.00000000   2       5  N
    3.91241107   -1.18089443    0.00000000   2       6  N
   -1.23563679    1.04498300    0.00000000   3       7  Si
   -0.50190924   -1.03183228    0.00000000   3       8  Si
    0.62946328    2.23275584    0.00000000   3       9  Si
    2.28005437   -0.65829354    0.00000000   3      10  Si
   -3.42481299   -0.66232416    0.00000000   3      11  Si
    2.96597416    1.68226399    0.00000000   4      12  H
   -4.79622939   -1.23872848    0.00000000   4      13  H
    4.09655941   -2.21414876    0.00000000   4      14  H
    4.79210868   -0.52914725    0.00000000   4      15  H
   -2.26686130   -2.92239373    0.00000000   4      16  H
    4.63548964    4.92691814    0.00000000   3      17  Si
    6.56096739    6.11854747    0.00000000   3      18  Si
    6.09616100    2.19236377    0.00000000   3      19  Si
    8.16734092    4.63941036    0.00000000   3      20  Si
    4.73777419    3.21756345    0.00000000   2      21  N
    3.05611156    5.59714763    0.00000000   2      22  N
    7.74923091    2.90752745    0.00000000   2      23  N
    6.86945821    7.58320883    0.00000000   4      24  H
    9.65901383    4.83938982    0.00000000   4      25  H
    2.87148512    6.63202136    0.00000000   4      26  H
    2.16401976    4.92585890    0.00000000   4      27  H
    6.08603040    0.59413525    0.00000000   1      28  O
    8.52582929    2.18569725    0.00000000   4      29  H

outcell: Unit cell vectors (Ang):
       23.489350    0.000000    0.000000
        0.000000   19.144746    0.000000
        0.000000    0.000000    9.854683

outcell: Cell vector modules (Ang)   :   23.489350   19.144746    9.854683
outcell: Cell angles (23,13,12) (deg):     90.0000     90.0000     90.0000
outcell: Cell volume (Ang**3)        :   4431.6278
<dSpData1D:S at geom step 0
  <sparsity:sparsity for geom step 0
    nrows_g=297 nrows=81 sparsity=.2301 nnzs=20300, refcount: 8>
  <dData1D:(new from dSpData1D) n=20300, refcount: 1>
refcount: 1>
new_DM -- step:     1
Initializing Density Matrix...
DM filled with atomic data:
<dSpData2D:DM initialized from atoms
  <sparsity:sparsity for geom step 0
    nrows_g=297 nrows=81 sparsity=.2301 nnzs=20300, refcount: 9>
  <dData2D:DM n=20300 m=8, refcount: 1>
refcount: 1>
     spin moment: S , {S} =   56.00000   0.00000   0.00000  56.00000
No. of atoms with KB's overlaping orbs in proc 0. Max # of overlaps:      29     198

Initializing spin-orbit part of the Hamiltonian
  Adding spin-orbit effects for O 
  Adding spin-orbit effects for N 
  Adding spin-orbit effects for Si
  Adding spin-orbit effects for H 


New grid distribution:   1
           1       1:  135    1:   54    1:   30
           2       1:  135    1:   54   31:   60
           3       1:  135   55:  108    1:   30
           4       1:  135   55:  108   31:   60

InitMesh: MESH =   270 x   216 x   120 =     6998400
InitMesh: (bp) =   135 x   108 x    60 =      874800
InitMesh: Mesh cutoff (required, used) =   340.000   351.811 Ry
ExtMesh (bp) on 0 =   239 x   158 x   142 =     5362204
New grid distribution:   2
           1      32:  135    1:   25    1:   60
           2       1:   31    1:   23    1:   60
           3      32:  135   26:  108    1:   60
           4       1:   31   24:  108    1:   60
New grid distribution:   3
           1      44:  135    1:   32    1:   60
           2       1:   43    1:   37    1:   60
           3      44:  135   33:  108    1:   60
           4       1:   43   38:  108    1:   60
Setting up quadratic distribution...
ExtMesh (bp) on 0 =   208 x   129 x   172 =     4615104
PhiOnMesh: Number of (b)points on node 0 =               156000
PhiOnMesh: nlist on node 0 =              2627215

stepf: Fermi-Dirac step function

siesta: Program's energy decomposition (eV):
siesta: Ebs     =      -613.122970
siesta: Eions   =      3585.165840
siesta: Ena     =       382.828579
siesta: Ekin    =      3367.044525
siesta: Enl     =     -3297.119629
siesta: Eso     =        -0.003466
siesta: Edftu   =         0.000000
siesta: DEna    =       154.241321
siesta: DUscf   =        78.045150
siesta: DUext   =         0.000000
siesta: Exc     =     -1204.509455
siesta: eta*DQ  =         0.000000
siesta: Emadel  =         0.000000
siesta: Emeta   =         0.000000
siesta: Emolmec =         0.000000
siesta: Ekinion =         0.000000
siesta: Eharris =     -4029.079309
siesta: Etot    =     -4104.638815
siesta: FreeEng =     -4104.640510

        iscf     Eharris(eV)        E_KS(eV)     FreeEng(eV)     dDmax    Ef(eV) dHmax(eV)
   scf:    1    -4029.079309    -4104.638815    -4104.640510  0.957568 -4.902419 20.146130
     spin moment: S , {S} =    2.01042  -0.00000   0.00000   2.01042
timer: Routine,Calls,Time,% = IterSCF        1      14.182  16.22
   scf:    2    -4150.687995    -4138.747318    -4138.749099  0.458883 -4.203316 10.791648
     spin moment: S , {S} =    1.98931  -0.00000  -0.00000   1.98931
   scf:    3    -4112.012572    -4135.968402    -4135.985687  0.424436 -4.259182 11.399780
     spin moment: S , {S} =    2.00011   0.00000   0.00000   2.00011
   scf:    4    -4151.598551    -4146.751384    -4146.751384  0.309258 -3.878123  5.827533
     spin moment: S , {S} =    0.00009   0.00000   0.00000   0.00009
   scf:    5    -4147.891443    -4147.409828    -4147.409828  0.038176 -3.685769  4.165047
     spin moment: S , {S} =    0.00005   0.00000  -0.00000   0.00005
   scf:    6    -4148.178453    -4147.797359    -4147.797359  0.025641 -3.610479  1.987627
     spin moment: S , {S} =    0.00003  -0.00000  -0.00000   0.00003
   scf:    7    -4148.143115    -4147.969488    -4147.969488  0.021435 -3.735428  0.856339
     spin moment: S , {S} =    0.00001   0.00000   0.00000   0.00001
   scf:    8    -4148.084106    -4148.025370    -4148.025370  0.012051 -3.750458  0.455731
     spin moment: S , {S} =    0.00000   0.00000  -0.00000   0.00000
   scf:    9    -4148.063750    -4148.043961    -4148.043961  0.006732 -3.776477  0.303510
     spin moment: S , {S} =    0.00000  -0.00000  -0.00000   0.00000
   scf:   10    -4148.090025    -4148.063531    -4148.063531  0.016707 -3.797805  0.131644
     spin moment: S , {S} =    0.00000  -0.00000  -0.00000  -0.00000
   scf:   11    -4148.066630    -4148.065002    -4148.065002  0.004722 -3.790999  0.051598
     spin moment: S , {S} =    0.00000   0.00000   0.00000   0.00000
   scf:   12    -4148.065839    -4148.065416    -4148.065416  0.002027 -3.786999  0.031578
     spin moment: S , {S} =    0.00000   0.00000  -0.00000   0.00000
   scf:   13    -4148.065980    -4148.065682    -4148.065682  0.001928 -3.785909  0.024294
     spin moment: S , {S} =    0.00000   0.00000  -0.00000   0.00000
   scf:   14    -4148.066126    -4148.065884    -4148.065884  0.002119 -3.784624  0.017518
     spin moment: S , {S} =    0.00000   0.00000   0.00000   0.00000
   scf:   15    -4148.066215    -4148.066024    -4148.066024  0.002375 -3.784723  0.009849
     spin moment: S , {S} =    0.00000   0.00000   0.00000   0.00000
   scf:   16    -4148.066151    -4148.066073    -4148.066073  0.001795 -3.784800  0.004189
     spin moment: S , {S} =    0.00000   0.00000   0.00000   0.00000
   scf:   17    -4148.066089    -4148.066079    -4148.066079  0.000615 -3.785003  0.002224
     spin moment: S , {S} =    0.00000   0.00000   0.00000   0.00000
   scf:   18    -4148.066083    -4148.066081    -4148.066081  0.000271 -3.784462  0.001086
     spin moment: S , {S} =    0.00000   0.00000   0.00000   0.00000
   scf:   19    -4148.066082    -4148.066081    -4148.066081  0.000107 -3.784457  0.000601
     spin moment: S , {S} =    0.00000   0.00000   0.00000  -0.00000
   scf:   20    -4148.066082    -4148.066082    -4148.066082  0.000046 -3.785056  0.000390
     spin moment: S , {S} =    0.00000   0.00000   0.00000  -0.00000
   scf:   21    -4148.066082    -4148.066082    -4148.066082  0.000062 -3.785008  0.000214
     spin moment: S , {S} =    0.00000   0.00000   0.00000  -0.00000
   scf:   22    -4148.066082    -4148.066082    -4148.066082  0.000018 -3.784988  0.000077
     spin moment: S , {S} =    0.00000   0.00000   0.00000  -0.00000
   scf:   23    -4148.066082    -4148.066082    -4148.066082  0.000005 -3.784986  0.000043
     spin moment: S , {S} =    0.00000   0.00000   0.00000  -0.00000
   scf:   24    -4148.066082    -4148.066082    -4148.066082  0.000003 -3.784984  0.000021
     spin moment: S , {S} =    0.00000   0.00000   0.00000  -0.00000
mix: Pulay -- resetting history
   scf:   25    -4148.066082    -4148.066082    -4148.066082  0.000002 -3.784981  0.000010
     spin moment: S , {S} =    0.00000   0.00000   0.00000  -0.00000
   scf:   26    -4148.066082    -4148.066082    -4148.066082  0.000001 -3.784980  0.000005
     spin moment: S , {S} =    0.00000   0.00000   0.00000   0.00000
   scf:   27    -4148.066082    -4148.066082    -4148.066082  0.000000 -3.784980  0.000003
     spin moment: S , {S} =    0.00000   0.00000   0.00000   0.00000
   scf:   28    -4148.066082    -4148.066082    -4148.066082  0.000000 -3.784980  0.000002
     spin moment: S , {S} =    0.00000   0.00000   0.00000   0.00000
   scf:   29    -4148.066082    -4148.066082    -4148.066082  0.000000 -3.784980  0.000001
     spin moment: S , {S} =    0.00000   0.00000   0.00000   0.00000
   scf:   30    -4148.066082    -4148.066082    -4148.066082  0.000000 -3.784980  0.000000
     spin moment: S , {S} =    0.00000   0.00000   0.00000   0.00000

SCF Convergence by DM+H criterion
max |DM_out - DM_in|         :     0.0000001245
max |H_out - H_in|      (eV) :     0.0000004670
SCF cycle converged after 30 iterations

Using DM_out to compute the final energy and forces
No. of atoms with KB's overlaping orbs in proc 0. Max # of overlaps:      29     198

siesta: E_KS(eV) =            -4148.0661

siesta: E_KS - E_eggbox =     -4148.0661
     spin moment: S , {S} =    0.00000   0.00000   0.00000   0.00000

siesta: Atomic forces (eV/Ang):
     1   -0.176699    1.640760    0.000000
     2   -0.002746    0.005798   -0.000000
     3    0.091218   -0.014308   -0.000000
     4    0.076777   -0.001819   -0.000000
     5    0.005730   -0.012170   -0.000000
     6    0.300345    0.180623    0.000000
     7    0.002261   -0.025103    0.000000
     8   -0.039793    0.029469    0.000000
     9    0.000800    0.132835   -0.000000
    10   -0.090436    0.053101    0.000000
    11   -0.002083   -0.002984    0.000000
    12   -0.038737    0.074168    0.000000
    13   -0.017301   -0.039134   -0.000000
    14   -0.114569   -0.172829   -0.000000
    15   -0.323281   -0.053967    0.000000
    16    0.113056   -0.253886    0.000000
    17    0.093751   -0.126438   -0.000000
    18   -0.022372    0.017889    0.000000
    19   -0.036234   -0.116433   -0.000000
    20   -0.008856   -0.041622   -0.000000
    21   -0.046012    0.094095    0.000000
    22   -0.370798   -0.219303    0.000000
    23    0.016660    0.003664    0.000000
    24   -0.028555    0.119972    0.000000
    25   -0.010772    0.052995   -0.000000
    26   -0.008733    0.175426    0.000000
    27    0.211113    0.076230   -0.000000
    28    0.802420    2.168018   -0.000000
    29   -0.015059    0.086944   -0.000000
----------------------------------------
   Tot    0.361095    3.831992    0.000000
----------------------------------------
   Max    2.168018
   Res    0.318392    sqrt( Sum f_i^2 / 3N )
----------------------------------------
   Max    2.168018    constrained

Stress tensor Voigt[x,y,z,yz,xz,xy] (kbar):       -0.25       -0.58       -0.12       -0.00        0.00        0.22
(Free)E + p*V (eV/cell)    -4147.1858
Target enthalpy (eV/cell)    -4148.0661

mulliken: Atomic and Orbital Populations:

Species: O                   

Atom      Orb        Charge      Spin       Svec
----------------------------------------------------------------
    1  1 2s         1.72819   0.00000      0.000   0.000   0.000
    1  2 2s         0.06491   0.00000     -0.000  -0.000   0.000
    1  3 2py        1.36826   0.00000      0.000  -0.000   0.000
    1  4 2pz        1.60929   0.00000      0.000   0.000   0.000
    1  5 2px        1.64908   0.00000      0.000  -0.000   0.000
    1  6 2py        0.07883   0.00000     -0.000   0.000   0.000
    1  7 2pz       -0.01594   0.00000      0.000  -0.000   0.000
    1  8 2px       -0.00089   0.00000     -0.000   0.000   0.000
    1  9 3Pdxy      0.00847   0.00000      0.000  -0.000  -0.000
    1 10 3Pdyz      0.00770   0.00000      0.000   0.000  -0.000
    1 11 3Pdz2      0.00184   0.00000      0.000   0.000   0.000
    1 12 3Pdxz     -0.00002   0.00000      0.000  -0.000   0.000
    1 13 3Pdx2-y2   0.00549   0.00000      0.000  -0.000  -0.000
    1     Total     6.50521   0.00000     -0.000  -0.000   0.000

   28  1 2s         1.73936   0.00000     -0.000   0.000   0.000
   28  2 2s         0.06154   0.00000      0.000   0.000  -0.000
   28  3 2py        1.36789   0.00000     -0.000  -0.000   0.000
   28  4 2pz        1.60009   0.00000     -0.000   0.000   0.000
   28  5 2px        1.66223   0.00000     -0.000   0.000  -0.000
   28  6 2py        0.07428   0.00000     -0.000  -0.000  -0.000
   28  7 2pz       -0.01413   0.00000     -0.000   0.000   0.000
   28  8 2px       -0.00216   0.00000     -0.000   0.000   0.000
   28  9 3Pdxy      0.00823   0.00000      0.000  -0.000   0.000
   28 10 3Pdyz      0.00856   0.00000      0.000   0.000  -0.000
   28 11 3Pdz2      0.00143   0.00000      0.000   0.000  -0.000
   28 12 3Pdxz     -0.00014   0.00000      0.000  -0.000  -0.000
   28 13 3Pdx2-y2   0.00663   0.00000     -0.000  -0.000  -0.000
   28     Total     6.51381   0.00000     -0.000   0.000   0.000

----------------------------------------------------------------
Total              13.01903   0.00000     -0.000   0.000   0.000


Species: N                   

Atom      Orb        Charge      Spin       Svec
----------------------------------------------------------------
    2  1 2s         1.55420   0.00000      0.000   0.000   0.000
    2  2 2s         0.08355   0.00000     -0.000  -0.000   0.000
    2  3 2py        1.04155   0.00000      0.000   0.000   0.000
    2  4 2pz        1.22475   0.00000      0.000   0.000   0.000
    2  5 2px        0.98692   0.00000      0.000  -0.000   0.000
    2  6 2py        0.18854   0.00000     -0.000   0.000  -0.000
    2  7 2pz        0.05628   0.00000     -0.000  -0.000  -0.000
    2  8 2px        0.19561   0.00000      0.000   0.000  -0.000
    2  9 3Pdxy      0.00856   0.00000     -0.000  -0.000   0.000
    2 10 3Pdyz      0.01122   0.00000     -0.000   0.000  -0.000
    2 11 3Pdz2      0.00194   0.00000     -0.000  -0.000  -0.000
    2 12 3Pdxz      0.00764   0.00000     -0.000   0.000  -0.000
    2 13 3Pdx2-y2   0.00928   0.00000      0.000   0.000   0.000
    2     Total     5.37004   0.00000      0.000   0.000   0.000

    3  1 2s         1.38038   0.00000     -0.000   0.000  -0.000
    3  2 2s         0.12508   0.00000      0.000  -0.000   0.000
    3  3 2py        0.93878   0.00000     -0.000   0.000   0.000
    3  4 2pz        1.54052   0.00000     -0.000  -0.000   0.000
    3  5 2px        1.07253   0.00000      0.000  -0.000  -0.000
    3  6 2py        0.25499   0.00000     -0.000  -0.000   0.000
    3  7 2pz        0.00549   0.00000     -0.000   0.000   0.000
    3  8 2px        0.18844   0.00000     -0.000   0.000   0.000
    3  9 3Pdxy      0.00407   0.00000      0.000  -0.000   0.000
    3 10 3Pdyz      0.00387   0.00000     -0.000   0.000  -0.000
    3 11 3Pdz2      0.00055   0.00000      0.000   0.000  -0.000
    3 12 3Pdxz      0.00280   0.00000     -0.000  -0.000   0.000
    3 13 3Pdx2-y2   0.00245   0.00000     -0.000  -0.000  -0.000
    3     Total     5.51996   0.00000     -0.000  -0.000   0.000

    4  1 2s         1.46241   0.00000     -0.000   0.000  -0.000
    4  2 2s         0.11865   0.00000     -0.000  -0.000   0.000
    4  3 2py        1.13047   0.00000      0.000   0.000  -0.000
    4  4 2pz        1.29312   0.00000     -0.000   0.000  -0.000
    4  5 2px        0.82497   0.00000     -0.000   0.000   0.000
    4  6 2py        0.15040   0.00000     -0.000  -0.000   0.000
    4  7 2pz        0.05362   0.00000     -0.000  -0.000   0.000
    4  8 2px        0.29148   0.00000     -0.000  -0.000  -0.000
    4  9 3Pdxy      0.00877   0.00000     -0.000   0.000  -0.000
    4 10 3Pdyz      0.01045   0.00000      0.000  -0.000  -0.000
    4 11 3Pdz2      0.00129   0.00000     -0.000   0.000  -0.000
    4 12 3Pdxz      0.00478   0.00000      0.000   0.000   0.000
    4 13 3Pdx2-y2   0.00796   0.00000     -0.000  -0.000   0.000
    4     Total     5.35836   0.00000     -0.000   0.000  -0.000

    5  1 2s         1.37162   0.00000      0.000   0.000   0.000
    5  2 2s         0.12985   0.00000     -0.000  -0.000   0.000
    5  3 2py        1.02680   0.00000     -0.000   0.000   0.000
    5  4 2pz        1.49834   0.00000      0.000   0.000   0.000
    5  5 2px        1.05680   0.00000     -0.000   0.000   0.000
    5  6 2py        0.20610   0.00000      0.000  -0.000   0.000
    5  7 2pz        0.01379   0.00000     -0.000  -0.000  -0.000
    5  8 2px        0.20515   0.00000      0.000   0.000  -0.000
    5  9 3Pdxy      0.00389   0.00000     -0.000   0.000  -0.000
    5 10 3Pdyz      0.00242   0.00000     -0.000   0.000  -0.000
    5 11 3Pdz2      0.00141   0.00000      0.000   0.000  -0.000
    5 12 3Pdxz      0.00674   0.00000     -0.000  -0.000  -0.000
    5 13 3Pdx2-y2   0.00551   0.00000      0.000   0.000   0.000
    5     Total     5.52843   0.00000      0.000   0.000   0.000

    6  1 2s         1.26326   0.00000     -0.000   0.000  -0.000
    6  2 2s         0.18234   0.00000      0.000  -0.000   0.000
    6  3 2py        1.06988   0.00000      0.000   0.000   0.000
    6  4 2pz        1.52165   0.00000      0.000  -0.000   0.000
    6  5 2px        0.97045   0.00000     -0.000  -0.000   0.000
    6  6 2py        0.19507   0.00000      0.000  -0.000   0.000
    6  7 2pz        0.03427   0.00000     -0.000   0.000   0.000
    6  8 2px        0.25818   0.00000      0.000  -0.000   0.000
    6  9 3Pdxy      0.00230   0.00000     -0.000  -0.000  -0.000
    6 10 3Pdyz      0.00001   0.00000      0.000  -0.000  -0.000
    6 11 3Pdz2      0.00159   0.00000      0.000  -0.000  -0.000
    6 12 3Pdxz      0.00390   0.00000     -0.000   0.000  -0.000
    6 13 3Pdx2-y2   0.00428   0.00000      0.000   0.000  -0.000
    6     Total     5.50719   0.00000      0.000  -0.000   0.000

   21  1 2s         1.41173   0.00000      0.000   0.000   0.000
   21  2 2s         0.13007   0.00000     -0.000  -0.000  -0.000
   21  3 2py        0.89074   0.00000      0.000   0.000   0.000
   21  4 2pz        1.32069   0.00000     -0.000  -0.000   0.000
   21  5 2px        1.15411   0.00000     -0.000   0.000   0.000
   21  6 2py        0.27252   0.00000     -0.000  -0.000   0.000
   21  7 2pz        0.04363   0.00000     -0.000  -0.000   0.000
   21  8 2px        0.16362   0.00000      0.000  -0.000  -0.000
   21  9 3Pdxy      0.00607   0.00000     -0.000   0.000  -0.000
   21 10 3Pdyz      0.00458   0.00000     -0.000   0.000  -0.000
   21 11 3Pdz2     -0.00014   0.00000      0.000   0.000   0.000
   21 12 3Pdxz      0.00575   0.00000      0.000  -0.000  -0.000
   21 13 3Pdx2-y2   0.00597   0.00000      0.000  -0.000   0.000
   21     Total     5.40934   0.00000      0.000   0.000   0.000

   22  1 2s         1.28520   0.00000      0.000  -0.000   0.000
   22  2 2s         0.17364   0.00000     -0.000   0.000  -0.000
   22  3 2py        1.06675   0.00000     -0.000  -0.000   0.000
   22  4 2pz        1.48444   0.00000      0.000  -0.000  -0.000
   22  5 2px        1.00792   0.00000     -0.000  -0.000   0.000
   22  6 2py        0.19792   0.00000      0.000   0.000   0.000
   22  7 2pz        0.03371   0.00000     -0.000  -0.000   0.000
   22  8 2px        0.23619   0.00000      0.000   0.000   0.000
   22  9 3Pdxy      0.00339   0.00000     -0.000   0.000  -0.000
   22 10 3Pdyz      0.00009   0.00000     -0.000   0.000  -0.000
   22 11 3Pdz2      0.00226   0.00000     -0.000   0.000  -0.000
   22 12 3Pdxz      0.00408   0.00000     -0.000   0.000   0.000
   22 13 3Pdx2-y2   0.00461   0.00000      0.000   0.000  -0.000
   22     Total     5.50020   0.00000      0.000  -0.000   0.000

   23  1 2s         1.36952   0.00000      0.000  -0.000   0.000
   23  2 2s         0.13096   0.00000     -0.000   0.000  -0.000
   23  3 2py        1.00914   0.00000     -0.000  -0.000  -0.000
   23  4 2pz        1.53396   0.00000     -0.000  -0.000   0.000
   23  5 2px        1.04953   0.00000     -0.000  -0.000   0.000
   23  6 2py        0.21679   0.00000     -0.000  -0.000   0.000
   23  7 2pz        0.00446   0.00000      0.000  -0.000   0.000
   23  8 2px        0.20456   0.00000      0.000   0.000  -0.000
   23  9 3Pdxy      0.00518   0.00000      0.000   0.000  -0.000
   23 10 3Pdyz      0.00459   0.00000      0.000   0.000   0.000
   23 11 3Pdz2      0.00065   0.00000      0.000   0.000  -0.000
   23 12 3Pdxz      0.00243   0.00000     -0.000  -0.000   0.000
   23 13 3Pdx2-y2   0.00148   0.00000     -0.000  -0.000  -0.000
   23     Total     5.53326   0.00000     -0.000  -0.000   0.000

----------------------------------------------------------------
Total              56.74579   0.00000     -0.000  -0.000   0.000


Species: Si                  

Atom      Orb        Charge      Spin       Svec
----------------------------------------------------------------
    7  1 3s         0.64083   0.00000      0.000  -0.000  -0.000
    7  2 3s         0.37659   0.00000     -0.000   0.000  -0.000
    7  3 3py        0.46806   0.00000      0.000   0.000  -0.000
    7  4 3pz        0.68387   0.00000      0.000   0.000  -0.000
    7  5 3px        0.10746   0.00000      0.000   0.000  -0.000
    7  6 3py        0.28163   0.00000     -0.000  -0.000  -0.000
    7  7 3pz        0.26667   0.00000     -0.000  -0.000  -0.000
    7  8 3px        0.45278   0.00000     -0.000  -0.000  -0.000
    7  9 3Pdxy      0.25219   0.00000     -0.000  -0.000  -0.000
    7 10 3Pdyz      0.02879   0.00000      0.000   0.000   0.000
    7 11 3Pdz2      0.01060   0.00000      0.000   0.000   0.000
    7 12 3Pdxz      0.15254   0.00000      0.000  -0.000   0.000
    7 13 3Pdx2-y2   0.11141   0.00000      0.000   0.000   0.000
    7     Total     3.83341   0.00000      0.000   0.000  -0.000

    8  1 3s         0.65380   0.00000     -0.000  -0.000   0.000
    8  2 3s         0.36970   0.00000     -0.000   0.000  -0.000
    8  3 3py        0.39594   0.00000      0.000  -0.000  -0.000
    8  4 3pz        0.50484   0.00000      0.000   0.000   0.000
    8  5 3px       -0.02023   0.00000      0.000  -0.000   0.000
    8  6 3py        0.30537   0.00000     -0.000  -0.000   0.000
    8  7 3pz        0.20613   0.00000     -0.000   0.000   0.000
    8  8 3px        0.51220   0.00000     -0.000  -0.000  -0.000
    8  9 3Pdxy      0.24877   0.00000     -0.000  -0.000   0.000
    8 10 3Pdyz      0.11211   0.00000     -0.000  -0.000   0.000
    8 11 3Pdz2      0.01408   0.00000     -0.000  -0.000   0.000
    8 12 3Pdxz      0.15690   0.00000     -0.000  -0.000  -0.000
    8 13 3Pdx2-y2   0.20184   0.00000     -0.000  -0.000  -0.000
    8     Total     3.66144   0.00000     -0.000  -0.000   0.000

    9  1 3s         0.58022   0.00000     -0.000   0.000   0.000
    9  2 3s         0.37768   0.00000      0.000  -0.000  -0.000
    9  3 3py        0.10115   0.00000      0.000   0.000  -0.000
    9  4 3pz        0.46828   0.00000      0.000  -0.000   0.000
    9  5 3px        0.34868   0.00000     -0.000   0.000   0.000
    9  6 3py        0.41649   0.00000     -0.000   0.000   0.000
    9  7 3pz        0.19472   0.00000     -0.000  -0.000   0.000
    9  8 3px        0.29149   0.00000      0.000  -0.000  -0.000
    9  9 3Pdxy      0.29473   0.00000      0.000  -0.000   0.000
    9 10 3Pdyz      0.19202   0.00000      0.000  -0.000   0.000
    9 11 3Pdz2      0.01147   0.00000      0.000  -0.000  -0.000
    9 12 3Pdxz      0.10644   0.00000     -0.000   0.000   0.000
    9 13 3Pdx2-y2   0.17713   0.00000     -0.000   0.000  -0.000
    9     Total     3.56050   0.00000     -0.000  -0.000   0.000

   10  1 3s         0.48287   0.00000     -0.000  -0.000  -0.000
   10  2 3s         0.37684   0.00000      0.000   0.000   0.000
   10  3 3py        0.24535   0.00000     -0.000  -0.000  -0.000
   10  4 3pz        0.41669   0.00000     -0.000  -0.000  -0.000
   10  5 3px        0.09294   0.00000     -0.000   0.000  -0.000
   10  6 3py        0.31862   0.00000     -0.000  -0.000  -0.000
   10  7 3pz        0.21871   0.00000      0.000   0.000  -0.000
   10  8 3px        0.44594   0.00000     -0.000  -0.000  -0.000
   10  9 3Pdxy      0.17539   0.00000     -0.000  -0.000  -0.000
   10 10 3Pdyz      0.13105   0.00000      0.000   0.000  -0.000
   10 11 3Pdz2      0.00922   0.00000      0.000   0.000   0.000
   10 12 3Pdxz      0.18404   0.00000     -0.000  -0.000  -0.000
   10 13 3Pdx2-y2   0.30711   0.00000      0.000   0.000  -0.000
   10     Total     3.40476   0.00000     -0.000   0.000  -0.000

   11  1 3s         0.55101   0.00000      0.000   0.000  -0.000
   11  2 3s         0.38655   0.00000     -0.000  -0.000  -0.000
   11  3 3py        0.31011   0.00000     -0.000   0.000  -0.000
   11  4 3pz        0.53104   0.00000     -0.000   0.000  -0.000
   11  5 3px        0.13143   0.00000      0.000   0.000  -0.000
   11  6 3py        0.29934   0.00000      0.000  -0.000   0.000
   11  7 3pz        0.17957   0.00000      0.000  -0.000  -0.000
   11  8 3px        0.44252   0.00000     -0.000  -0.000   0.000
   11  9 3Pdxy      0.23583   0.00000      0.000   0.000  -0.000
   11 10 3Pdyz      0.12941   0.00000      0.000  -0.000  -0.000
   11 11 3Pdz2      0.00996   0.00000      0.000   0.000   0.000
   11 12 3Pdxz      0.05438   0.00000      0.000   0.000  -0.000
   11 13 3Pdx2-y2   0.19802   0.00000     -0.000  -0.000  -0.000
   11     Total     3.45919   0.00000      0.000  -0.000  -0.000

   17  1 3s         0.64332   0.00000      0.000  -0.000   0.000
   17  2 3s         0.35656   0.00000     -0.000   0.000  -0.000
   17  3 3py        0.23863   0.00000      0.000  -0.000   0.000
   17  4 3pz        0.42386   0.00000      0.000   0.000  -0.000
   17  5 3px        0.22674   0.00000      0.000  -0.000  -0.000
   17  6 3py        0.36200   0.00000     -0.000   0.000  -0.000
   17  7 3pz        0.21469   0.00000      0.000   0.000  -0.000
   17  8 3px        0.38875   0.00000      0.000  -0.000  -0.000
   17  9 3Pdxy      0.28180   0.00000     -0.000  -0.000  -0.000
   17 10 3Pdyz      0.13203   0.00000     -0.000   0.000  -0.000
   17 11 3Pdz2      0.00791   0.00000      0.000  -0.000  -0.000
   17 12 3Pdxz      0.15091   0.00000      0.000   0.000  -0.000
   17 13 3Pdx2-y2   0.17616   0.00000     -0.000  -0.000  -0.000
   17     Total     3.60334   0.00000      0.000  -0.000  -0.000

   18  1 3s         0.75322   0.00000     -0.000   0.000  -0.000
   18  2 3s         0.33857   0.00000      0.000  -0.000   0.000
   18  3 3py        0.08668   0.00000      0.000  -0.000  -0.000
   18  4 3pz        0.80727   0.00000     -0.000  -0.000  -0.000
   18  5 3px        0.53441   0.00000     -0.000   0.000  -0.000
   18  6 3py        0.51413   0.00000     -0.000   0.000  -0.000
   18  7 3pz        0.19723   0.00000      0.000   0.000  -0.000
   18  8 3px        0.26359   0.00000      0.000  -0.000  -0.000
   18  9 3Pdxy      0.10684   0.00000      0.000   0.000   0.000
   18 10 3Pdyz      0.02639   0.00000      0.000   0.000   0.000
   18 11 3Pdz2      0.00901   0.00000     -0.000   0.000   0.000
   18 12 3Pdxz      0.03210   0.00000     -0.000   0.000   0.000
   18 13 3Pdx2-y2   0.10514   0.00000     -0.000   0.000  -0.000
   18     Total     3.77458   0.00000     -0.000   0.000  -0.000

   19  1 3s         0.45234   0.00000     -0.000   0.000  -0.000
   19  2 3s         0.36561   0.00000      0.000  -0.000  -0.000
   19  3 3py        0.08640   0.00000     -0.000   0.000  -0.000
   19  4 3pz        0.40585   0.00000      0.000  -0.000  -0.000
   19  5 3px        0.28014   0.00000      0.000   0.000   0.000
   19  6 3py        0.45119   0.00000      0.000  -0.000  -0.000
   19  7 3pz        0.19284   0.00000     -0.000  -0.000  -0.000
   19  8 3px        0.28852   0.00000     -0.000  -0.000  -0.000
   19  9 3Pdxy      0.32365   0.00000      0.000  -0.000  -0.000
   19 10 3Pdyz      0.18525   0.00000     -0.000   0.000  -0.000
   19 11 3Pdz2      0.01193   0.00000      0.000   0.000   0.000
   19 12 3Pdxz      0.10068   0.00000      0.000  -0.000  -0.000
   19 13 3Pdx2-y2   0.24697   0.00000      0.000  -0.000  -0.000
   19     Total     3.39136   0.00000      0.000  -0.000  -0.000

   20  1 3s         0.67927   0.00000     -0.000   0.000   0.000
   20  2 3s         0.37652   0.00000      0.000  -0.000   0.000
   20  3 3py        0.33695   0.00000     -0.000   0.000   0.000
   20  4 3pz        0.60722   0.00000      0.000  -0.000   0.000
   20  5 3px        0.13677   0.00000      0.000   0.000   0.000
   20  6 3py        0.28323   0.00000      0.000  -0.000   0.000
   20  7 3pz        0.16117   0.00000     -0.000   0.000   0.000
   20  8 3px        0.50322   0.00000     -0.000  -0.000  -0.000
   20  9 3Pdxy      0.09921   0.00000     -0.000  -0.000   0.000
   20 10 3Pdyz      0.12970   0.00000      0.000   0.000   0.000
   20 11 3Pdz2      0.00718   0.00000     -0.000  -0.000  -0.000
   20 12 3Pdxz      0.02705   0.00000      0.000  -0.000  -0.000
   20 13 3Pdx2-y2   0.17421   0.00000      0.000   0.000  -0.000
   20     Total     3.52169   0.00000      0.000   0.000   0.000

----------------------------------------------------------------
Total              88.95607   0.00000     -0.000  -0.000  -0.000


Species: H                   

Atom      Orb        Charge      Spin       Svec
----------------------------------------------------------------
   12  1 1s         0.47642   0.00000      0.000   0.000  -0.000
   12  2 1s         0.18287   0.00000      0.000  -0.000   0.000
   12  3 2Ppy       0.03843   0.00000     -0.000  -0.000   0.000
   12  4 2Ppz       0.03073   0.00000     -0.000   0.000  -0.000
   12  5 2Ppx       0.04186   0.00000      0.000  -0.000  -0.000
   12     Total     0.77031   0.00000      0.000   0.000  -0.000

   13  1 1s         1.01830   0.00000     -0.000  -0.000   0.000
   13  2 1s         0.09740   0.00000     -0.000   0.000   0.000
   13  3 2Ppy       0.01915   0.00000     -0.000   0.000   0.000
   13  4 2Ppz       0.02020   0.00000      0.000   0.000  -0.000
   13  5 2Ppx       0.03327   0.00000     -0.000   0.000   0.000
   13     Total     1.18831   0.00000     -0.000  -0.000   0.000

   14  1 1s         0.48548   0.00000      0.000  -0.000  -0.000
   14  2 1s         0.19662   0.00000      0.000   0.000  -0.000
   14  3 2Ppy       0.01966   0.00000      0.000  -0.000   0.000
   14  4 2Ppz       0.04829   0.00000     -0.000   0.000  -0.000
   14  5 2Ppx       0.02069   0.00000     -0.000   0.000  -0.000
   14     Total     0.77073   0.00000      0.000  -0.000  -0.000

   15  1 1s         0.45166   0.00000      0.000  -0.000  -0.000
   15  2 1s         0.17700   0.00000     -0.000   0.000   0.000
   15  3 2Ppy       0.04123   0.00000      0.000   0.000  -0.000
   15  4 2Ppz       0.04260   0.00000     -0.000   0.000  -0.000
   15  5 2Ppx       0.07512   0.00000      0.000   0.000  -0.000
   15     Total     0.78761   0.00000      0.000   0.000  -0.000

   16  1 1s         0.50476   0.00000      0.000  -0.000  -0.000
   16  2 1s         0.19068   0.00000      0.000   0.000  -0.000
   16  3 2Ppy       0.02900   0.00000     -0.000  -0.000  -0.000
   16  4 2Ppz       0.03959   0.00000     -0.000  -0.000  -0.000
   16  5 2Ppx       0.02424   0.00000     -0.000  -0.000  -0.000
   16     Total     0.78828   0.00000     -0.000  -0.000  -0.000

   24  1 1s         1.05790   0.00000     -0.000   0.000   0.000
   24  2 1s         0.07611   0.00000     -0.000  -0.000   0.000
   24  3 2Ppy       0.03065   0.00000     -0.000  -0.000  -0.000
   24  4 2Ppz       0.03029   0.00000     -0.000   0.000  -0.000
   24  5 2Ppx       0.01785   0.00000     -0.000  -0.000   0.000
   24     Total     1.21281   0.00000     -0.000   0.000   0.000

   25  1 1s         1.04576   0.00000     -0.000  -0.000  -0.000
   25  2 1s         0.08509   0.00000      0.000   0.000   0.000
   25  3 2Ppy       0.01141   0.00000     -0.000  -0.000  -0.000
   25  4 2Ppz       0.01892   0.00000      0.000   0.000   0.000
   25  5 2Ppx       0.03592   0.00000      0.000  -0.000   0.000
   25     Total     1.19711   0.00000     -0.000  -0.000   0.000

   26  1 1s         0.49149   0.00000      0.000   0.000  -0.000
   26  2 1s         0.19498   0.00000      0.000  -0.000  -0.000
   26  3 2Ppy       0.02211   0.00000      0.000   0.000  -0.000
   26  4 2Ppz       0.04878   0.00000      0.000  -0.000  -0.000
   26  5 2Ppx       0.01989   0.00000      0.000  -0.000  -0.000
   26     Total     0.77725   0.00000      0.000   0.000  -0.000

   27  1 1s         0.44695   0.00000      0.000   0.000   0.000
   27  2 1s         0.17170   0.00000     -0.000   0.000  -0.000
   27  3 2Ppy       0.04971   0.00000     -0.000   0.000  -0.000
   27  4 2Ppz       0.03993   0.00000     -0.000  -0.000  -0.000
   27  5 2Ppx       0.07973   0.00000      0.000  -0.000  -0.000
   27     Total     0.78802   0.00000      0.000   0.000  -0.000

   29  1 1s         0.48892   0.00000      0.000   0.000  -0.000
   29  2 1s         0.18823   0.00000      0.000  -0.000   0.000
   29  3 2Ppy       0.02471   0.00000      0.000  -0.000   0.000
   29  4 2Ppz       0.03477   0.00000      0.000  -0.000  -0.000
   29  5 2Ppx       0.02687   0.00000      0.000  -0.000  -0.000
   29     Total     0.76349   0.00000      0.000  -0.000  -0.000

----------------------------------------------------------------
Total              98.00000   0.00000      0.000   0.000   0.000


siesta: Eigenvalues (eV):
ik =     1
  -22.7001  -22.7001  -22.2505  -22.2505  -21.3986  -21.3986  -21.2750  -21.2750  -21.0356  -21.0356
  -20.8372  -20.8372  -20.3435  -20.3435  -19.6214  -19.6214  -19.5407  -19.5407  -19.4103  -19.4103
  -14.7662  -14.7662  -13.8302  -13.8302  -13.2840  -13.2840  -13.1075  -13.1075  -12.9195  -12.9195
  -12.6781  -12.6781  -12.5799  -12.5799  -12.1406  -12.1406  -11.8498  -11.8498  -11.7131  -11.7131
  -11.0653  -11.0653  -10.8283  -10.8283  -10.5959  -10.5959  -10.4176  -10.4176  -10.1707  -10.1707
   -9.6548   -9.6548   -9.0968   -9.0968   -8.9349   -8.9349   -8.8128   -8.8128   -8.6450   -8.6450
   -8.5473   -8.5473   -8.4324   -8.4324   -8.3234   -8.3234   -7.9960   -7.9960   -7.8359   -7.8359
   -7.6185   -7.6185   -7.3879   -7.3879   -7.2095   -7.2095   -7.0885   -7.0885   -6.8887   -6.8887
   -6.6176   -6.6176   -6.5914   -6.5914   -6.3849   -6.3849   -6.3165   -6.3165   -6.3141   -6.3141
   -6.1286   -6.1286   -5.9620   -5.9620   -5.5509   -5.5509   -4.3107   -4.3107   -3.2591   -3.2591
   -2.3328   -2.3328   -2.2766   -2.2766   -2.1719   -2.1719   -1.8936   -1.8936   -1.8527   -1.8527
   -1.8051   -1.8051   -1.6572   -1.6572   -1.6120   -1.6120   -1.1576   -1.1576   -1.1171   -1.1171
   -0.8988   -0.8988   -0.5022   -0.5022   -0.4096   -0.4096   -0.3084   -0.3084    0.3811    0.3811
    0.5118    0.5118    0.5481    0.5481    0.7037    0.7037    1.0603    1.0603    1.1696    1.1696
    1.3371    1.3371    1.4014    1.4014    1.4611    1.4611    1.6027    1.6027    1.9823    1.9823
    2.0223    2.0223    2.6684    2.6684    2.7345    2.7345    2.7465    2.7465    2.8889    2.8889
    2.8926    2.8926    2.9699    2.9699    3.1266    3.1266    3.4622    3.4622    3.5963    3.5963
    3.8166    3.8166    4.0734    4.0734    4.1889    4.1889    4.2472    4.2472    4.4953    4.4953
    4.6406    4.6406    4.7396    4.7396    4.7728    4.7728    4.9934    4.9934    5.2838    5.2838
    5.3072    5.3072    5.4443    5.4443    5.7360    5.7360    5.7931    5.7931    5.9367    5.9367
    6.0206    6.0206    6.2684    6.2684    6.4132    6.4132    6.5154    6.5154    6.5566    6.5566
    6.7065    6.7065    6.7902    6.7902    6.9542    6.9542    7.0914    7.0914    7.1208    7.1208
    7.2336    7.2336    7.7072    7.7072    7.7293    7.7293    7.8570    7.8570    8.0463    8.0463
    8.0944    8.0944    8.3440    8.3440    8.4600    8.4600    8.5107    8.5107    8.6498    8.6498
    8.8094    8.8094    8.8599    8.8599    9.0809    9.0809    9.0888    9.0888    9.4694    9.4694
    9.5280    9.5280    9.8137    9.8137    9.9663    9.9663    9.9962    9.9962   10.2127   10.2127
   10.2215   10.2215   10.5961   10.5961   10.8741   10.8741   11.2325   11.2325   11.3619   11.3619
   11.3676   11.3676   11.4832   11.4832   12.2524   12.2524   12.3316   12.3316   12.3925   12.3925
   12.4941   12.4941   12.6476   12.6476   12.6908   12.6908   13.0314   13.0314   13.1460   13.1460
   13.6062   13.6062   13.6776   13.6776   13.6996   13.6996   13.9921   13.9921   14.0577   14.0577
   14.2811   14.2811   14.4782   14.4782   14.9824   14.9824   15.1395   15.1395   15.1816   15.1816
   15.5704   15.5704   16.2934   16.2934   16.7464   16.7464   16.7538   16.7538   17.1547   17.1547
   17.2550   17.2550   17.7174   17.7174   18.1641   18.1641   18.7864   18.7864   19.0425   19.0425
   19.4828   19.4828   19.8560   19.8560   20.2252   20.2252   20.6562   20.6562   20.7687   20.7687
   21.2959   21.2959   21.8869   21.8869   22.4244   22.4244   22.9801   22.9801   23.1736   23.1736
   23.8031   23.8031   23.9977   23.9977   24.1904   24.1904   24.4611   24.4611   25.1699   25.1699
   25.7472   25.7472   26.1558   26.1558   26.6762   26.6762   27.7693   27.7693   28.9001   28.9001
   29.2681   29.2681   29.4710   29.4710   30.1322   30.1322   30.3001   30.3001   30.6494   30.6494
   30.9368   30.9368   30.9621   30.9621   31.2406   31.2406   31.4987   31.4987   31.6389   31.6389
   32.0995   32.0995   33.2281   33.2281   33.7673   33.7673   34.1103   34.1103   34.1166   34.1166
   35.2505   35.2505   35.4722   35.4722   35.6112   35.6112   35.9934   35.9934   36.3053   36.3053
   36.5366   36.5366   36.9114   36.9114   37.1145   37.1145   37.1883   37.1883   38.4605   38.4605
   38.7710   38.7710   39.1358   39.1358   39.4648   39.4648   39.6867   39.6867   40.2840   40.2840
   40.3674   40.3674   40.6439   40.6439   41.3766   41.3766   41.4005   41.4005   41.6475   41.6475
   41.9949   41.9949   42.3730   42.3730   42.4942   42.4942   43.2676   43.2676   43.5143   43.5143
   43.7510   43.7510   43.8678   43.8678   44.0478   44.0478   44.3800   44.3800   44.7935   44.7935
   45.1179   45.1179   45.2320   45.2320   45.3644   45.3644   45.9434   45.9434   46.2415   46.2415
   46.5448   46.5448   47.3148   47.3148   47.8373   47.8373   48.0115   48.0115   49.1511   49.1511
   49.7117   49.7117   50.1930   50.1930   50.5134   50.5134   50.5320   50.5320   50.6674   50.6674
   51.2844   51.2844   51.7846   51.7846   52.4065   52.4065   52.4528   52.4528   54.0781   54.0781
   54.1685   54.1685   54.3280   54.3280   55.3912   55.3912   55.7964   55.7964   56.2076   56.2076
   56.4378   56.4378   56.9292   56.9292   58.0601   58.0601   58.4129   58.4129   58.5614   58.5614
   60.0226   60.0226   60.2568   60.2568   60.5065   60.5065   61.1662   61.1662   61.3948   61.3948
   62.3427   62.3427   62.5395   62.5395   62.9696   62.9696   63.3287   63.3287   66.0927   66.0927
   67.0047   67.0047   68.2995   68.2995   68.3792   68.3792   69.1690   69.1690   69.1757   69.1757
   70.0095   70.0095   70.8048   70.8048   71.4518   71.4518   75.6052   75.6052   85.9685   85.9685
   86.6737   86.6737   88.4687   88.4687   94.1877   94.1877   94.6169   94.6169   95.0942   95.0942
   99.5810   99.5810  100.9255  100.9255  102.5944  102.5944  104.3517  104.3517  105.5770  105.5770
  114.9922  114.9922  116.8507  116.8507  125.7375  125.7375  127.9393  127.9393  138.1131  138.1131
  144.2960  144.2960  146.3026  146.3026
siesta: Fermi energy =      -3.784980 eV

siesta: Program's energy decomposition (eV):
siesta: Ebs     =     -1134.017955
siesta: Eions   =      3585.165840
siesta: Ena     =       382.828579
siesta: Ekin    =      2912.141363
siesta: Enl     =     -2796.770468
siesta: Eso     =        -0.004335
siesta: Edftu   =         0.000000
siesta: DEna    =        47.938462
siesta: DUscf   =        13.811624
siesta: DUext   =         0.000000
siesta: Exc     =     -1122.845468
siesta: eta*DQ  =         0.000000
siesta: Emadel  =         0.000000
siesta: Emeta   =         0.000000
siesta: Emolmec =         0.000000
siesta: Ekinion =         0.000000
siesta: Eharris =     -4148.066082
siesta: Etot    =     -4148.066082
siesta: FreeEng =     -4148.066082

siesta: Final energy (eV):
siesta:  Band Struct. =   -1134.017955
siesta:       Kinetic =    2912.141363
siesta:       Hartree =    9012.311478
siesta:       Edftu   =       0.000000
siesta:       Eso     =      -0.004335
siesta:    Ext. field =       0.000000
siesta:   Exch.-corr. =   -1122.845468
siesta:  Ion-electron =  -20613.031415
siesta:       Ion-ion =    5663.362295
siesta:       Ekinion =       0.000000
siesta:         Total =   -4148.066082
siesta:         Fermi =      -3.784980

siesta: Atomic forces (eV/Ang):
siesta:      1   -0.176699    1.640760    0.000000
siesta:      2   -0.002746    0.005798   -0.000000
siesta:      3    0.091218   -0.014308   -0.000000
siesta:      4    0.076777   -0.001819   -0.000000
siesta:      5    0.005730   -0.012170   -0.000000
siesta:      6    0.300345    0.180623    0.000000
siesta:      7    0.002261   -0.025103    0.000000
siesta:      8   -0.039793    0.029469    0.000000
siesta:      9    0.000800    0.132835   -0.000000
siesta:     10   -0.090436    0.053101    0.000000
siesta:     11   -0.002083   -0.002984    0.000000
siesta:     12   -0.038737    0.074168    0.000000
siesta:     13   -0.017301   -0.039134   -0.000000
siesta:     14   -0.114569   -0.172829   -0.000000
siesta:     15   -0.323281   -0.053967    0.000000
siesta:     16    0.113056   -0.253886    0.000000
siesta:     17    0.093751   -0.126438   -0.000000
siesta:     18   -0.022372    0.017889    0.000000
siesta:     19   -0.036234   -0.116433   -0.000000
siesta:     20   -0.008856   -0.041622   -0.000000
siesta:     21   -0.046012    0.094095    0.000000
siesta:     22   -0.370798   -0.219303    0.000000
siesta:     23    0.016660    0.003664    0.000000
siesta:     24   -0.028555    0.119972    0.000000
siesta:     25   -0.010772    0.052995   -0.000000
siesta:     26   -0.008733    0.175426    0.000000
siesta:     27    0.211113    0.076230   -0.000000
siesta:     28    0.802420    2.168018   -0.000000
siesta:     29   -0.015059    0.086944   -0.000000
siesta: ----------------------------------------
siesta:    Tot    0.361095    3.831992    0.000000

siesta: Stress tensor (static) (eV/Ang**3):
siesta:    -0.000155    0.000138   -0.000000
siesta:     0.000138   -0.000364    0.000000
siesta:     0.000000   -0.000000   -0.000077

siesta: Cell volume =       4431.627782 Ang**3

siesta: Pressure (static):
siesta:                Solid            Molecule  Units
siesta:           0.00000216         -0.00000135  Ry/Bohr**3
siesta:           0.00019865         -0.00012368  eV/Ang**3
siesta:           0.31827030         -0.19815918  kBar
(Free)E+ p_basis*V_orbitals  =       -4128.215664
(Free)Eharris+ p_basis*V_orbitals  =       -4128.215664
     spin moment: S , {S} =    0.00000   0.00000   0.00000   0.00000

siesta: Electric dipole (a.u.)  =    1.653506    0.169564    0.000000
siesta: Electric dipole (Debye) =    4.202795    0.430988    0.000000

cite: Please see "GC.bib" for an exhaustive BiBTeX file.
cite: Please clearly indicate Siesta version in published work: v4.1.5-1-g384057250
cite: This calculation has made use of the following articles
cite: which are encouraged to be cited in a published work.
        Primary SIESTA paper
          DOI: www.doi.org/10.1088/0953-8984/14/11/302
        Spin-orbit coupling (on-site approximation)
          DOI: www.doi.org/10.1088/0953-8984/19/19/489001


WARNING: alloc-realloc-dealloc name mismatch
         Name: atomlist isa
         Size:              -116. Bytes
         Node:     0
         Subsequent mismatches will not be reported
>> End of run:   4-JUL-2023   9:36:12
Job completed
