<?xml version="1.0" encoding="UTF-8" ?>
<psml version="1.1" energy_unit="hartree" length_unit="bohr"
 uuid="d073b020-3e16-11ef-6770-6689b1f74d2d"
 xmlns="http://esl.cecam.org/PSML/ns/1.1">
<provenance creator="ATM4.2.7" date=" 9-JUL-24">
<annotation action="semilocal-pseudopotential-generation" />
<input-file name="INP">
<![CDATA[   pg  Hydrogen
        tm2    2.000
   H    pbr 00000000
       0.0
    0    1
    1    0     0.500     0.500
   0.05240   0.00000   1.00000   1.00000   1.00000   0.00000
]]>
</input-file>
</provenance>
<pseudo-atom-spec atomic-label="H" atomic-number="1" z-pseudo="1"
 flavor="Troullier-Martins" relativity="dirac" spin-dft="no"
 core-corrections="no">
<annotation pseudo-energy="-0.458921596658" />
<exchange-correlation>
<annotation atom-xc-code="pb" siesta-xc-type="GGA" siesta-xc-authors="PBE" />
<libxc-info number-of-functionals="2">
<functional name="XC_GGA_X_PBE" type="XC_EXCHANGE" id="101" />
<functional name="XC_GGA_C_PBE" type="XC_CORRELATION" id="130" />
</libxc-info>
</exchange-correlation>
<valence-configuration total-valence-charge="1">
<shell n="1" l="s" occupation="1" />
</valence-configuration>
</pseudo-atom-spec>
<grid npts="376">
<annotation type="sampled-log-atom"
 recipe="r(i:1..N) = a*(exp(b*(i-1))-1); resampled"
 recipe-cont="a: scale; b: step" scale="0.247875217667E-02"
 step="0.125000000000E-01" delta="0.500000000000E-02" rmax="20" />
<grid-data>
  0.000000000000E+00  5.061497378559E-03  1.010939006577E-02  1.516276895795E-02
  2.017340934922E-02  2.518866038934E-02  3.047994836604E-02  3.581379470968E-02
  4.091238809158E-02  4.607906909334E-02  5.118593973606E-02  5.682990465277E-02
  6.225322253433E-02  6.729481741978E-02  7.272907264199E-02  7.858657021787E-02
  8.381483432270E-02  8.938029249206E-02  9.530469187468E-02  1.003181562586E-01
  1.055886664582E-01  1.111294014941E-01  1.169542160901E-01  1.230776753165E-01
  1.295150910112E-01  1.345588393619E-01  1.397953194098E-01  1.452318958181E-01
  1.508762146683E-01  1.567362142138E-01  1.628201360449E-01  1.691365366793E-01
  1.756942995962E-01  1.825026477306E-01  1.895711564441E-01  1.969097669919E-01
  2.019573113858E-01  2.071326349744E-01  2.124389725035E-01  2.178796406066E-01
  2.234580398784E-01  2.291776570002E-01  2.350420669188E-01  2.410549350813E-01
  2.472200197259E-01  2.535411742315E-01  2.600223495251E-01  2.666675965525E-01
  2.734810688093E-01  2.804670249375E-01  2.876298313870E-01  2.949739651451E-01
  3.025040165344E-01  3.102246920822E-01  3.181408174620E-01  3.262573405099E-01
  3.345793343170E-01  3.431120004003E-01  3.518606719539E-01  3.608308171823E-01
  3.700280427183E-01  3.794580971273E-01  3.891268745001E-01  3.990404181375E-01
  4.040909075639E-01  4.092049243269E-01  4.143832675018E-01  4.196267462155E-01
  4.249361797721E-01  4.303123977813E-01  4.357562402883E-01  4.412685579044E-01
  4.468502119406E-01  4.525020745415E-01  4.582250288223E-01  4.640199690062E-01
  4.698878005643E-01  4.758294403574E-01  4.818458167787E-01  4.879378698992E-01
  4.941065516147E-01  5.003528257943E-01  5.066776684309E-01  5.130820677941E-01
  5.195670245844E-01  5.261335520893E-01  5.327826763423E-01  5.395154362825E-01
  5.463328839174E-01  5.532360844869E-01  5.602261166303E-01  5.673040725543E-01
  5.744710582038E-01  5.817281934351E-01  5.890766121901E-01  5.965174626744E-01
  6.040519075360E-01  6.116811240471E-01  6.194063042884E-01  6.272286553349E-01
  6.351493994451E-01  6.431697742512E-01  6.512910329532E-01  6.595144445142E-01
  6.678412938590E-01  6.762728820747E-01  6.848105266143E-01  6.934555615020E-01
  7.022093375420E-01  7.110732225298E-01  7.200486014654E-01  7.291368767700E-01
  7.383394685051E-01  7.476578145943E-01  7.570933710483E-01  7.666476121919E-01
  7.763220308947E-01  7.861181388044E-01  7.960374665827E-01  8.060815641448E-01
  8.162520009013E-01  8.265503660037E-01  8.369782685925E-01  8.475373380487E-01
  8.582292242484E-01  8.690555978205E-01  8.800181504079E-01  8.911185949318E-01
  9.023586658593E-01  9.137401194742E-01  9.252647341519E-01  9.369343106368E-01
  9.487506723240E-01  9.607156655442E-01  9.728311598517E-01  9.850990483172E-01
  9.975212478233E-01  1.010099699364E+00  1.022836368348E+00  1.035733244905E+00
  1.048792344199E+00  1.062015706741E+00  1.075405398708E+00  1.088963512266E+00
  1.102692165899E+00  1.116593504736E+00  1.130669700890E+00  1.144922953795E+00
  1.159355490552E+00  1.173969566272E+00  1.188767464436E+00  1.203751497244E+00
  1.218924005984E+00  1.234287361389E+00  1.249843964015E+00  1.265596244614E+00
  1.281546664511E+00  1.297697715992E+00  1.314051922691E+00  1.330611839987E+00
  1.347380055399E+00  1.364359188997E+00  1.381551893804E+00  1.398960856215E+00
  1.416588796417E+00  1.434438468809E+00  1.452512662442E+00  1.470814201442E+00
  1.489345945465E+00  1.508110790131E+00  1.527111667487E+00  1.546351546457E+00
  1.565833433314E+00  1.585560372139E+00  1.605535445309E+00  1.625761773969E+00
  1.646242518523E+00  1.666980879131E+00  1.687980096202E+00  1.709243450908E+00
  1.730774265691E+00  1.752575904784E+00  1.774651774737E+00  1.797005324952E+00
  1.819640048214E+00  1.842559481246E+00  1.865767205256E+00  1.889266846497E+00
  1.913062076837E+00  1.937156614329E+00  1.961554223793E+00  1.986258717406E+00
  2.011273955294E+00  2.036603846140E+00  2.062252347790E+00  2.088223467875E+00
  2.114521264436E+00  2.141149846556E+00  2.168113375007E+00  2.195416062893E+00
  2.223062176316E+00  2.251056035037E+00  2.279402013153E+00  2.308104539781E+00
  2.337168099749E+00  2.366597234298E+00  2.396396541790E+00  2.426570678428E+00
  2.457124358980E+00  2.488062357523E+00  2.519389508181E+00  2.551110705886E+00
  2.583230907139E+00  2.615755130787E+00  2.648688458806E+00  2.682036037095E+00
  2.715803076282E+00  2.749994852535E+00  2.784616708389E+00  2.819674053579E+00
  2.855172365886E+00  2.891117191995E+00  2.927514148357E+00  2.964368922071E+00
  3.001687271770E+00  3.039475028522E+00  3.077738096741E+00  3.116482455110E+00
  3.155714157513E+00  3.195439333984E+00  3.235664191661E+00  3.276395015762E+00
  3.317638170560E+00  3.359400100382E+00  3.401687330614E+00  3.444506468723E+00
  3.487864205285E+00  3.531767315036E+00  3.576222657925E+00  3.621237180190E+00
  3.666817915443E+00  3.712971985764E+00  3.759706602823E+00  3.807029068998E+00
  3.854946778520E+00  3.903467218630E+00  3.952597970744E+00  4.002346711643E+00
  4.052721214668E+00  4.103729350939E+00  4.155379090579E+00  4.207678503967E+00
  4.260635762992E+00  4.314259142333E+00  4.368557020753E+00  4.423537882405E+00
  4.479210318161E+00  4.535583026953E+00  4.592664817130E+00  4.650464607839E+00
  4.708991430414E+00  4.768254429791E+00  4.828262865934E+00  4.889026115282E+00
  4.950553672218E+00  5.012855150548E+00  5.075940285003E+00  5.139818932766E+00
  5.204501075003E+00  5.269996818432E+00  5.336316396897E+00  5.403470172965E+00
  5.471468639551E+00  5.540322421553E+00  5.610042277516E+00  5.680639101309E+00
  5.752123923829E+00  5.824507914725E+00  5.897802384142E+00  5.972018784492E+00
  6.047168712236E+00  6.123263909705E+00  6.200316266928E+00  6.278337823493E+00
  6.357340770425E+00  6.437337452097E+00  6.518340368153E+00  6.600362175464E+00
  6.683415690103E+00  6.767513889351E+00  6.852669913723E+00  6.938897069020E+00
  7.026208828413E+00  7.114618834539E+00  7.204140901644E+00  7.294789017731E+00
  7.386577346754E+00  7.479520230825E+00  7.573632192460E+00  7.668927936844E+00
  7.765422354130E+00  7.863130521768E+00  7.962067706858E+00  8.062249368536E+00
  8.163691160391E+00  8.266408932909E+00  8.370418735951E+00  8.475736821260E+00
  8.582379645001E+00  8.690363870333E+00  8.799706370011E+00  8.910424229022E+00
  9.022534747257E+00  9.136055442214E+00  9.251004051730E+00  9.367398536761E+00
  9.485257084182E+00  9.604598109630E+00  9.725440260383E+00  9.847802418274E+00
  9.971703702638E+00  1.009716347330E+01  1.022420133361E+01  1.035283713350E+01
  1.048309097255E+01  1.061498320321E+01  1.074853443390E+01  1.088376553227E+01
  1.102069762846E+01  1.115935211839E+01  1.129975066710E+01  1.144191521215E+01
  1.158586796705E+01  1.173163142469E+01  1.187922836092E+01  1.202868183806E+01
  1.218001520853E+01  1.233325211846E+01  1.248841651143E+01  1.264553263220E+01
  1.280462503049E+01  1.296571856479E+01  1.312883840631E+01  1.329401004286E+01
  1.346125928283E+01  1.363061225925E+01  1.380209543389E+01  1.397573560133E+01
  1.415155989320E+01  1.432959578240E+01  1.450987108741E+01  1.469241397661E+01
  1.487725297270E+01  1.506441695714E+01  1.525393517468E+01  1.544583723795E+01
  1.564015313201E+01  1.583691321913E+01  1.603614824348E+01  1.623788933592E+01
  1.644216801892E+01  1.664901621143E+01  1.685846623391E+01  1.707055081335E+01
  1.728530308839E+01  1.750275661452E+01  1.772294536928E+01  1.794590375763E+01
  1.817166661727E+01  1.840026922409E+01  1.863174729772E+01  1.886613700709E+01
  1.910347497606E+01  1.934379828916E+01  1.958714449742E+01  1.983355162416E+01
</grid-data>
</grid>
<valence-charge total-charge="1" is-unscreening-charge="yes"
 rescaled-to-z-pseudo="no">
<radfunc>
<data>
  3.605556331246E+00  3.601749488934E+00  3.589533156842E+00  3.569455509421E+00
  3.542590468039E+00  3.510281910203E+00  3.472665234760E+00  3.433652662362E+00
  3.397023412710E+00  3.361012086867E+00  3.326117513388E+00  3.288002290344E+00
  3.251787069016E+00  3.218477016380E+00  3.182952709877E+00  3.145098376819E+00
  3.111689066224E+00  3.076513180020E+00  3.039503741195E+00  3.008531680472E+00
  2.976310904328E+00  2.942809296079E+00  2.907995885355E+00  2.871841115476E+00
  2.834317134326E+00  2.805259978306E+00  2.775408018010E+00  2.744752041202E+00
  2.713283757287E+00  2.680995891729E+00  2.647882284703E+00  2.613937993847E+00
  2.579159400920E+00  2.543544322122E+00  2.507092121760E+00  2.469803828881E+00
  2.444481783164E+00  2.418790650572E+00  2.392732122293E+00  2.366308298095E+00
  2.339521702551E+00  2.312375301253E+00  2.284872516957E+00  2.257017245600E+00
  2.228813872135E+00  2.200267286121E+00  2.171382896978E+00  2.142166648864E+00
  2.112625035070E+00  2.082765111860E+00  2.052594511675E+00  2.022121455602E+00
  1.991354765009E+00  1.960303872262E+00  1.928978830411E+00  1.897390321739E+00
  1.865549665068E+00  1.833468821716E+00  1.801160399979E+00  1.768637658043E+00
  1.735914505184E+00  1.703005501166E+00  1.669925853708E+00  1.636691413904E+00
  1.620021274653E+00  1.603318669496E+00  1.586585757400E+00  1.569824735871E+00
  1.553037840539E+00  1.536227344706E+00  1.519395558856E+00  1.502544830125E+00
  1.485677541721E+00  1.468796112312E+00  1.451902995369E+00  1.435000678462E+00
  1.418091682513E+00  1.401178561010E+00  1.384263899173E+00  1.367350313072E+00
  1.350440448704E+00  1.333536981023E+00  1.316642612926E+00  1.299760074190E+00
  1.282892120365E+00  1.266041531620E+00  1.249211111543E+00  1.232403685898E+00
  1.215622101333E+00  1.198869224041E+00  1.182147938383E+00  1.165461145456E+00
  1.148811761631E+00  1.132202717028E+00  1.115636953969E+00  1.099117425374E+00
  1.082647093119E+00  1.066228926357E+00  1.049865899797E+00  1.033560991947E+00
  1.017317183313E+00  1.001137454569E+00  9.850247846915E-01  9.689821490583E-01
  9.530125175169E-01  9.371188524238E-01  9.213041066545E-01  9.055712215882E-01
  8.899231250674E-01  8.743627293352E-01  8.588929289533E-01  8.435165987005E-01
  8.282365914565E-01  8.130557360722E-01  7.979768352286E-01  7.830026632876E-01
  7.681359641370E-01  7.533794490323E-01  7.387357944380E-01  7.242076398719E-01
  7.097975857535E-01  6.955081912619E-01  6.813419722042E-01  6.673013988979E-01
  6.533888940714E-01  6.396068307839E-01  6.259575303695E-01  6.124432604076E-01
  5.990662327230E-01  5.858286014198E-01  5.727324609500E-01  5.597798442230E-01
  5.469727207565E-01  5.343129948737E-01  5.218025039492E-01  5.094430167063E-01
  4.972362315700E-01  4.851837750777E-01  4.732872003505E-01  4.615479856287E-01
  4.499675328738E-01  4.385471664402E-01  4.272881318183E-01  4.161915944529E-01
  4.052586386388E-01  3.944902664948E-01  3.838873970210E-01  3.734508652390E-01
  3.631814214180E-01  3.530797303893E-01  3.431463709497E-01  3.333818353568E-01
  3.237865289157E-01  3.143607696612E-01  3.051047881339E-01  2.960187272526E-01
  2.871026422838E-01  2.783565009090E-01  2.697801833895E-01  2.613734828299E-01
  2.531361055403E-01  2.450676714969E-01  2.371677149012E-01  2.294356848370E-01
  2.218709460251E-01  2.144727796752E-01  2.072403844333E-01  2.001728774248E-01
  1.932692953912E-01  1.865285959196E-01  1.799496587636E-01  1.735312872535E-01
  1.672722097950E-01  1.611710814538E-01  1.552264856244E-01  1.494369357810E-01
  1.438008773083E-01  1.383166894104E-01  1.329826870945E-01  1.277971232272E-01
  1.227581906612E-01  1.178640244299E-01  1.131127040055E-01  1.085022556199E-01
  1.040306546436E-01  9.969582802103E-02  9.549565675748E-02  9.142797845586E-02
  8.749058989884E-02  8.368124967341E-02  7.999768083383E-02  7.643757359944E-02
  7.299858808331E-02  6.967835704751E-02  6.647448868314E-02  6.338456939964E-02
  6.040616664106E-02  5.753683170192E-02  5.477410254939E-02  5.211550664409E-02
  4.955856375451E-02  4.710078875953E-02  4.473969443349E-02  4.247279420807E-02
  4.029760490532E-02  3.821164943572E-02  3.621245945551E-02  3.429757797714E-02
  3.246456192696E-02  3.071098464396E-02  2.903443831398E-02  2.743253633330E-02
  2.590291559612E-02  2.444323870049E-02  2.305119606749E-02  2.172450796869E-02
  2.046092645743E-02  1.925823719950E-02  1.811426119969E-02  1.702685642051E-02
  1.599391929037E-02  1.501338609873E-02  1.408323427628E-02  1.320148355871E-02
  1.236619703327E-02  1.157548206777E-02  1.082749112217E-02  1.012042244357E-02
  9.452520645786E-03  8.822077175285E-03  8.227430665774E-03  7.666967184035E-03
  7.139120370207E-03  6.642371475985E-03  6.175249304625E-03  5.736330056933E-03
  5.324237087713E-03  4.937640577370E-03  4.575257123560E-03  4.235849257937E-03
  3.918224893124E-03  3.621236705127E-03  3.343781456396E-03  3.084799264746E-03
  2.843272823253E-03  2.618226576176E-03  2.408725855790E-03  2.213875984897E-03
  2.032821349543E-03  1.864744446314E-03  1.708864908314E-03  1.564438513734E-03
  1.430756180631E-03  1.307142951330E-03  1.192956969572E-03  1.087588453327E-03
  9.904586659224E-04  9.010188879271E-04  8.187493920092E-04  7.431584227998E-04
  6.737811835986E-04  6.101788316029E-04  5.519374831886E-04  4.986672306424E-04
  4.500011716311E-04  4.055944525920E-04  3.651233271418E-04  3.282842305295E-04
  2.947928710878E-04  2.643833395854E-04  2.368072373254E-04  2.118328237902E-04
  1.892441845821E-04  1.688404203679E-04  1.504348574825E-04  1.338542808007E-04
  1.189381894329E-04  1.055380757440E-04  9.351672813411E-05  8.274755795898E-05
  7.311395089681E-05  6.450864300089E-05  5.683312160216E-05  4.999705115104E-05
  4.391772401100E-05  3.851953613887E-05  3.373348750990E-05  2.949670706968E-05
  2.575200192104E-05  2.244743038309E-05  1.953589849161E-05  1.697477944674E-05
  1.472555545511E-05  1.275348135969E-05  1.102726940279E-05  9.518794425351E-06
  8.202818769226E-06  7.056736119146E-06  6.060333496861E-06  5.195570601803E-06
  4.446375680312E-06  3.798457098755E-06  3.239129794447E-06  2.757155781855E-06
  2.342597899809E-06  1.986685997804E-06  1.681694775792E-06  1.420832511433E-06
  1.198139931402E-06  1.008398508434E-06  8.470474930684E-07  7.101090179229E-07
  5.941206426526E-07  4.960747389016E-07  4.133641463987E-07  3.437335634447E-07
  2.852361671513E-07  2.361949906490E-07  1.951686158479E-07  1.609207710186E-07
  1.323934522817E-07  1.086832169038E-07  8.902032398989E-08  7.275042462103E-08
  5.931852866174E-08  4.825499928561E-08  3.916334871954E-08  3.170962976882E-08
  2.561323735940E-08  2.063895263568E-08  1.659007910953E-08  1.330253600490E-08
  1.063978832926E-08  8.488506378549E-09  6.754859404731E-09  5.361359104459E-09
  4.244178487573E-09  3.350880620332E-09  2.638499775415E-09  2.071924724262E-09
  1.622540341215E-09  1.267089415513E-09  9.867216467635E-10  7.662012897549E-10
  5.932488701463E-10  4.579958654954E-10  3.525342847498E-10  2.705457289923E-10
  2.069968188131E-10  1.578898678123E-10  1.200594028217E-10  9.100661176623E-11
  6.876506895016E-11  5.179217146265E-11  3.888164273732E-11  2.909324191154E-11
  2.169648345845E-11  1.612570401774E-11  1.194435774253E-11  8.816652555468E-12
  6.485189596035E-12  4.753357840582E-12  3.471505350084E-12  2.526126151484E-12
  1.831438002279E-12  1.322845951787E-12  9.518879051467E-13  6.823405697082E-13
  4.872305738603E-13  3.465490134655E-13  2.455105573244E-13  1.732324926925E-13
  1.217363419082E-13  8.519627511118E-14  5.937558634444E-14  4.120589517714E-14
</data>
</radfunc>
</valence-charge>
<semilocal-potentials set="scalar_relativistic">
<slps n="1" l="s" rc="0.518609584627E-01" flavor="Troullier-Martins">
<radfunc>
<data>
 -6.661681695822E+01 -6.688427517718E+01 -6.574018712756E+01 -6.266069526560E+01
 -5.675553008983E+01 -4.798669818901E+01 -3.726624757955E+01 -2.794928311302E+01
 -2.276941317057E+01 -2.091837292057E+01 -1.953403689568E+01 -1.759636904228E+01
 -1.606342492475E+01 -1.485998484655E+01 -1.374965926833E+01 -1.272482010079E+01
 -1.193106180993E+01 -1.118814832162E+01 -1.049266253636E+01 -9.968284981531E+00
 -9.470713139840E+00 -8.998518464378E+00 -8.550354191127E+00 -8.124950114463E+00
 -7.721107747197E+00 -7.431692913320E+00 -7.153315128548E+00 -6.885539625612E+00
 -6.627949780424E+00 -6.380146280940E+00 -6.141746339362E+00 -5.912382945077E+00
 -5.691704155881E+00 -5.479372425206E+00 -5.275063963252E+00 -5.078468130035E+00
 -4.951541340700E+00 -4.827824339371E+00 -4.707234106105E+00 -4.589689859405E+00
 -4.475112991407E+00 -4.363427005138E+00 -4.254557453805E+00 -4.148431882018E+00
 -4.044979768885E+00 -3.944132472906E+00 -3.845823178610E+00 -3.749986844855E+00
 -3.656560154751E+00 -3.565481467142E+00 -3.476690769574E+00 -3.390129632730E+00
 -3.305741166251E+00 -3.223469975912E+00 -3.143262122094E+00 -3.065065079523E+00
 -2.988827698218E+00 -2.914500165608E+00 -2.842033969796E+00 -2.771381863902E+00
 -2.702497831479E+00 -2.635337052940E+00 -2.569855872987E+00 -2.506011768985E+00
 -2.474690634283E+00 -2.443763320269E+00 -2.413224816654E+00 -2.383070178344E+00
 -2.353294524557E+00 -2.323893037950E+00 -2.294860963762E+00 -2.266193608966E+00
 -2.237886341437E+00 -2.209934589126E+00 -2.182333839256E+00 -2.155079637518E+00
 -2.128167587286E+00 -2.101593348843E+00 -2.075352638614E+00 -2.049441228413E+00
 -2.023854944703E+00 -1.998589667860E+00 -1.973641331452E+00 -1.949005921530E+00
 -1.924679475926E+00 -1.900658083557E+00 -1.876937883752E+00 -1.853515065572E+00
 -1.830385867153E+00 -1.807546575050E+00 -1.784993523594E+00 -1.762723094259E+00
 -1.740731715031E+00 -1.719015859799E+00 -1.697572047739E+00 -1.676396842718E+00
 -1.655486852702E+00 -1.634838729173E+00 -1.614449166554E+00 -1.594314901638E+00
 -1.574432713037E+00 -1.554799420623E+00 -1.535411884988E+00 -1.516267006906E+00
 -1.497361726806E+00 -1.478693024250E+00 -1.460257917418E+00 -1.442053462601E+00
 -1.424076753701E+00 -1.406324921738E+00 -1.388795134364E+00 -1.371484595381E+00
 -1.354390544271E+00 -1.337510255725E+00 -1.320841039188E+00 -1.304380238399E+00
 -1.288125230949E+00 -1.272073427835E+00 -1.256222273025E+00 -1.240569243030E+00
 -1.225111846479E+00 -1.209847623699E+00 -1.194774146306E+00 -1.179889016796E+00
 -1.165189868142E+00 -1.150674363403E+00 -1.136340195327E+00 -1.122185085971E+00
 -1.108206786318E+00 -1.094403075903E+00 -1.080771762442E+00 -1.067310681469E+00
 -1.054017695974E+00 -1.040890696047E+00 -1.027927598531E+00 -1.015126346673E+00
 -1.002484909785E+00 -9.900012829049E-01 -9.776734864672E-01 -9.654995659734E-01
 -9.534775916695E-01 -9.416056582270E-01 -9.298818844282E-01 -9.183044128555E-01
 -9.068714095851E-01 -8.955810638848E-01 -8.844315879155E-01 -8.734212164373E-01
 -8.625482065184E-01 -8.518108372492E-01 -8.412074094588E-01 -8.307362454368E-01
 -8.203956886573E-01 -8.101841035073E-01 -8.000998750190E-01 -7.901414086047E-01
 -7.803071297958E-01 -7.705954839855E-01 -7.610049361741E-01 -7.515339707185E-01
 -7.421810910841E-01 -7.329448196010E-01 -7.238236972223E-01 -7.148162832867E-01
 -7.059211552829E-01 -6.971369086186E-01 -6.884621563913E-01 -6.798955291626E-01
 -6.714356747353E-01 -6.630812579340E-01 -6.548309603875E-01 -6.466834803150E-01
 -6.386375323144E-01 -6.306918471541E-01 -6.228451715667E-01 -6.150962680461E-01
 -6.074439146467E-01 -5.998869047854E-01 -5.924240470466E-01 -5.850541649887E-01
 -5.777760969546E-01 -5.705886958829E-01 -5.634908291232E-01 -5.564813782529E-01
 -5.495592388961E-01 -5.427233205461E-01 -5.359725463886E-01 -5.293058531285E-01
 -5.227221908182E-01 -5.162205226885E-01 -5.097998249812E-01 -5.034590867847E-01
 -4.971973098707E-01 -4.910135085341E-01 -4.849067094336E-01 -4.788759514361E-01
 -4.729202854614E-01 -4.670387743299E-01 -4.612304926121E-01 -4.554945264801E-01
 -4.498299735603E-01 -4.442359427892E-01 -4.387115542700E-01 -4.332559391317E-01
 -4.278682393896E-01 -4.225476078079E-01 -4.172932077639E-01 -4.121042131138E-01
 -4.069798080605E-01 -4.019191870232E-01 -3.969215545082E-01 -3.919861249815E-01
 -3.871121227435E-01 -3.822987818048E-01 -3.775453457634E-01 -3.728510676846E-01
 -3.682152099807E-01 -3.636370442940E-01 -3.591158513799E-01 -3.546509209923E-01
 -3.502415517703E-01 -3.458870511264E-01 -3.415867351354E-01 -3.373399284261E-01
 -3.331459640732E-01 -3.290041834909E-01 -3.249139363283E-01 -3.208745803655E-01
 -3.168854814113E-01 -3.129460132023E-01 -3.090555573032E-01 -3.052135030084E-01
 -3.014192472446E-01 -2.976721944749E-01 -2.939717566045E-01 -2.903173528865E-01
 -2.867084098299E-01 -2.831443611086E-01 -2.796246474710E-01 -2.761487166514E-01
 -2.727160232824E-01 -2.693260288077E-01 -2.659782013972E-01 -2.626720158623E-01
 -2.594069535725E-01 -2.561825023731E-01 -2.529981565041E-01 -2.498534165196E-01
 -2.467477892091E-01 -2.436807875186E-01 -2.406519304742E-01 -2.376607431050E-01
 -2.347067563686E-01 -2.317895070761E-01 -2.289085378191E-01 -2.260633968972E-01
 -2.232536382463E-01 -2.204788213682E-01 -2.177385112604E-01 -2.150322783479E-01
 -2.123596984147E-01 -2.097203525366E-01 -2.071138270154E-01 -2.045397133131E-01
 -2.019976079871E-01 -1.994871126270E-01 -1.970078337908E-01 -1.945593829435E-01
 -1.921413763949E-01 -1.897534352397E-01 -1.873951852970E-01 -1.850662570515E-01
 -1.827662855950E-01 -1.804949105687E-01 -1.782517761065E-01 -1.760365307786E-01
 -1.738488275361E-01 -1.716883236560E-01 -1.695546806873E-01 -1.674475643976E-01
 -1.653666447203E-01 -1.633115957023E-01 -1.612820954528E-01 -1.592778260925E-01
 -1.572984737034E-01 -1.553437282792E-01 -1.534132836766E-01 -1.515068375668E-01
 -1.496240913880E-01 -1.477647502983E-01 -1.459285231290E-01 -1.441151223391E-01
 -1.423242639695E-01 -1.405556675988E-01 -1.388090562987E-01 -1.370841565903E-01
 -1.353806984015E-01 -1.336984150238E-01 -1.320370430710E-01 -1.303963224372E-01
 -1.287759962558E-01 -1.271758108595E-01 -1.255955157400E-01 -1.240348635088E-01
 -1.224936098577E-01 -1.209715135213E-01 -1.194683362381E-01 -1.179838427134E-01
 -1.165178005826E-01 -1.150699803737E-01 -1.136401554725E-01 -1.122281020855E-01
 -1.108335992060E-01 -1.094564285785E-01 -1.080963746646E-01 -1.067532246093E-01
 -1.054267682072E-01 -1.041167978697E-01 -1.028231085922E-01 -1.015454979219E-01
 -1.002837659261E-01 -9.903771516070E-02 -9.780715063897E-02 -9.659187980120E-02
 -9.539171248427E-02 -9.420646089178E-02 -9.303593956457E-02 -9.187996535158E-02
 -9.073835738104E-02 -8.961093703207E-02 -8.849752790664E-02 -8.739795580182E-02
 -8.631204868243E-02 -8.523963665406E-02 -8.418055193631E-02 -8.313462883651E-02
 -8.210170372365E-02 -8.108161500271E-02 -8.007420308930E-02 -7.907931038456E-02
 -7.809678125046E-02 -7.712646198533E-02 -7.616820079978E-02 -7.522184779282E-02
 -7.428725492836E-02 -7.336427601197E-02 -7.245276666792E-02 -7.155258431656E-02
 -7.066358815190E-02 -6.978563911956E-02 -6.891859989489E-02 -6.806233486150E-02
 -6.721671008991E-02 -6.638159331658E-02 -6.555685392316E-02 -6.474236291597E-02
 -6.393799290579E-02 -6.314361808788E-02 -6.235911422225E-02 -6.158435861413E-02
 -6.081923009480E-02 -6.006360900251E-02 -5.931737716379E-02 -5.858041787486E-02
 -5.785261588335E-02 -5.713385737025E-02 -5.642402993201E-02 -5.572302256300E-02
 -5.503072563800E-02 -5.434703089512E-02 -5.367183141874E-02 -5.300502162283E-02
 -5.234649723432E-02 -5.169615527682E-02 -5.105389405443E-02 -5.041961313584E-02
</data>
</radfunc>
</slps>
</semilocal-potentials>
<pseudo-wave-functions set="scalar_relativistic">
<pswf n="1" l="s" energy_level="-0.238587218606">
<radfunc>
<data>
  1.898829969656E+00  1.897827535161E+00  1.894606314189E+00  1.889300256753E+00
  1.882177045284E+00  1.873574625871E+00  1.863508843036E+00  1.853011775230E+00
  1.843101568550E+00  1.833306321417E+00  1.823764649363E+00  1.813284940288E+00
  1.803271209362E+00  1.794011427725E+00  1.784083153100E+00  1.773442518079E+00
  1.763998031455E+00  1.753999193096E+00  1.743417256750E+00  1.734511940245E+00
  1.725198798729E+00  1.715461829157E+00  1.705284690885E+00  1.694650733180E+00
  1.683543027868E+00  1.674891032553E+00  1.665955584909E+00  1.656729318366E+00
  1.647204829602E+00  1.637374693021E+00  1.627231476635E+00  1.616767759427E+00
  1.605976150264E+00  1.594849308441E+00  1.583379965922E+00  1.571560951350E+00
  1.563483859279E+00  1.555246168864E+00  1.546845860975E+00  1.538280954034E+00
  1.529549508230E+00  1.520649629912E+00  1.511579476169E+00  1.502337259585E+00
  1.492921253178E+00  1.483329795525E+00  1.473561296065E+00  1.463614240591E+00
  1.453487196908E+00  1.443178820684E+00  1.432687861466E+00  1.422013168864E+00
  1.411153698905E+00  1.400108520539E+00  1.388876822304E+00  1.377457919124E+00
  1.365851259245E+00  1.354056431292E+00  1.342073171432E+00  1.329901370640E+00
  1.317541082038E+00  1.304992528303E+00  1.292256109118E+00  1.279332408654E+00
  1.272800562784E+00  1.266222203053E+00  1.259597457702E+00  1.252926467898E+00
  1.246209387971E+00  1.239446385638E+00  1.232637642237E+00  1.225783352949E+00
  1.218883727022E+00  1.211938987997E+00  1.204949373925E+00  1.197915137583E+00
  1.190836546692E+00  1.183713884125E+00  1.176547448115E+00  1.169337552463E+00
  1.162084526730E+00  1.154788716440E+00  1.147450483269E+00  1.140070205229E+00
  1.132648276853E+00  1.125185109368E+00  1.117681130868E+00  1.110136786475E+00
  1.102552538499E+00  1.094928866588E+00  1.087266267875E+00  1.079565257111E+00
  1.071826366799E+00  1.064050147310E+00  1.056237167004E+00  1.048388012327E+00
  1.040503287916E+00  1.032583616676E+00  1.024629639867E+00  1.016642017168E+00
  1.008621426731E+00  1.000568565238E+00  9.924841479285E-01  9.843689086314E-01
  9.762235997774E-01  9.680489924030E-01  9.598458761416E-01  9.516150592031E-01
  9.433573683410E-01  9.350736488068E-01  9.267647642914E-01  9.184315968541E-01
  9.100750468376E-01  9.016960327694E-01  8.932954912503E-01  8.848743768277E-01
  8.764336618560E-01  8.679743363418E-01  8.594974077749E-01  8.510039009448E-01
  8.424948577422E-01  8.339713369459E-01  8.254344139942E-01  8.168851807420E-01
  8.083247452015E-01  7.997542312691E-01  7.911747784360E-01  7.825875414840E-01
  7.739936901652E-01  7.653944088678E-01  7.567908962652E-01  7.481843649502E-01
  7.395760410547E-01  7.309671638534E-01  7.223589853524E-01  7.137527698637E-01
  7.051497935640E-01  6.965513440387E-01  6.879587198122E-01  6.793732298627E-01
  6.707961931238E-01  6.622289379704E-01  6.536728016928E-01  6.451291299552E-01
  6.365992762416E-01  6.280846012886E-01  6.195864725044E-01  6.111062633751E-01
  6.026453528593E-01  5.942051247689E-01  5.857869671383E-01  5.773922715823E-01
  5.690224326408E-01  5.606788471132E-01  5.523629133812E-01  5.440760307194E-01
  5.358195985965E-01  5.275950159645E-01  5.194036805377E-01  5.112469880609E-01
  5.031263315672E-01  4.950431006259E-01  4.869986805791E-01  4.789944517690E-01
  4.710317887546E-01  4.631120595180E-01  4.552366246606E-01  4.474068365895E-01
  4.396240386926E-01  4.318895645042E-01  4.242047368596E-01  4.165708670400E-01
  4.089892539056E-01  4.014611830193E-01  3.939879257589E-01  3.865707384195E-01
  3.792108613043E-01  3.719095178062E-01  3.646679134780E-01  3.574872350928E-01
  3.503686496956E-01  3.433133036445E-01  3.363223216437E-01  3.293968057692E-01
  3.225378344868E-01  3.157464616642E-01  3.090237155793E-01  3.023705979246E-01
  2.957880828103E-01  2.892771157687E-01  2.828386127601E-01  2.764734591851E-01
  2.701825089041E-01  2.639665832675E-01  2.578264701633E-01  2.517629230698E-01
  2.457766601477E-01  2.398683633443E-01  2.340386775304E-01  2.282882096696E-01
  2.226175280246E-01  2.170271614062E-01  2.115175984669E-01  2.060892870457E-01
  2.007426335671E-01  1.954780024992E-01  1.902957158742E-01  1.851960528762E-01
  1.801792494989E-01  1.752454982766E-01  1.703949480926E-01  1.656277040656E-01
  1.609438275179E-01  1.563433360260E-01  1.518262035553E-01  1.473923606789E-01
  1.430416948814E-01  1.387740509458E-01  1.345892314245E-01  1.304869971897E-01
  1.264670680644E-01  1.225291235280E-01  1.186728034955E-01  1.148977091648E-01
  1.112034039285E-01  1.075894143456E-01  1.040552311664E-01  1.006003104069E-01
  9.722407446542E-02  9.392591327563E-02  9.070518548943E-02  8.756121968355E-02
  8.449331558293E-02  8.150074529443E-02  7.858275454433E-02  7.573856391355E-02
  7.296737006420E-02  7.026834695208E-02  6.764064701952E-02  6.508340236391E-02
  6.259572587750E-02  6.017671235477E-02  5.782543956433E-02  5.554096928288E-02
  5.332234828968E-02  5.116860932054E-02  4.907877198112E-02  4.705184362017E-02
  4.508682016388E-02  4.318268691337E-02  4.133841930780E-02  3.955298365620E-02
  3.782533784165E-02  3.615443200182E-02  3.453920918992E-02  3.297860602086E-02
  3.147155330679E-02  3.001697668690E-02  2.861379725566E-02  2.726093219370E-02