Siesta Version  : v4.1.5-1-g384057250
Architecture    : gcc
Compiler version: GNU Fortran (Debian 12.2.0-14) 12.2.0
Compiler flags  : mpifort -O2 -fPIC -ftree-vectorize -fallow-argument-mismatch
PP flags        : -DFC_HAVE_ABORT -DMPI -DSIESTA__FLOOK -DSIESTA__METIS -DSIESTA__MUMPS -DCDF -DNCDF -DNCDF_4 -DNCDF_PARALLEL -DSIESTA__MRRR -DSIESTA__ELPA
Libraries       : libncdf.a libfdict.a  -lflookall -ldl -lnetcdff -lnetcdf -lz -lscalapack-openmpi -lopenblas -lmetis -lzmumps -lcmumps -ldmumps -lmumps_common -lpord -lsmumps -lesmumps -lscotch -lscotcherr -fopenmp -lelpa
PARALLEL version
NetCDF support
NetCDF-4 support
NetCDF-4 MPI-IO support
METIS ordering support
Lua support

* Running on 32 nodes in parallel
>> Start of run:  14-OCT-2023  16:00:56

                           ***********************       
                           *  WELCOME TO SIESTA  *       
                           ***********************       

reinit: Reading from standard input
reinit: Dumped input in INPUT_TMP.67045
************************** Dump of input data file ****************************
# mpirun -np 4 siesta-4.1.5 < Guanine.fdf > Guanine.out
SystemLabel      Guanine
NumberOfAtoms    16
NumberOfSpecies  4
%block ChemicalSpeciesLabel
    1    1  H
    2    7  N
    3    14 Si
    4    8  O
%endblock ChemicalSpeciesLabel
############################################
# This overrides Defaults.fdf configuration
############################################
MD.TypeOfRun                CG # CG, Verlet
MD.Steps                    300
AtomicCoordinatesFormat NotScaledCartesianAng
%block AtomicCoordinatesAndAtomicSpecies
    4.96951342   -6.82957340    0.00000000   1       1  H
    4.00901341   -6.40325205    0.00000000   2       2  N
    2.49751554   -7.42359516    0.00000000   3       3  Si
    2.72232203   -8.89829940    0.00000000   1       4  H
    0.96392651   -6.71194524    0.00000000   2       5  N
    1.31707909   -5.02244331    0.00000000   3       6  Si
    0.42403706   -3.13035809    0.00000000   3       7  Si
   -1.14163483   -3.19740443    0.00000000   4       8  O
    1.56371383   -1.63904545    0.00000000   2       9  N
    1.13068289   -0.67264207    0.00000000   1      10  H
    3.32877379   -1.77429730    0.00000000   3      11  Si
    4.05324763   -0.19064027    0.00000000   2      12  N
    3.50564223    0.70888541    0.00000000   1      13  H
    5.09666416   -0.08175574    0.00000000   1      14  H
    4.35514099   -3.14253443    0.00000000   2      15  N
    3.42290527   -4.64017762    0.00000000   3      16  Si
%endblock AtomicCoordinatesAndAtomicSpecies
#############
# Unit Cell
#############
LatticeConstant 1.0 Ang
%block LatticeVectors
    16.818328    0.000000    0.000000
    0.000000   14.230200    0.000000
    0.000000    0.000000   10.224979
%endblock LatticeVectors
%include ../../../../Defaults.fdf
************************** End of input data file *****************************

reinit: -----------------------------------------------------------------------
reinit: System Name: 
reinit: -----------------------------------------------------------------------
reinit: System Label: Guanine
reinit: -----------------------------------------------------------------------

initatom: Reading input for the pseudopotentials and atomic orbitals ----------
Species number:   1 Atomic number:    1 Label: H
Species number:   2 Atomic number:    7 Label: N
Species number:   3 Atomic number:   14 Label: Si
Species number:   4 Atomic number:    8 Label: O

Ground state valence configuration:   1s01
Reading pseudopotential information in formatted form from H.psf

Pseudopotential generated from a relativistic atomic calculation

Valence configuration for pseudopotential generation:
1s( 1.00) rc: 0.01
2p( 0.00) rc: 0.60
3d( 0.00) rc: 1.99
4f( 0.00) rc: 2.49
Ground state valence configuration:   2s02  2p03
Reading pseudopotential information in formatted form from N.psf

Pseudopotential generated from a relativistic atomic calculation

Valence configuration for pseudopotential generation:
2s( 2.00) rc: 0.94
2p( 3.00) rc: 0.59
3d( 0.00) rc: 3.46
4f( 0.00) rc: 2.47
Ground state valence configuration:   3s02  3p02
Reading pseudopotential information in formatted form from Si.psf

Pseudopotential generated from a relativistic atomic calculation

Valence configuration for pseudopotential generation:
3s( 2.00) rc: 1.67
3p( 2.00) rc: 2.04
3d( 0.00) rc: 2.89
4f( 0.00) rc: 2.49
Ground state valence configuration:   2s02  2p04
Reading pseudopotential information in formatted form from O.psf

Pseudopotential generated from a relativistic atomic calculation

Valence configuration for pseudopotential generation:
2s( 2.00) rc: 0.45
2p( 4.00) rc: 0.92
3d( 0.00) rc: 2.24
4f( 0.00) rc: 0.25
For H, standard SIESTA heuristics set lmxkb to 2
 (one more than the basis l, including polarization orbitals).
Use PS.lmax or PS.KBprojectors blocks to override.
For N, standard SIESTA heuristics set lmxkb to 3
 (one more than the basis l, including polarization orbitals).
Use PS.lmax or PS.KBprojectors blocks to override.
For Si, standard SIESTA heuristics set lmxkb to 3
 (one more than the basis l, including polarization orbitals).
Use PS.lmax or PS.KBprojectors blocks to override.
For O, standard SIESTA heuristics set lmxkb to 3
 (one more than the basis l, including polarization orbitals).
Use PS.lmax or PS.KBprojectors blocks to override.

<basis_specs>
===============================================================================
H                    Z=   1    Mass=  1.0100        Charge= 0.17977+309
Lmxo=0 Lmxkb= 2    BasisType=split      Semic=F
L=0  Nsemic=0  Cnfigmx=1
          i=1  nzeta=2  polorb=1  (1s)
            splnorm:   0.62000    
               vcte:    0.0000    
               rinn:    0.0000    
               qcoe:    0.0000    
               qyuk:    0.0000    
               qwid:   0.10000E-01
                rcs:    0.0000      0.0000    
            lambdas:    1.0000      1.0000    
-------------------------------------------------------------------------------
L=0  Nkbl=1  erefs: 0.17977+309
L=1  Nkbl=1  erefs: 0.17977+309
L=2  Nkbl=1  erefs: 0.17977+309
===============================================================================
</basis_specs>

atom: Called for H                     (Z =   1)

read_vps: Pseudopotential generation method:
read_vps: ATM4.2.7  Troullier-Martins                       
Valence charge for ps generation:    1.00000

xc_check: Exchange-correlation functional:
xc_check: GGA Perdew, Burke & Ernzerhof 1996
V l=0 = -2*Zval/r beyond r=  0.0098
V l=1 = -2*Zval/r beyond r=  0.5817
V l=2 = -2*Zval/r beyond r=  1.9372
All V_l potentials equal beyond r=  1.9372
This should be close to max(r_c) in ps generation
All pots = -2*Zval/r beyond r=  1.9372

VLOCAL1: 99.0% of the norm of Vloc inside     11.567 Ry
VLOCAL1: 99.9% of the norm of Vloc inside     26.362 Ry
atom: Maximum radius for 4*pi*r*r*local-pseudopot. charge    2.25106
atom: Maximum radius for r*vlocal+2*Zval:    1.91306
GHOST: No ghost state for L =  0
GHOST: No ghost state for L =  1
GHOST: No ghost state for L =  2

KBgen: Kleinman-Bylander projectors: 
   l= 0   rc=  2.036604   el= -0.477180   Ekb= -6.081590   kbcos= -0.277285
   l= 1   rc=  2.195416   el=  0.001076   Ekb= -0.926943   kbcos= -0.034643
   l= 2   rc=  2.251056   el=  0.002010   Ekb= -0.130941   kbcos= -0.009788

KBgen: Total number of Kleinman-Bylander projectors:    9
atom: -------------------------------------------------------------------------

atom: SANKEY-TYPE ORBITALS:
atom: Selected multiple-zeta basis: split     

SPLIT: Orbitals with angular momentum L= 0

SPLIT: Basis orbitals for state 1s

SPLIT: PAO cut-off radius determined from an
SPLIT: energy shift=  0.002000 Ry

   izeta = 1
                 lambda =    1.000000
                     rc =    6.518340
                 energy =   -0.475305
                kinetic =    0.912139
    potential(screened) =   -1.387444
       potential(ionic) =   -1.907295

   izeta = 2
                 rmatch =    2.141150
              splitnorm =    0.620000
                 energy =    0.566467
                kinetic =    3.772856
    potential(screened) =   -3.206389
       potential(ionic) =   -3.759093

POLgen: Perturbative polarization orbital with L=  1

POLgen: Polarization orbital for state 1s

   izeta = 1
                     rc =    6.518340
                 energy =    0.533861
                kinetic =    1.121086
    potential(screened) =   -0.587225
       potential(ionic) =   -1.053027
atom: Total number of Sankey-type orbitals:  5

atm_pop: Valence configuration (for local Pseudopot. screening):
 1s( 1.00)                                                            
Vna: chval, zval:    1.00000   1.00000

Vna:  Cut-off radius for the neutral-atom potential:   6.518340

atom: _________________________________________________________________________

<basis_specs>
===============================================================================
N                    Z=   7    Mass=  14.010        Charge= 0.17977+309
Lmxo=1 Lmxkb= 3    BasisType=split      Semic=F
L=0  Nsemic=0  Cnfigmx=2
          i=1  nzeta=2  polorb=0  (2s)
            splnorm:   0.28000    
               vcte:    0.0000    
               rinn:    0.0000    
               qcoe:    0.0000    
               qyuk:    0.0000    
               qwid:   0.10000E-01
                rcs:    0.0000      0.0000    
            lambdas:    1.0000      1.0000    
L=1  Nsemic=0  Cnfigmx=2
          i=1  nzeta=2  polorb=1  (2p)
            splnorm:   0.28000    
               vcte:    0.0000    
               rinn:    0.0000    
               qcoe:    0.0000    
               qyuk:    0.0000    
               qwid:   0.10000E-01
                rcs:    0.0000      0.0000    
            lambdas:    1.0000      1.0000    
-------------------------------------------------------------------------------
L=0  Nkbl=1  erefs: 0.17977+309
L=1  Nkbl=1  erefs: 0.17977+309
L=2  Nkbl=1  erefs: 0.17977+309
L=3  Nkbl=1  erefs: 0.17977+309
===============================================================================
</basis_specs>

atom: Called for N                     (Z =   7)

read_vps: Pseudopotential generation method:
read_vps: ATM4.2.7  Troullier-Martins                       
Valence charge for ps generation:    5.00000

xc_check: Exchange-correlation functional:
xc_check: GGA Perdew, Burke & Ernzerhof 1996
V l=0 = -2*Zval/r beyond r=  1.2889
V l=1 = -2*Zval/r beyond r=  1.2889
V l=2 = -2*Zval/r beyond r=  3.4178
V l=3 = -2*Zval/r beyond r=  2.4084
All V_l potentials equal beyond r=  3.3753
This should be close to max(r_c) in ps generation
All pots = -2*Zval/r beyond r=  3.4178

VLOCAL1: 99.0% of the norm of Vloc inside      3.810 Ry
VLOCAL1: 99.9% of the norm of Vloc inside      8.683 Ry
atom: Maximum radius for 4*pi*r*r*local-pseudopot. charge    4.02088
atom: Maximum radius for r*vlocal+2*Zval:    3.54838
GHOST: No ghost state for L =  0
GHOST: No ghost state for L =  1
GHOST: No ghost state for L =  2
GHOST: No ghost state for L =  3

KBgen: Kleinman-Bylander projectors: 
   l= 0   rc=  3.417763   el= -1.365098   Ekb= -4.433130   kbcos= -0.707855
   l= 1   rc=  3.375302   el= -0.521201   Ekb=-13.264039   kbcos= -0.535594
   l= 2   rc=  3.872880   el=  0.001991   Ekb= -0.641094   kbcos= -0.062456
   l= 3   rc=  3.970931   el=  0.003093   Ekb= -0.474517   kbcos= -0.018236

KBgen: Total number of Kleinman-Bylander projectors:   16
atom: -------------------------------------------------------------------------

atom: SANKEY-TYPE ORBITALS:
atom: Selected multiple-zeta basis: split     

SPLIT: Orbitals with angular momentum L= 0

SPLIT: Basis orbitals for state 2s

SPLIT: PAO cut-off radius determined from an
SPLIT: energy shift=  0.002000 Ry

   izeta = 1
                 lambda =    1.000000
                     rc =    4.730425
                 energy =   -1.363399
                kinetic =    1.245246
    potential(screened) =   -2.608645
       potential(ionic) =   -8.121105

   izeta = 2
                 rmatch =    2.531849
              splitnorm =    0.280000
                 energy =   -0.959908
                kinetic =    2.409435
    potential(screened) =   -3.369343
       potential(ionic) =   -9.427975

SPLIT: Orbitals with angular momentum L= 1

SPLIT: Basis orbitals for state 2p

SPLIT: PAO cut-off radius determined from an
SPLIT: energy shift=  0.002000 Ry

   izeta = 1
                 lambda =    1.000000
                     rc =    5.924108
                 energy =   -0.519262
                kinetic =    3.672940
    potential(screened) =   -4.192202
       potential(ionic) =   -9.518354

   izeta = 2
                 rmatch =    2.531849
              splitnorm =    0.280000
                 energy =   -0.104258
                kinetic =    6.807538
    potential(screened) =   -6.911796
       potential(ionic) =  -13.149920

POLgen: Perturbative polarization orbital with L=  2

POLgen: Polarization orbital for state 2p

   izeta = 1
                     rc =    5.924108
                 energy =    1.427508
                kinetic =    2.872379
    potential(screened) =   -1.444871
       potential(ionic) =   -5.563644
atom: Total number of Sankey-type orbitals: 13

atm_pop: Valence configuration (for local Pseudopot. screening):
 2s( 2.00)                                                            
 2p( 3.00)                                                            
Vna: chval, zval:    5.00000   5.00000

Vna:  Cut-off radius for the neutral-atom potential:   5.924108

atom: _________________________________________________________________________

<basis_specs>
===============================================================================
Si                   Z=  14    Mass=  28.090        Charge= 0.17977+309
Lmxo=1 Lmxkb= 3    BasisType=split      Semic=F
L=0  Nsemic=0  Cnfigmx=3
          i=1  nzeta=2  polorb=0  (3s)
            splnorm:   0.28000    
               vcte:    0.0000    
               rinn:    0.0000    
               qcoe:    0.0000    
               qyuk:    0.0000    
               qwid:   0.10000E-01
                rcs:    0.0000      0.0000    
            lambdas:    1.0000      1.0000    
L=1  Nsemic=0  Cnfigmx=3
          i=1  nzeta=2  polorb=1  (3p)
            splnorm:   0.28000    
               vcte:    0.0000    
               rinn:    0.0000    
               qcoe:    0.0000    
               qyuk:    0.0000    
               qwid:   0.10000E-01
                rcs:    0.0000      0.0000    
            lambdas:    1.0000      1.0000    
-------------------------------------------------------------------------------
L=0  Nkbl=1  erefs: 0.17977+309
L=1  Nkbl=1  erefs: 0.17977+309
L=2  Nkbl=1  erefs: 0.17977+309
L=3  Nkbl=1  erefs: 0.17977+309
===============================================================================
</basis_specs>

atom: Called for Si                    (Z =  14)

read_vps: Pseudopotential generation method:
read_vps: ATM4.2.7  Troullier-Martins                       
Valence charge for ps generation:    4.00000

xc_check: Exchange-correlation functional:
xc_check: GGA Perdew, Burke & Ernzerhof 1996
V l=0 = -2*Zval/r beyond r=  2.7826
V l=1 = -2*Zval/r beyond r=  2.7826
V l=2 = -2*Zval/r beyond r=  2.9253
V l=3 = -2*Zval/r beyond r=  2.7826
All V_l potentials equal beyond r=  2.8530
This should be close to max(r_c) in ps generation
All pots = -2*Zval/r beyond r=  2.9253

VLOCAL1: 99.0% of the norm of Vloc inside      5.333 Ry
VLOCAL1: 99.9% of the norm of Vloc inside     12.154 Ry
atom: Maximum radius for 4*pi*r*r*local-pseudopot. charge    3.39869
atom: Maximum radius for r*vlocal+2*Zval:    2.96205
GHOST: No ghost state for L =  0
GHOST: No ghost state for L =  1
GHOST: No ghost state for L =  2
GHOST: No ghost state for L =  3

KBgen: Kleinman-Bylander projectors: 
   l= 0   rc=  3.075247   el= -0.794092   Ekb=  5.879390   kbcos=  0.167461
   l= 1   rc=  3.153101   el= -0.300068   Ekb=  2.642817   kbcos=  0.058301
   l= 2   rc=  3.273594   el=  0.001958   Ekb= -1.185135   kbcos= -0.104411
   l= 3   rc=  3.232927   el=  0.003046   Ekb= -0.497174   kbcos= -0.015889

KBgen: Total number of Kleinman-Bylander projectors:   16
atom: -------------------------------------------------------------------------

atom: SANKEY-TYPE ORBITALS:
atom: Selected multiple-zeta basis: split     

SPLIT: Orbitals with angular momentum L= 0

SPLIT: Basis orbitals for state 3s

SPLIT: PAO cut-off radius determined from an
SPLIT: energy shift=  0.002000 Ry

   izeta = 1
                 lambda =    1.000000
                     rc =    6.429618
                 energy =   -0.792283
                kinetic =    0.525293
    potential(screened) =   -1.317576
       potential(ionic) =   -3.744923

   izeta = 2
                 rmatch =    3.998416
              splitnorm =    0.280000
                 energy =   -0.583081
                kinetic =    1.069570
    potential(screened) =   -1.652651
       potential(ionic) =   -4.235185

SPLIT: Orbitals with angular momentum L= 1

SPLIT: Basis orbitals for state 3p

SPLIT: PAO cut-off radius determined from an
SPLIT: energy shift=  0.002000 Ry

   izeta = 1
                 lambda =    1.000000
                     rc =    8.464845
                 energy =   -0.298236
                kinetic =    0.785360
    potential(screened) =   -1.083596
       potential(ionic) =   -3.273779

   izeta = 2
                 rmatch =    4.587816
              splitnorm =    0.280000
                 energy =   -0.131871
                kinetic =    1.403687
    potential(screened) =   -1.535557
       potential(ionic) =   -4.015310

POLgen: Perturbative polarization orbital with L=  2

POLgen: Polarization orbital for state 3p

   izeta = 1
                     rc =    8.464845
                 energy =    0.321949
                kinetic =    1.055677
    potential(screened) =   -0.733728
       potential(ionic) =   -2.672950
atom: Total number of Sankey-type orbitals: 13

atm_pop: Valence configuration (for local Pseudopot. screening):
 3s( 2.00)                                                            
 3p( 2.00)                                                            
Vna: chval, zval:    4.00000   4.00000

Vna:  Cut-off radius for the neutral-atom potential:   8.464845

atom: _________________________________________________________________________

<basis_specs>
===============================================================================
O                    Z=   8    Mass=  16.000        Charge= 0.17977+309
Lmxo=1 Lmxkb= 3    BasisType=split      Semic=F
L=0  Nsemic=0  Cnfigmx=2
          i=1  nzeta=2  polorb=0  (2s)
            splnorm:   0.28000    
               vcte:    0.0000    
               rinn:    0.0000    
               qcoe:    0.0000    
               qyuk:    0.0000    
               qwid:   0.10000E-01
                rcs:    0.0000      0.0000    
            lambdas:    1.0000      1.0000    
L=1  Nsemic=0  Cnfigmx=2
          i=1  nzeta=2  polorb=1  (2p)
            splnorm:   0.28000    
               vcte:    0.0000    
               rinn:    0.0000    
               qcoe:    0.0000    
               qyuk:    0.0000    
               qwid:   0.10000E-01
                rcs:    0.0000      0.0000    
            lambdas:    1.0000      1.0000    
-------------------------------------------------------------------------------
L=0  Nkbl=1  erefs: 0.17977+309
L=1  Nkbl=1  erefs: 0.17977+309
L=2  Nkbl=1  erefs: 0.17977+309
L=3  Nkbl=1  erefs: 0.17977+309
===============================================================================
</basis_specs>

atom: Called for O                     (Z =   8)

read_vps: Pseudopotential generation method:
read_vps: ATM4.2.7  Troullier-Martins                       
Valence charge for ps generation:    6.00000

xc_check: Exchange-correlation functional:
xc_check: GGA Perdew, Burke & Ernzerhof 1996
V l=0 = -2*Zval/r beyond r=  1.1000
V l=1 = -2*Zval/r beyond r=  1.1000
V l=2 = -2*Zval/r beyond r=  2.2154
V l=3 = -2*Zval/r beyond r=  1.1000
All V_l potentials equal beyond r=  2.2154
This should be close to max(r_c) in ps generation
All pots = -2*Zval/r beyond r=  2.2154

VLOCAL1: 99.0% of the norm of Vloc inside      8.845 Ry
VLOCAL1: 99.9% of the norm of Vloc inside     20.157 Ry
atom: Maximum radius for 4*pi*r*r*local-pseudopot. charge    2.67231
atom: Maximum radius for r*vlocal+2*Zval:    2.32897
GHOST: No ghost state for L =  0
GHOST: No ghost state for L =  1
GHOST: No ghost state for L =  2
GHOST: No ghost state for L =  3

KBgen: Kleinman-Bylander projectors: 
   l= 0   rc=  2.243238   el= -1.759686   Ekb=**********   kbcos= -0.171774
   l= 1   rc=  2.328968   el= -0.663873   Ekb=-14.506792   kbcos= -0.519897
   l= 2   rc=  2.573941   el=  0.002031   Ekb= -1.137373   kbcos= -0.019581
   l= 3   rc=  2.606321   el=  0.003153   Ekb= -1.013546   kbcos= -0.003122

KBgen: Total number of Kleinman-Bylander projectors:   16
atom: -------------------------------------------------------------------------

atom: SANKEY-TYPE ORBITALS:
atom: Selected multiple-zeta basis: split     

SPLIT: Orbitals with angular momentum L= 0

SPLIT: Basis orbitals for state 2s

SPLIT: PAO cut-off radius determined from an
SPLIT: energy shift=  0.002000 Ry

   izeta = 1
                 lambda =    1.000000
                     rc =    4.243912
                 energy =   -1.758270
                kinetic =    3.286084
    potential(screened) =   -5.044353
       potential(ionic) =  -12.921184

   izeta = 2
                 rmatch =    2.187845
              splitnorm =    0.280000
                 energy =   -0.885018
                kinetic =    8.134434
    potential(screened) =   -9.019452
       potential(ionic) =  -17.710645

SPLIT: Orbitals with angular momentum L= 1

SPLIT: Basis orbitals for state 2p

SPLIT: PAO cut-off radius determined from an
SPLIT: energy shift=  0.002000 Ry

   izeta = 1
                 lambda =    1.000000
                     rc =    5.314825
                 energy =   -0.661986
                kinetic =    4.917472
    potential(screened) =   -5.579458
       potential(ionic) =  -13.236259

   izeta = 2
                 rmatch =    2.160663
              splitnorm =    0.280000
                 energy =   -0.068760
                kinetic =    9.183374
    potential(screened) =   -9.252135
       potential(ionic) =  -18.274251

POLgen: Perturbative polarization orbital with L=  2

POLgen: Polarization orbital for state 2p

   izeta = 1
                     rc =    5.314825
                 energy =    1.970580
                kinetic =    3.886128
    potential(screened) =   -1.915547
       potential(ionic) =   -7.749584
atom: Total number of Sankey-type orbitals: 13

atm_pop: Valence configuration (for local Pseudopot. screening):
 2s( 2.00)                                                            
 2p( 4.00)                                                            
Vna: chval, zval:    6.00000   6.00000

Vna:  Cut-off radius for the neutral-atom potential:   5.314825

atom: _________________________________________________________________________

prinput: Basis input ----------------------------------------------------------

PAO.BasisType split     

%block ChemicalSpeciesLabel
    1    1 H                       # Species index, atomic number, species label
    2    7 N                       # Species index, atomic number, species label
    3   14 Si                      # Species index, atomic number, species label
    4    8 O                       # Species index, atomic number, species label
%endblock ChemicalSpeciesLabel

%block PAO.Basis                 # Define Basis set
H                     1                    # Species label, number of l-shells
 n=1   0   2 P   1                   # n, l, Nzeta, Polarization, NzetaPol
   6.518      2.141   
   1.000      1.000   
N                     2                    # Species label, number of l-shells
 n=2   0   2                         # n, l, Nzeta 
   4.730      2.532   
   1.000      1.000   
 n=2   1   2 P   1                   # n, l, Nzeta, Polarization, NzetaPol
   5.924      2.532   
   1.000      1.000   
Si                    2                    # Species label, number of l-shells
 n=3   0   2                         # n, l, Nzeta 
   6.430      3.998   
   1.000      1.000   
 n=3   1   2 P   1                   # n, l, Nzeta, Polarization, NzetaPol
   8.465      4.588   
   1.000      1.000   
O                     2                    # Species label, number of l-shells
 n=2   0   2                         # n, l, Nzeta 
   4.244      2.188   
   1.000      1.000   
 n=2   1   2 P   1                   # n, l, Nzeta, Polarization, NzetaPol
   5.315      2.161   
   1.000      1.000   
%endblock PAO.Basis

prinput: ----------------------------------------------------------------------

Dumping basis to NetCDF file H.ion.nc
Dumping basis to NetCDF file N.ion.nc
Dumping basis to NetCDF file Si.ion.nc
Dumping basis to NetCDF file O.ion.nc
coor:   Atomic-coordinates input format  =     Cartesian coordinates
coor:                                          (in Angstroms)

siesta: Atomic coordinates (Bohr) and species
siesta:      9.39102 -12.90603   0.00000  1        1
siesta:      7.57594 -12.10040   0.00000  2        2
siesta:      4.71962 -14.02857   0.00000  3        3
siesta:      5.14445 -16.81536   0.00000  1        4
siesta:      1.82156 -12.68374   0.00000  2        5
siesta:      2.48892  -9.49105   0.00000  3        6
siesta:      0.80131  -5.91552   0.00000  3        7
siesta:     -2.15738  -6.04222   0.00000  4        8
siesta:      2.95499  -3.09735   0.00000  2        9
siesta:      2.13668  -1.27111   0.00000  1       10
siesta:      6.29047  -3.35294   0.00000  3       11
siesta:      7.65953  -0.36026   0.00000  2       12
siesta:      6.62471   1.33960   0.00000  1       13
siesta:      9.63130  -0.15450   0.00000  1       14
siesta:      8.23003  -5.93853   0.00000  2       15
siesta:      6.46836  -8.76867   0.00000  3       16

siesta: System type = chain     

initatomlists: Number of atoms, orbitals, and projectors:     16   168   221

siesta: ******************** Simulation parameters ****************************
siesta:
siesta: The following are some of the parameters of the simulation.
siesta: A complete list of the parameters used, including default values,
siesta: can be found in file out.fdf
siesta:
redata: Spin configuration                          = spin-orbit
redata: Number of spin components                   = 8
redata: Time-Reversal Symmetry                      = F
redata: Spin spiral                                 = F
############################################################
This spin-orbit implementation uses a local approximation.
From 4.2 and onwards the full non-local approximation is implemented
You are strongly advised to use >=4.2 versions!
############################################################
redata: Long output                                 =   F
redata: Number of Atomic Species                    =        4
redata: Charge density info will appear in .RHO file
redata: Write Mulliken Pop.                         = NO
redata: Matel table size (NRTAB)                    =     1024
redata: Mesh Cutoff                                 =   340.0000 Ry
redata: Net charge of the system                    =     0.0000 |e|
redata: Min. number of SCF Iter                     =        1
redata: Max. number of SCF Iter                     =      200
redata: SCF convergence failure will abort job
redata: SCF mix quantity                            = Hamiltonian
redata: Mix DM or H after convergence               =   F
redata: Recompute H after scf cycle                 =   F
redata: Mix DM in first SCF step                    =   T
redata: Write Pulay info on disk                    =   F
redata: New DM Occupancy tolerance                  = 0.000000000001
redata: No kicks to SCF
redata: DM Mixing Weight for Kicks                  =     0.5000
redata: Require Harris convergence for SCF          =   F
redata: Harris energy tolerance for SCF             =     0.000100 eV
redata: Require DM convergence for SCF              =   T
redata: DM tolerance for SCF                        =     0.000008
redata: Require EDM convergence for SCF             =   F
redata: EDM tolerance for SCF                       =     0.001000 eV
redata: Require H convergence for SCF               =   T
redata: Hamiltonian tolerance for SCF               =     0.000001 eV
redata: Require (free) Energy convergence for SCF   =   F
redata: (free) Energy tolerance for SCF             =     0.000100 eV
redata: Using Saved Data (generic)                  =   F
redata: Use continuation files for DM               =   T
redata: Neglect nonoverlap interactions             =   F
redata: Method of Calculation                       = Diagonalization
redata: Electronic Temperature                      =   299.9978 K
redata: Fix the spin of the system                  =   F
redata: Dynamics option                             = CG coord. optimization
redata: Variable cell                               =   F
redata: Use continuation files for CG               =   F
redata: Max atomic displ per move                   =     0.3000 Ang
redata: Maximum number of optimization moves        =      300
redata: Force tolerance                             =     0.0050 eV/Ang
mix.SCF: Pulay mixing                            = Pulay
mix.SCF:    Variant                              = stable
mix.SCF:    History steps                        = 6
mix.SCF:    Linear mixing weight                 =     0.250000
mix.SCF:    Mixing weight                        =     0.250000
mix.SCF:    SVD condition                        = 0.1000E-07
mix.SCF:    Restart steps                        = 24
mix.SCF:    Restart save steps                   = 3
mix.SCF: Spin-component mixing                   all
redata: Save all siesta data in one NC              =   F
redata: ***********************************************************************

%block SCF.Mixers
  Pulay
%endblock SCF.Mixers

%block SCF.Mixer.Pulay
  # Mixing method
  method pulay
  variant stable

  # Mixing options
  weight 0.2500
  weight.linear 0.2500
  history 6
  restart 24
  restart.save 3
%endblock SCF.Mixer.Pulay

DM_history_depth set to one: no extrapolation allowed by default for geometry relaxation
Size of DM history Fstack: 1
Total number of electrons:    56.000000
Total ionic charge:    56.000000

* ProcessorY, Blocksize:    4   5


* Orbital distribution balance (max,min):    10     5


Time-reversal symmetry not used.

siesta: k-grid: Number of k-points =     1
siesta: k-grid: Cutoff (effective) =     5.112 Ang
siesta: k-grid: Supercell and displacements
siesta: k-grid:    1   0   0      0.000
siesta: k-grid:    0   1   0      0.000
siesta: k-grid:    0   0   1      0.000

diag: Algorithm                                     = ELPA-1stage
diag: Parallel over k                               =   F
diag: Use parallel 2D distribution                  =   T
diag: Parallel block-size                           = 5
diag: Parallel distribution                         =     4 x     8
diag: Used triangular part                          = Lower
diag: Absolute tolerance                            =  0.100E-15
diag: Orthogonalization factor                      =  0.100E-05
diag: Memory factor                                 =  1.0000


ts: **************************************************************
ts: Save H and S matrices                           =    F
ts: Save DM and EDM matrices                        =    F
ts: Only save the overlap matrix S                  =    F
ts: **************************************************************

************************ Begin: TS CHECKS AND WARNINGS ************************
************************ End: TS CHECKS AND WARNINGS **************************


                     ====================================
                        Begin CG opt. move =      0
                     ====================================

outcoor: Atomic coordinates (Ang):                          
    4.96951342   -6.82957340    0.00000000   1       1  H
    4.00901341   -6.40325205    0.00000000   2       2  N
    2.49751554   -7.42359516    0.00000000   3       3  Si
    2.72232203   -8.89829940    0.00000000   1       4  H
    0.96392651   -6.71194524    0.00000000   2       5  N
    1.31707909   -5.02244331    0.00000000   3       6  Si
    0.42403706   -3.13035809    0.00000000   3       7  Si
   -1.14163483   -3.19740443    0.00000000   4       8  O
    1.56371383   -1.63904545    0.00000000   2       9  N
    1.13068289   -0.67264207    0.00000000   1      10  H
    3.32877379   -1.77429730    0.00000000   3      11  Si
    4.05324763   -0.19064027    0.00000000   2      12  N
    3.50564223    0.70888541    0.00000000   1      13  H
    5.09666416   -0.08175574    0.00000000   1      14  H
    4.35514099   -3.14253443    0.00000000   2      15  N
    3.42290527   -4.64017762    0.00000000   3      16  Si

outcell: Unit cell vectors (Ang):
       16.818328    0.000000    0.000000
        0.000000   14.230200    0.000000
        0.000000    0.000000   10.224979

outcell: Cell vector modules (Ang)   :   16.818328   14.230200   10.224979
outcell: Cell angles (23,13,12) (deg):     90.0000     90.0000     90.0000
outcell: Cell volume (Ang**3)        :   2447.1255
Gamma-point calculation with multiply-connected orbital pairs
Folding of H and S implicitly performed
<dSpData1D:S at geom step 0
  <sparsity:sparsity for geom step 0
    nrows_g=168 nrows=10 sparsity=.0576 nnzs=1627, refcount: 8>
  <dData1D:(new from dSpData1D) n=1627, refcount: 1>
refcount: 1>
new_DM -- step:     1
Initializing Density Matrix...

Attempting to read DM from file... Failed...
DM filled with atomic data:
<dSpData2D:DM initialized from atoms
  <sparsity:sparsity for geom step 0
    nrows_g=168 nrows=10 sparsity=.0576 nnzs=1627, refcount: 9>
  <dData2D:DM n=1627 m=8, refcount: 1>
refcount: 1>
     spin moment: S , {S} =   32.00000   0.00000   0.00000  32.00000
No. of atoms with KB's overlaping orbs in proc 0. Max # of overlaps:      16     138

Initializing spin-orbit part of the Hamiltonian
  Adding spin-orbit effects for H 
  Adding spin-orbit effects for N 
  Adding spin-orbit effects for Si
  Adding spin-orbit effects for O 


New grid distribution:   1
           1       1:   96    1:   20    1:    8
           2       1:   96    1:   20    9:   16
           3       1:   96    1:   20   17:   24
           4       1:   96    1:   20   25:   32
           5       1:   96    1:   20   33:   39
           6       1:   96    1:   20   40:   46
           7       1:   96    1:   20   47:   53
           8       1:   96    1:   20   54:   60
           9       1:   96   21:   40    1:    8
          10       1:   96   21:   40    9:   16
          11       1:   96   21:   40   17:   24
          12       1:   96   21:   40   25:   32
          13       1:   96   21:   40   33:   39
          14       1:   96   21:   40   40:   46
          15       1:   96   21:   40   47:   53
          16       1:   96   21:   40   54:   60
          17       1:   96   41:   60    1:    8
          18       1:   96   41:   60    9:   16
          19       1:   96   41:   60   17:   24
          20       1:   96   41:   60   25:   32
          21       1:   96   41:   60   33:   39
          22       1:   96   41:   60   40:   46
          23       1:   96   41:   60   47:   53
          24       1:   96   41:   60   54:   60
          25       1:   96   61:   80    1:    8
          26       1:   96   61:   80    9:   16
          27       1:   96   61:   80   17:   24
          28       1:   96   61:   80   25:   32
          29       1:   96   61:   80   33:   39
          30       1:   96   61:   80   40:   46
          31       1:   96   61:   80   47:   53
          32       1:   96   61:   80   54:   60

InitMesh: MESH =   192 x   160 x   120 =     3686400
InitMesh: (bp) =    96 x    80 x    60 =      460800
InitMesh: Mesh cutoff (required, used) =   340.000   349.397 Ry
ExtMesh (bp) on 0 =   200 x   124 x   116 =     2876800
New grid distribution:   2
           1       1:   11    1:   44    1:   21
           2       1:   10   56:   65   22:   60
           3      19:   27   68:   80    1:   19
           4      28:   96    1:   46   20:   60
           5       1:   11    1:   44   22:   60
           6      19:   27    1:   44    1:   19
           7      11:   18   56:   66   22:   60
           8       1:   10   56:   65    1:   21
           9      28:   96    1:   46    1:   19
          10       1:   10   66:   80    1:   21
          11      19:   27   45:   56    1:   19
          12      12:   18    1:   44   22:   60
          13      28:   96   67:   80    1:   19
          14      12:   18    1:   44    1:   21
          15      12:   18   45:   55   22:   60
          16      19:   27   57:   67    1:   19
          17      28:   96   47:   56    1:   19
          18       1:   11   45:   55    1:   21
          19      19:   27   46:   56   20:   60
          20      28:   96   47:   56   20:   60
          21      19:   27    1:   45   20:   60
          22      19:   27   68:   80   20:   60
          23       1:   11   45:   55   22:   60
          24      11:   18   56:   66    1:   21
          25      28:   96   57:   66    1:   19
          26      11:   18   67:   80    1:   21
          27      19:   27   57:   67   20:   60
          28      28:   96   67:   80   20:   60
          29      28:   96   57:   66   20:   60
          30       1:   10   66:   80   22:   60
          31      11:   18   67:   80   22:   60
          32      12:   18   45:   55    1:   21
New grid distribution:   3
           1      26:   39    1:   29    1:   22
           2       1:   13   45:   61   27:   60
           3      14:   25    1:   24    1:   25
           4      39:   96    1:   36   23:   60
           5      40:   96   37:   51    1:   22
           6      26:   38    1:   30   23:   60
           7      14:   25   45:   62   27:   60
           8       1:   13   63:   80    1:   26
           9      40:   96    1:   36    1:   22
          10      14:   25   63:   80   27:   60
          11      14:   25   25:   44    1:   25
          12       1:   13    1:   26   26:   60
          13      26:   74   52:   66    1:   24
          14      14:   25    1:   25   26:   60
          15       1:   13   27:   44   26:   60
          16       1:   13   27:   44    1:   25
          17      75:   96   52:   65    1:   24
          18      26:   39   30:   51    1:   22
          19      26:   38   31:   51   23:   60
          20      39:   96   37:   51   23:   60
          21      26:   75   52:   66   25:   60
          22      76:   96   52:   65   25:   60
          23      14:   25   26:   44   26:   60
          24      14:   25   63:   80    1:   26
          25       1:   13    1:   26    1:   25
          26      75:   96   66:   80    1:   24
          27       1:   13   45:   62    1:   26
          28      26:   75   67:   80   25:   60
          29      26:   74   67:   80    1:   24
          30      76:   96   66:   80   25:   60
          31       1:   13   62:   80   27:   60
          32      14:   25   45:   62    1:   26
Setting up quadratic distribution...
ExtMesh (bp) on 0 =   115 x   148 x   129 =     2195580
PhiOnMesh: Number of (b)points on node 0 =                10164
PhiOnMesh: nlist on node 0 =               218809

stepf: Fermi-Dirac step function

siesta: Program's energy decomposition (eV):
siesta: Ebs     =      -381.957547
siesta: Eions   =      2040.955082
siesta: Ena     =       223.465961
siesta: Ekin    =      1960.559428
siesta: Enl     =     -1958.061300
siesta: Eso     =        -0.001775
siesta: Edftu   =         0.000000
siesta: DEna    =        95.854923
siesta: DUscf   =        48.825536
siesta: DUext   =         0.000000
siesta: Exc     =      -696.936893
siesta: eta*DQ  =         0.000000
siesta: Emadel  =         0.000000
siesta: Emeta   =         0.000000
siesta: Emolmec =         0.000000
siesta: Ekinion =         0.000000
siesta: Eharris =     -2313.196594
siesta: Etot    =     -2367.249202
siesta: FreeEng =     -2367.249212

        iscf     Eharris(eV)        E_KS(eV)     FreeEng(eV)     dDmax    Ef(eV) dHmax(eV)
   scf:    1    -2313.196594    -2367.249202    -2367.249212  0.945651 -5.039832 21.944152
     spin moment: S , {S} =    1.99996  -0.00000   0.00000   1.99996
timer: Routine,Calls,Time,% = IterSCF        1       1.200   4.97
   scf:    2    -2405.577204    -2392.100101    -2392.121702  0.248262 -4.192571 10.297732
     spin moment: S , {S} =    0.29462  -0.00000  -0.00000   0.29462
   scf:    3    -2396.227632    -2394.590777    -2394.590779  0.067113 -3.657598  7.361317
     spin moment: S , {S} =    0.00007   0.00000   0.00000   0.00007
   scf:    4    -2395.497200    -2395.068898    -2395.068898  0.026106 -3.427998  4.470495
     spin moment: S , {S} =    0.00003  -0.00000  -0.00000   0.00003
   scf:    5    -2395.577471    -2395.322057    -2395.322057  0.028637 -3.294411  1.568757
     spin moment: S , {S} =    0.00001  -0.00000   0.00000   0.00001
   scf:    6    -2395.474305    -2395.398479    -2395.398479  0.017745 -3.261781  0.538998
     spin moment: S , {S} =    0.00001   0.00000  -0.00000   0.00001
   scf:    7    -2395.454362    -2395.425949    -2395.425949  0.010794 -3.239100  0.243156
     spin moment: S , {S} =    0.00000   0.00000   0.00000   0.00000
   scf:    8    -2395.448833    -2395.436890    -2395.436890  0.007392 -3.226985  0.114981
     spin moment: S , {S} =    0.00000   0.00000  -0.00000   0.00000
   scf:    9    -2395.448918    -2395.442539    -2395.442539  0.006108 -3.224478  0.081978
     spin moment: S , {S} =    0.00000   0.00000  -0.00000   0.00000
   scf:   10    -2395.451786    -2395.446684    -2395.446684  0.006925 -3.223716  0.056368
     spin moment: S , {S} =    0.00000   0.00000  -0.00000   0.00000
   scf:   11    -2395.451634    -2395.448705    -2395.448705  0.007227 -3.224033  0.026740
     spin moment: S , {S} =    0.00000   0.00000  -0.00000   0.00000
   scf:   12    -2395.449443    -2395.449029    -2395.449029  0.002805 -3.223618  0.017269
     spin moment: S , {S} =    0.00000   0.00000  -0.00000   0.00000
   scf:   13    -2395.449299    -2395.449148    -2395.449148  0.001760 -3.223255  0.011539
     spin moment: S , {S} =    0.00000   0.00000  -0.00000   0.00000
   scf:   14    -2395.449294    -2395.449210    -2395.449210  0.001513 -3.222829  0.006156
     spin moment: S , {S} =    0.00000   0.00000  -0.00000   0.00000
   scf:   15    -2395.449260    -2395.449231    -2395.449231  0.000985 -3.222507  0.002817
     spin moment: S , {S} =    0.00000   0.00000  -0.00000   0.00000
   scf:   16    -2395.449241    -2395.449235    -2395.449235  0.000469 -3.222376  0.001508
     spin moment: S , {S} =    0.00000  -0.00000  -0.00000  -0.00000
   scf:   17    -2395.449237    -2395.449236    -2395.449236  0.000153 -3.222383  0.001057
     spin moment: S , {S} =    0.00000  -0.00000  -0.00000   0.00000
   scf:   18    -2395.449237    -2395.449236    -2395.449236  0.000093 -3.222392  0.000635
     spin moment: S , {S} =    0.00000  -0.00000  -0.00000  -0.00000
   scf:   19    -2395.449236    -2395.449236    -2395.449236  0.000050 -3.222417  0.000365
     spin moment: S , {S} =    0.00000  -0.00000  -0.00000   0.00000
   scf:   20    -2395.449236    -2395.449236    -2395.449236  0.000046 -3.222432  0.000149
     spin moment: S , {S} =    0.00000  -0.00000  -0.00000  -0.00000
   scf:   21    -2395.449236    -2395.449236    -2395.449236  0.000013 -3.222427  0.000079
     spin moment: S , {S} =    0.00000  -0.00000  -0.00000  -0.00000
   scf:   22    -2395.449236    -2395.449236    -2395.449236  0.000005 -3.222421  0.000053
     spin moment: S , {S} =    0.00000  -0.00000  -0.00000  -0.00000
   scf:   23    -2395.449236    -2395.449236    -2395.449236  0.000005 -3.222418  0.000038
     spin moment: S , {S} =    0.00000  -0.00000  -0.00000  -0.00000
   scf:   24    -2395.449236    -2395.449236    -2395.449236  0.000002 -3.222417  0.000029
     spin moment: S , {S} =    0.00000  -0.00000  -0.00000  -0.00000
mix: Pulay -- resetting history
   scf:   25    -2395.449236    -2395.449236    -2395.449236  0.000002 -3.222415  0.000019
     spin moment: S , {S} =    0.00000  -0.00000  -0.00000  -0.00000
   scf:   26    -2395.449236    -2395.449236    -2395.449236  0.000001 -3.222415  0.000010
     spin moment: S , {S} =    0.00000  -0.00000  -0.00000  -0.00000
   scf:   27    -2395.449236    -2395.449236    -2395.449236  0.000001 -3.222415  0.000005
     spin moment: S , {S} =    0.00000  -0.00000  -0.00000  -0.00000
   scf:   28    -2395.449236    -2395.449236    -2395.449236  0.000001 -3.222415  0.000002
     spin moment: S , {S} =    0.00000  -0.00000  -0.00000  -0.00000
   scf:   29    -2395.449236    -2395.449236    -2395.449236  0.000000 -3.222415  0.000002
     spin moment: S , {S} =    0.00000  -0.00000  -0.00000  -0.00000
   scf:   30    -2395.449236    -2395.449236    -2395.449236  0.000000 -3.222415  0.000001
     spin moment: S , {S} =    0.00000  -0.00000  -0.00000  -0.00000
   scf:   31    -2395.449236    -2395.449236    -2395.449236  0.000000 -3.222415  0.000000
     spin moment: S , {S} =    0.00000  -0.00000  -0.00000  -0.00000

SCF Convergence by DM+H criterion
max |DM_out - DM_in|         :     0.0000000741
max |H_out - H_in|      (eV) :     0.0000004460
SCF cycle converged after 31 iterations

Using DM_out to compute the final energy and forces
No. of atoms with KB's overlaping orbs in proc 0. Max # of overlaps:      16     138

siesta: E_KS(eV) =            -2395.4492

siesta: E_KS - E_eggbox =     -2395.4492
     spin moment: S , {S} =    0.00000  -0.00000  -0.00000  -0.00000

siesta: Atomic forces (eV/Ang):
     1    0.345453   -0.089696    0.000000
     2   -0.559404    0.154244   -0.000000
     3    0.775847   -0.288614   -0.000000
     4   -0.062462    0.022038    0.000000
     5   -0.427473   -1.284644    0.000000
     6    0.642656   -0.027071   -0.000000
     7   -0.283718    1.584585    0.000000
     8   -0.599643   -0.089576    0.000000
     9    0.117866   -0.714317   -0.000000
    10   -0.135592   -0.059017   -0.000000
    11    0.132213   -0.106589    0.000000
    12    0.029541    0.001373   -0.000000
    13   -0.028374    0.052974   -0.000000
    14   -0.010870   -0.003634    0.000000
    15   -0.156251    0.152244   -0.000000
    16    0.916773   -0.120072    0.000000
----------------------------------------
   Tot    0.696562   -0.815771    0.000000
----------------------------------------
   Max    1.584585
   Res    0.404183    sqrt( Sum f_i^2 / 3N )
----------------------------------------
   Max    1.584585    constrained

Stress tensor Voigt[x,y,z,yz,xz,xy] (kbar):       -4.97       -3.22       -0.18        0.00        0.00        2.20
(Free)E + p*V (eV/cell)    -2391.1895
Target enthalpy (eV/cell)    -2395.4492

                     ====================================
                        Begin CG opt. move =      1
                     ====================================

outcoor: Atomic coordinates (Ang):                          
    5.00652284   -6.83918276    0.00000000   1       1  H
    3.94908288   -6.38672740   -0.00000000   2       2  N
    2.58063425   -7.45451518   -0.00000000   3       3  Si
    2.71563034   -8.89593843    0.00000000   1       4  H
    0.91813009   -6.84957279    0.00000000   2       5  N
    1.38592867   -5.02534350   -0.00000000   3       6  Si
    0.39364156   -2.96059697    0.00000000   3       7  Si
   -1.20587626   -3.20700096    0.00000000   4       8  O
    1.57634111   -1.71557223   -0.00000000   2       9  N
    1.11615656   -0.67896477   -0.00000000   1      10  H
    3.34293811   -1.78571653    0.00000000   3      11  Si
    4.05641240   -0.19049320   -0.00000000   2      12  N
    3.50260245    0.71456068   -0.00000000   1      13  H
    5.09549959   -0.08214503    0.00000000   1      14  H
    4.33840141   -3.12622406   -0.00000000   2      15  N
    3.52112176   -4.65304127    0.00000000   3      16  Si

outcell: Unit cell vectors (Ang):
       16.818328    0.000000    0.000000
        0.000000   14.230200    0.000000
        0.000000    0.000000   10.224979

outcell: Cell vector modules (Ang)   :   16.818328   14.230200   10.224979
outcell: Cell angles (23,13,12) (deg):     90.0000     90.0000     90.0000
outcell: Cell volume (Ang**3)        :   2447.1255
Gamma-point calculation with multiply-connected orbital pairs
Folding of H and S implicitly performed
<dSpData1D:S at geom step 1
  <sparsity:sparsity for geom step 1
    nrows_g=168 nrows=10 sparsity=.0576 nnzs=1627, refcount: 8>
  <dData1D:(new from dSpData1D) n=1627, refcount: 1>
refcount: 1>
new_DM -- step:     2
Re-using DM from previous geometries...
Number of DMs in history: 1
 DM extrapolation coefficients: 
1   1.00000
New DM after history re-use:
<dSpData2D:SpM extrapolated using coords
  <sparsity:sparsity for geom step 1
    nrows_g=168 nrows=10 sparsity=.0576 nnzs=1627, refcount: 10>
  <dData2D:(temp array for extrapolation) n=1627 m=8, refcount: 1>
refcount: 1>
     spin moment: S , {S} =    0.00000  -0.00000   0.00000   0.00000
Note: For starting DM, Qtot, Tr[D*S] =         56.00000000         55.55868764
No. of atoms with KB's overlaping orbs in proc 0. Max # of overlaps:      16     138
New grid distribution:   1
           1       1:   96    1:   20    1:    8
           2       1:   96    1:   20    9:   16
           3       1:   96    1:   20   17:   24
           4       1:   96    1:   20   25:   32
           5       1:   96    1:   20   33:   39
           6       1:   96    1:   20   40:   46
           7       1:   96    1:   20   47:   53
           8       1:   96    1:   20   54:   60
           9       1:   96   21:   40    1:    8
          10       1:   96   21:   40    9:   16
          11       1:   96   21:   40   17:   24
          12       1:   96   21:   40   25:   32
          13       1:   96   21:   40   33:   39
          14       1:   96   21:   40   40:   46
          15       1:   96   21:   40   47:   53
          16       1:   96   21:   40   54:   60
          17       1:   96   41:   60    1:    8
          18       1:   96   41:   60    9:   16
          19       1:   96   41:   60   17:   24
          20       1:   96   41:   60   25:   32
          21       1:   96   41:   60   33:   39
          22       1:   96   41:   60   40:   46
          23       1:   96   41:   60   47:   53
          24       1:   96   41:   60   54:   60
          25       1:   96   61:   80    1:    8
          26       1:   96   61:   80    9:   16
          27       1:   96   61:   80   17:   24
          28       1:   96   61:   80   25:   32
          29       1:   96   61:   80   33:   39
          30       1:   96   61:   80   40:   46
          31       1:   96   61:   80   47:   53
          32       1:   96   61:   80   54:   60

InitMesh: MESH =   192 x   160 x   120 =     3686400
InitMesh: (bp) =    96 x    80 x    60 =      460800
InitMesh: Mesh cutoff (required, used) =   340.000   349.397 Ry
ExtMesh (bp) on 0 =   200 x   124 x   116 =     2876800
New grid distribution:   2
           1       1:   11    1:   44    1:   21
           2      12:   18   67:   80   22:   60
           3      19:   27   68:   80    1:   19
           4      28:   96    1:   46   20:   60
           5       1:   11    1:   44   22:   60
           6      19:   27    1:   44    1:   19
           7       1:   11   66:   80    1:   21
           8      19:   27   45:   56    1:   19
           9      28:   96    1:   46    1:   19
          10      12:   18   45:   55   22:   60
          11      12:   18   68:   80    1:   21
          12      12:   18    1:   44   22:   60
          13      28:   96   67:   80    1:   19
          14      12:   18    1:   43    1:   21
          15      12:   18   56:   66   22:   60
          16      19:   27   57:   67    1:   19
          17      28:   96   47:   56    1:   19
          18       1:   11   45:   55    1:   21
          19      19:   27   45:   56   20:   60
          20      28:   96   47:   56   20:   60
          21      19:   27    1:   44   20:   60
          22      19:   27   68:   80   20:   60
          23       1:   11   45:   55   22:   60
          24      12:   18   56:   67    1:   21
          25      28:   96   57:   66    1:   19
          26       1:   11   56:   65    1:   21
          27      19:   27   57:   67   20:   60
          28      28:   96   67:   80   20:   60
          29      28:   96   57:   66   20:   60
          30       1:   11   66:   80   22:   60
          31       1:   11   56:   65   22:   60
          32      12:   18   44:   55    1:   21
New grid distribution:   3
           1      77:   96   52:   65   25:   60
           2      27:   39    1:   30    1:   22
           3       1:   13   45:   62    1:   26
           4      40:   96    1:   36   23:   60
           5      40:   96   37:   51    1:   22
           6      27:   39    1:   30   23:   60
           7      14:   26   45:   62   27:   60
           8      14:   26   45:   62    1:   26
           9      40:   96    1:   36    1:   22
          10       1:   13   63:   80   27:   60
          11       1:   14   27:   44    1:   25
          12       1:   14    1:   26   26:   60
          13      27:   76   52:   66    1:   24
          14      15:   26    1:   25   26:   60
          15      15:   26   26:   44   26:   60
          16      14:   26   63:   80    1:   26
          17       1:   14    1:   26    1:   25
          18      15:   26    1:   24    1:   25
          19      77:   96   52:   65    1:   24
          20      40:   96   37:   51   23:   60
          21      27:   76   52:   66   25:   60
          22      27:   39   31:   51   23:   60
          23       1:   13   45:   62   27:   60
          24      27:   39   31:   51    1:   22
          25       1:   14   27:   44   26:   60
          26      77:   96   66:   80    1:   24
          27       1:   13   63:   80    1:   26
          28      27:   76   67:   80   25:   60
          29      27:   76   67:   80    1:   24
          30      77:   96   66:   80   25:   60
          31      14:   26   63:   80   27:   60
          32      15:   26   25:   44    1:   25
Setting up quadratic distribution...
ExtMesh (bp) on 0 =   115 x   148 x   129 =     2195580
PhiOnMesh: Number of (b)points on node 0 =                10164
PhiOnMesh: nlist on node 0 =               218886

        iscf     Eharris(eV)        E_KS(eV)     FreeEng(eV)     dDmax    Ef(eV) dHmax(eV)
   scf:    1    -2389.473830    -2393.052728    -2393.052728  0.118707 -3.722368  4.809316
     spin moment: S , {S} =    0.00000  -0.00000  -0.00000  -0.00000
   scf:    2    -2337.154619    -2376.656210    -2376.656402  0.349086 -3.934462 15.651822
     spin moment: S , {S} =    0.00000  -0.00000  -0.00000   0.00000
   scf:    3    -2397.843755    -2394.702307    -2394.702307  0.279856 -3.344967  0.827896
     spin moment: S , {S} =    0.00000   0.00000  -0.00000  -0.00000
   scf:    4    -2394.750570    -2394.735414    -2394.735414  0.010817 -3.434183  0.257493
     spin moment: S , {S} =    0.00000   0.00000  -0.00000  -0.00000
   scf:    5    -2394.740560    -2394.738579    -2394.738579  0.002698 -3.471864  0.107021
     spin moment: S , {S} =    0.00000   0.00000  -0.00000   0.00000
   scf:    6    -2394.739611    -2394.739151    -2394.739151  0.000802 -3.479794  0.050844
     spin moment: S , {S} =    0.00000   0.00000  -0.00000  -0.00000
   scf:    7    -2394.739478    -2394.739331    -2394.739331  0.000538 -3.487749  0.019851
     spin moment: S , {S} =    0.00000   0.00000  -0.00000   0.00000
   scf:    8    -2394.739387    -2394.739363    -2394.739363  0.000286 -3.492378  0.004544
     spin moment: S , {S} =    0.00000   0.00000  -0.00000   0.00000
   scf:    9    -2394.739369    -2394.739366    -2394.739366  0.000112 -3.493474  0.001954
     spin moment: S , {S} =    0.00000   0.00000  -0.00000   0.00000
   scf:   10    -2394.739368    -2394.739367    -2394.739367  0.000050 -3.494001  0.000978
     spin moment: S , {S} =    0.00000   0.00000  -0.00000   0.00000
   scf:   11    -2394.739367    -2394.739367    -2394.739367  0.000040 -3.494426  0.000267
     spin moment: S , {S} =    0.00000   0.00000  -0.00000   0.00000
   scf:   12    -2394.739367    -2394.739367    -2394.739367  0.000006 -3.494467  0.000107
     spin moment: S , {S} =    0.00000   0.00000  -0.00000   0.00000
   scf:   13    -2394.739367    -2394.739367    -2394.739367  0.000003 -3.494463  0.000056
     spin moment: S , {S} =    0.00000   0.00000  -0.00000   0.00000
   scf:   14    -2394.739367    -2394.739367    -2394.739367  0.000002 -3.494459  0.000033
     spin moment: S , {S} =    0.00000   0.00000  -0.00000   0.00000
   scf:   15    -2394.739367    -2394.739367    -2394.739367  0.000001 -3.494463  0.000025
     spin moment: S , {S} =    0.00000   0.00000  -0.00000   0.00000
   scf:   16    -2394.739367    -2394.739367    -2394.739367  0.000001 -3.494466  0.000012
     spin moment: S , {S} =    0.00000   0.00000  -0.00000   0.00000
   scf:   17    -2394.739367    -2394.739367    -2394.739367  0.000000 -3.494466  0.000003
     spin moment: S , {S} =    0.00000   0.00000  -0.00000   0.00000
   scf:   18    -2394.739367    -2394.739367    -2394.739367  0.000000 -3.494466  0.000001
     spin moment: S , {S} =    0.00000   0.00000  -0.00000   0.00000
   scf:   19    -2394.739367    -2394.739367    -2394.739367  0.000000 -3.494466  0.000001
     spin moment: S , {S} =    0.00000   0.00000  -0.00000   0.00000

SCF Convergence by DM+H criterion
max |DM_out - DM_in|         :     0.0000000655
max |H_out - H_in|      (eV) :     0.0000005740
SCF cycle converged after 19 iterations

Using DM_out to compute the final energy and forces
No. of atoms with KB's overlaping orbs in proc 0. Max # of overlaps:      16     138

siesta: E_KS(eV) =            -2394.7394
     spin moment: S , {S} =    0.00000   0.00000  -0.00000   0.00000

siesta: Atomic forces (eV/Ang):
     1   -2.282978    0.855778   -0.000000
     2    4.919920   -1.476635   -0.000000
     3   -2.699502    0.272927   -0.000000
     4    0.581253   -0.750961   -0.000000
     5    1.666035    1.006251    0.000000
     6   -1.124636    0.301218   -0.000000
     7   -2.177393   -4.378208   -0.000000
     8   -2.277664    2.850982   -0.000000
     9    0.122383    4.032771    0.000000
    10    0.955084   -1.720569   -0.000000
    11    0.284166    0.327973   -0.000000
    12   -0.577539    0.136438    0.000000
    13    0.314788   -0.530675    0.000000
    14    0.153914   -0.009238   -0.000000
    15    0.892831    0.084627   -0.000000
    16   -1.458999    0.191490   -0.000000
----------------------------------------
   Tot   -2.708336    1.194167   -0.000000
----------------------------------------
   Max    4.919920
   Res    1.493240    sqrt( Sum f_i^2 / 3N )
----------------------------------------
   Max    4.919920    constrained

Stress tensor Voigt[x,y,z,yz,xz,xy] (kbar):       -1.64       -0.94       -0.17       -0.00       -0.00       -0.75
(Free)E + p*V (eV/cell)    -2393.3413
Target enthalpy (eV/cell)    -2394.7394

                     ====================================
                        Begin CG opt. move =      2
                     ====================================

outcoor: Atomic coordinates (Ang):                          
    4.98055110   -6.83243929    0.00000000   1       1  H
    3.99113974   -6.39832374   -0.00000000   2       2  N
    2.52230485   -7.43281674   -0.00000000   3       3  Si
    2.72032630   -8.89759527    0.00000000   1       4  H
    0.95026819   -6.75299126    0.00000000   2       5  N
    1.33761278   -5.02330826   -0.00000000   3       6  Si
    0.41497191   -3.07972856    0.00000000   3       7  Si
   -1.16079418   -3.20026650    0.00000000   4       8  O
    1.56747979   -1.66186879   -0.00000000   2       9  N
    1.12635056   -0.67452775   -0.00000000   1      10  H
    3.33299815   -1.77770297    0.00000000   3      11  Si
    4.05419149   -0.19059641   -0.00000000   2      12  N
    3.50473565    0.71057800   -0.00000000   1      13  H
    5.09631684   -0.08187184    0.00000000   1      14  H
    4.35014858   -3.13767003   -0.00000000   2      15  N
    3.45219734   -4.64401407    0.00000000   3      16  Si

outcell: Unit cell vectors (Ang):
       16.818328    0.000000    0.000000
        0.000000   14.230200    0.000000
        0.000000    0.000000   10.224979

outcell: Cell vector modules (Ang)   :   16.818328   14.230200   10.224979
outcell: Cell angles (23,13,12) (deg):     90.0000     90.0000     90.0000
outcell: Cell volume (Ang**3)        :   2447.1255
Gamma-point calculation with multiply-connected orbital pairs
Folding of H and S implicitly performed
<dSpData1D:S at geom step 2
  <sparsity:sparsity for geom step 2
    nrows_g=168 nrows=10 sparsity=.0576 nnzs=1627, refcount: 8>
  <dData1D:(new from dSpData1D) n=1627, refcount: 1>
refcount: 1>
new_DM -- step:     3
Re-using DM from previous geometries...
Number of DMs in history: 1
 DM extrapolation coefficients: 
1   1.00000
New DM after history re-use:
<dSpData2D:SpM extrapolated using coords
  <sparsity:sparsity for geom step 2
    nrows_g=168 nrows=10 sparsity=.0576 nnzs=1627, refcount: 10>
  <dData2D:(temp array for extrapolation) n=1627 m=8, refcount: 1>
refcount: 1>
     spin moment: S , {S} =    0.00000  -0.00000   0.00000  -0.00000
Note: For starting DM, Qtot, Tr[D*S] =         56.00000000         56.22345446
No. of atoms with KB's overlaping orbs in proc 0. Max # of overlaps:      16     138
New grid distribution:   1
           1       1:   96    1:   20    1:    8
           2       1:   96    1:   20    9:   16
           3       1:   96    1:   20   17:   24
           4       1:   96    1:   20   25:   32
           5       1:   96    1:   20   33:   39
           6       1:   96    1:   20   40:   46
           7       1:   96    1:   20   47:   53
           8       1:   96    1:   20   54:   60
           9       1:   96   21:   40    1:    8
          10       1:   96   21:   40    9:   16
          11       1:   96   21:   40   17:   24
          12       1:   96   21:   40   25:   32
          13       1:   96   21:   40   33:   39
          14       1:   96   21:   40   40:   46
          15       1:   96   21:   40   47:   53
          16       1:   96   21:   40   54:   60
          17       1:   96   41:   60    1:    8
          18       1:   96   41:   60    9:   16
          19       1:   96   41:   60   17:   24
          20       1:   96   41:   60   25:   32
          21       1:   96   41:   60   33:   39
          22       1:   96   41:   60   40:   46
          23       1:   96   41:   60   47:   53
          24       1:   96   41:   60   54:   60
          25       1:   96   61:   80    1:    8
          26       1:   96   61:   80    9:   16
          27       1:   96   61:   80   17:   24
          28       1:   96   61:   80   25:   32
          29       1:   96   61:   80   33:   39
          30       1:   96   61:   80   40:   46
          31       1:   96   61:   80   47:   53
          32       1:   96   61:   80   54:   60

InitMesh: MESH =   192 x   160 x   120 =     3686400
InitMesh: (bp) =    96 x    80 x    60 =      460800
InitMesh: Mesh cutoff (required, used) =   340.000   349.397 Ry
ExtMesh (bp) on 0 =   200 x   124 x   116 =     2876800
New grid distribution:   2
           1       1:   11    1:   44    1:   21
           2       1:   10   56:   65   22:   60
           3      11:   18   68:   80    1:   21
           4      28:   96    1:   46   20:   60
           5       1:   11    1:   44   22:   60
           6      19:   27    1:   44    1:   19
           7      11:   18   56:   66   22:   60
           8       1:   10   56:   65    1:   21
           9      28:   96    1:   46    1:   19
          10       1:   10   66:   80    1:   21
          11      19:   27   45:   56    1:   19
          12      12:   18    1:   44   22:   60
          13      28:   96   67:   80    1:   19
          14      12:   18    1:   44    1:   21
          15      12:   18   45:   55   22:   60
          16      11:   18   56:   67    1:   21
          17      28:   96   47:   56    1:   19
          18       1:   11   45:   55    1:   21
          19      19:   27   45:   56   20:   60
          20      28:   96   47:   56   20:   60
          21      19:   27    1:   44   20:   60
          22      19:   27   68:   80   20:   60
          23       1:   11   45:   55   22:   60
          24      19:   27   57:   67    1:   19
          25      28:   96   57:   66    1:   19
          26      19:   27   68:   80    1:   19
          27      19:   27   57:   67   20:   60
          28      28:   96   67:   80   20:   60
          29      28:   96   57:   66   20:   60
          30       1:   10   66:   80   22:   60
          31      11:   18   67:   80   22:   60
          32      12:   18   45:   55    1:   21
New grid distribution:   3
           1      78:   96   52:   65   25:   60
           2      27:   39    1:   30    1:   22
           3       1:   13   45:   62    1:   26
           4      40:   96    1:   37   23:   60
           5      40:   96   37:   51    1:   22
           6      27:   39    1:   30   23:   60
           7      14:   26   63:   80   27:   60
           8      14:   26   45:   62    1:   26
           9      40:   96    1:   36    1:   22
          10       1:   13   45:   61   27:   60
          11       1:   14   27:   44    1:   25
          12       1:   14    1:   26   26:   60
          13      27:   76   52:   66    1:   24
          14      15:   26    1:   25   26:   60
          15      15:   26   26:   44   26:   60
          16      14:   26   63:   80    1:   26
          17       1:   14    1:   26    1:   25
          18      15:   26    1:   24    1:   25
          19      77:   96   52:   65    1:   24
          20      40:   96   38:   51   23:   60
          21      27:   77   52:   66   25:   60
          22      27:   39   31:   51   23:   60
          23      14:   26   45:   62   27:   60
          24      27:   39   31:   51    1:   22
          25       1:   14   27:   44   26:   60
          26      77:   96   66:   80    1:   24
          27       1:   13   63:   80    1:   26
          28      27:   77   67:   80   25:   60
          29      27:   76   67:   80    1:   24
          30      78:   96   66:   80   25:   60
          31       1:   13   62:   80   27:   60
          32      15:   26   25:   44    1:   25
Setting up quadratic distribution...
ExtMesh (bp) on 0 =   115 x   148 x   129 =     2195580
PhiOnMesh: Number of (b)points on node 0 =                10164
PhiOnMesh: nlist on node 0 =               218672

        iscf     Eharris(eV)        E_KS(eV)     FreeEng(eV)     dDmax    Ef(eV) dHmax(eV)
   scf:    1    -2393.817650    -2394.940299    -2394.940299  0.074536 -3.492060  2.745469
     spin moment: S , {S} =    0.00000  -0.00000   0.00000   0.00000
   scf:    2    -2379.710773    -2390.598288    -2390.598288  0.144275 -3.743270  9.431828
     spin moment: S , {S} =    0.00000  -0.00000  -0.00000  -0.00000
   scf:    3    -2396.584350    -2395.522162    -2395.522162  0.112033 -3.366759  0.315753
     spin moment: S , {S} =    0.00000  -0.00000  -0.00000   0.00000
   scf:    4    -2395.530779    -2395.527638    -2395.527638  0.002913 -3.324168  0.140507
     spin moment: S , {S} =    0.00000  -0.00000  -0.00000   0.00000
   scf:    5    -2395.529025    -2395.528414    -2395.528414  0.000886 -3.310629  0.075946
     spin moment: S , {S} =    0.00000  -0.00000  -0.00000   0.00000
   scf:    6    -2395.528811    -2395.528641    -2395.528641  0.000479 -3.302407  0.018923
     spin moment: S , {S} =    0.00000  -0.00000  -0.00000   0.00000
   scf:    7    -2395.528692    -2395.528669    -2395.528669  0.000215 -3.299447  0.008881
     spin moment: S , {S} =    0.00000  -0.00000  -0.00000   0.00000
   scf:    8    -2395.528685    -2395.528678    -2395.528678  0.000185 -3.297599  0.001493
     spin moment: S , {S} =    0.00000  -0.00000  -0.00000   0.00000
   scf:    9    -2395.528679    -2395.528679    -2395.528679  0.000045 -3.297203  0.000794
     spin moment: S , {S} =    0.00000  -0.00000  -0.00000   0.00000
   scf:   10    -2395.528679    -2395.528679    -2395.528679  0.000039 -3.296892  0.000294
     spin moment: S , {S} =    0.00000  -0.00000  -0.00000   0.00000
   scf:   11    -2395.528679    -2395.528679    -2395.528679  0.000012 -3.296829  0.000128
     spin moment: S , {S} =    0.00000  -0.00000  -0.00000   0.00000
   scf:   12    -2395.528679    -2395.528679    -2395.528679  0.000006 -3.296796  0.000040
     spin moment: S , {S} =    0.00000  -0.00000  -0.00000   0.00000
   scf:   13    -2395.528679    -2395.528679    -2395.528679  0.000001 -3.296797  0.000023
     spin moment: S , {S} =    0.00000  -0.00000  -0.00000   0.00000
   scf:   14    -2395.528679    -2395.528679    -2395.528679  0.000001 -3.296791  0.000011
     spin moment: S , {S} =    0.00000  -0.00000  -0.00000   0.00000
   scf:   15    -2395.528679    -2395.528679    -2395.528679  0.000000 -3.296791  0.000007
     spin moment: S , {S} =    0.00000  -0.00000  -0.00000   0.00000
   scf:   16    -2395.528679    -2395.528679    -2395.528679  0.000000 -3.296790  0.000003
     spin moment: S , {S} =    0.00000  -0.00000  -0.00000   0.00000
   scf:   17    -2395.528679    -2395.528679    -2395.528679  0.000000 -3.296790  0.000001
     spin moment: S , {S} =    0.00000  -0.00000  -0.00000   0.00000
   scf:   18    -2395.528679    -2395.528679    -2395.528679  0.000000 -3.296790  0.000000
     spin moment: S , {S} =    0.00000  -0.00000  -0.00000   0.00000

SCF Convergence by DM+H criterion
max |DM_out - DM_in|         :     0.0000000570
max |H_out - H_in|      (eV) :     0.0000003249
SCF cycle converged after 18 iterations

Using DM_out to compute the final energy and forces
No. of atoms with KB's overlaping orbs in proc 0. Max # of overlaps:      16     138

siesta: E_KS(eV) =            -2395.5287
     spin moment: S , {S} =    0.00000  -0.00000  -0.00000   0.00000

siesta: Atomic forces (eV/Ang):
     1   -0.578634    0.259343   -0.000000
     2    1.267987   -0.443618    0.000000
     3   -0.249028   -0.036785    0.000000
     4    0.081054   -0.182562   -0.000000
     5    0.184664   -0.390159    0.000000
     6    0.029014    0.107535   -0.000000
     7   -0.578521   -0.277638   -0.000000
     8    1.407172    0.697210   -0.000000
     9   -0.101109    0.721969   -0.000000
    10    0.243904   -0.686533    0.000000
    11    0.200544   -0.009840    0.000000
    12   -0.157950    0.039482    0.000000
    13    0.056774   -0.103935    0.000000
    14    0.037401   -0.006118   -0.000000
    15    0.162502    0.157177    0.000000
    16    0.159818   -0.080581   -0.000000
----------------------------------------
   Tot    2.165591   -0.235054    0.000000
----------------------------------------
   Max    1.407172
   Res    0.371213    sqrt( Sum f_i^2 / 3N )
----------------------------------------
   Max    1.407172    constrained

Stress tensor Voigt[x,y,z,yz,xz,xy] (kbar):       -3.57       -1.83       -0.16       -0.00       -0.00        1.25
(Free)E + p*V (eV/cell)    -2392.7009
Target enthalpy (eV/cell)    -2395.5287

cgvc: Finished line minimization    1.  Mean atomic displacement =    0.0423

                     ====================================
                        Begin CG opt. move =      3
                     ====================================

outcoor: Atomic coordinates (Ang):                          
    4.97563619   -6.82828795    0.00000000   1       1  H
    4.00782113   -6.40540039    0.00000000   2       2  N
    2.53895077   -7.44241970   -0.00000000   3       3  Si
    2.72059385   -8.90174709    0.00000000   1       4  H
    0.94234729   -6.80170179    0.00000000   2       5  N
    1.35760172   -5.02128418   -0.00000000   3       6  Si
    0.39123902   -3.03964412    0.00000000   3       7  Si
   -1.14164853   -3.18457246   -0.00000000   4       8  O
    1.56834106   -1.66421067   -0.00000000   2       9  N
    1.12872210   -0.69438543   -0.00000000   1      10  H
    3.34223809   -1.78115078    0.00000000   3      11  Si
    4.05091269   -0.18951488   -0.00000000   2      12  N
    3.50538303    0.70942366    0.00000000   1      13  H
    5.09697730   -0.08214177    0.00000000   1      14  H
    4.34975695   -3.12897373    0.00000000   2      15  N
    3.48383324   -4.64972945   -0.00000000   3      16  Si

outcell: Unit cell vectors (Ang):
       16.818328    0.000000    0.000000
        0.000000   14.230200    0.000000
        0.000000    0.000000   10.224979

outcell: Cell vector modules (Ang)   :   16.818328   14.230200   10.224979
outcell: Cell angles (23,13,12) (deg):     90.0000     90.0000     90.0000
outcell: Cell volume (Ang**3)        :   2447.1255
Gamma-point calculation with multiply-connected orbital pairs
Folding of H and S implicitly performed
<dSpData1D:S at geom step 3
  <sparsity:sparsity for geom step 3
    nrows_g=168 nrows=10 sparsity=.0576 nnzs=1627, refcount: 8>
  <dData1D:(new from dSpData1D) n=1627, refcount: 1>
refcount: 1>
new_DM -- step:     4
Re-using DM from previous geometries...
Number of DMs in history: 1
 DM extrapolation coefficients: 
1   1.00000
New DM after history re-use:
<dSpData2D:SpM extrapolated using coords
  <sparsity:sparsity for geom step 3
    nrows_g=168 nrows=10 sparsity=.0576 nnzs=1627, refcount: 10>
  <dData2D:(temp array for extrapolation) n=1627 m=8, refcount: 1>
refcount: 1>
     spin moment: S , {S} =    0.00000   0.00000  -0.00000  -0.00000
No. of atoms with KB's overlaping orbs in proc 0. Max # of overlaps:      16     138
New grid distribution:   1
           1       1:   96    1:   20    1:    8
           2       1:   96    1:   20    9:   16
           3       1:   96    1:   20   17:   24
           4       1:   96    1:   20   25:   32
           5       1:   96    1:   20   33:   39
           6       1:   96    1:   20   40:   46
           7       1:   96    1:   20   47:   53
           8       1:   96    1:   20   54:   60
           9       1:   96   21:   40    1:    8
          10       1:   96   21:   40    9:   16
          11       1:   96   21:   40   17:   24
          12       1:   96   21:   40   25:   32
          13       1:   96   21:   40   33:   39
          14       1:   96   21:   40   40:   46
          15       1:   96   21:   40   47:   53
          16       1:   96   21:   40   54:   60
          17       1:   96   41:   60    1:    8
          18       1:   96   41:   60    9:   16
          19       1:   96   41:   60   17:   24
          20       1:   96   41:   60   25:   32
          21       1:   96   41:   60   33:   39
          22       1:   96   41:   60   40:   46
          23       1:   96   41:   60   47:   53
          24       1:   96   41:   60   54:   60
          25       1:   96   61:   80    1:    8
          26       1:   96   61:   80    9:   16
          27       1:   96   61:   80   17:   24
          28       1:   96   61:   80   25:   32
          29       1:   96   61:   80   33:   39
          30       1:   96   61:   80   40:   46
          31       1:   96   61:   80   47:   53
          32       1:   96   61:   80   54:   60

InitMesh: MESH =   192 x   160 x   120 =     3686400
InitMesh: (bp) =    96 x    80 x    60 =      460800
InitMesh: Mesh cutoff (required, used) =   340.000   349.397 Ry
ExtMesh (bp) on 0 =   200 x   124 x   116 =     2876800
New grid distribution:   2
           1       1:   11    1:   44    1:   21
           2       1:   10   56:   65   22:   60
           3      11:   18   68:   80    1:   21
           4      28:   96    1:   46   20:   60
           5       1:   11    1:   44   22:   60
           6      19:   27    1:   44    1:   19
           7      11:   18   56:   66   22:   60
           8       1:   10   56:   65    1:   21
           9      28:   96    1:   46    1:   19
          10       1:   10   66:   80    1:   21
          11      19:   27   45:   56    1:   19
          12      12:   18    1:   44   22:   60
          13      28:   96   67:   80    1:   19
          14      12:   18    1:   43    1:   21
          15      12:   18   45:   55   22:   60
          16      11:   18   56:   67    1:   21
          17      28:   96   47:   56    1:   19
          18       1:   11   45:   55    1:   21
          19      19:   27   45:   56   20:   60
          20      28:   96   47:   56   20:   60
          21      19:   27    1:   44   20:   60
          22      19:   27   68:   80   20:   60
          23       1:   11   45:   55   22:   60
          24      19:   27   57:   67    1:   19
          25      28:   96   57:   66    1:   19
          26      19:   27   68:   80    1:   19
          27      19:   27   57:   67   20:   60
          28      28:   96   67:   80   20:   60
          29      28:   96   57:   66   20:   60
          30       1:   10   66:   80   22:   60
          31      11:   18   67:   80   22:   60
          32      12:   18   44:   55    1:   21
New grid distribution:   3
           1      77:   96   52:   65   25:   60
           2      27:   39    1:   30    1:   22
           3       1:   13   45:   62    1:   26
           4      40:   96    1:   37   23:   60
           5      40:   96   37:   51    1:   22
           6      27:   39    1:   30   23:   60
           7      14:   26   45:   62   27:   60
           8      14:   26   45:   62    1:   26
           9      40:   96    1:   36    1:   22
          10       1:   13   63:   80   27:   60
          11       1:   14   27:   44    1:   25
          12       1:   14    1:   26   26:   60
          13      27:   76   52:   66    1:   24
          14      15:   26    1:   25   26:   60
          15      15:   26   26:   44   26:   60
          16      14:   26   63:   80    1:   26
          17       1:   14    1:   26    1:   25
          18      15:   26    1:   24    1:   25
          19      77:   96   52:   65    1:   24
          20      40:   96   38:   51   23:   60
          21      27:   76   52:   66   25:   60
          22      27:   39   31:   51   23:   60
          23       1:   13   45:   62   27:   60
          24      27:   39   31:   51    1:   22
          25       1:   14   27:   44   26:   60
          26      77:   96   66:   80    1:   24
          27       1:   13   63:   80    1:   26
          28      27:   76   67:   80   25:   60
          29      27:   76   67:   80    1:   24
          30      77:   96   66:   80   25:   60
          31      14:   26   63:   80   27:   60
          32      15:   26   25:   44    1:   25
Setting up quadratic distribution...
ExtMesh (bp) on 0 =   115 x   148 x   129 =     2195580
PhiOnMesh: Number of (b)points on node 0 =                10164
PhiOnMesh: nlist on node 0 =               218817

        iscf     Eharris(eV)        E_KS(eV)     FreeEng(eV)     dDmax    Ef(eV) dHmax(eV)
   scf:    1    -2395.080370    -2395.392669    -2395.392669  0.036220 -3.300754  1.284614
     spin moment: S , {S} =    0.00000  -0.00000  -0.00000  -0.00000
   scf:    2    -2393.296874    -2394.801638    -2394.801638  0.060633 -3.336369  3.796995
     spin moment: S , {S} =    0.00000   0.00000  -0.00000   0.00000
[...]
     spin moment: S , {S} =    0.00000  -0.00000  -0.00000  -0.00000
   scf:    7    -2396.261015    -2396.261015    -2396.261015  0.000000 -3.831336  0.000001
     spin moment: S , {S} =    0.00000  -0.00000  -0.00000  -0.00000
   scf:    8    -2396.261015    -2396.261015    -2396.261015  0.000000 -3.831336  0.000001
     spin moment: S , {S} =    0.00000  -0.00000  -0.00000  -0.00000

SCF Convergence by DM+H criterion
max |DM_out - DM_in|         :     0.0000000248
max |H_out - H_in|      (eV) :     0.0000005324
SCF cycle converged after 8 iterations

Using DM_out to compute the final energy and forces
No. of atoms with KB's overlaping orbs in proc 0. Max # of overlaps:      16     142

siesta: E_KS(eV) =            -2396.2610
     spin moment: S , {S} =    0.00000  -0.00000  -0.00000  -0.00000

siesta: Atomic forces (eV/Ang):
     1   -0.000175    0.000675   -0.000003
     2    0.000542   -0.000895   -0.000020
     3    0.002002    0.001183   -0.000103
     4   -0.002324    0.005333   -0.000003
     5    0.002899   -0.000539   -0.000104
     6    0.000003    0.000315    0.000556
     7    0.001703    0.000426   -0.000288
     8    0.002667    0.004455    0.006535
     9   -0.002570   -0.000434    0.000018
    10    0.001621    0.000829   -0.000007
    11   -0.002075   -0.000395    0.000008
    12   -0.000278    0.000881   -0.000017
    13   -0.000943    0.000928    0.000000
    14   -0.004565   -0.000943   -0.000001
    15    0.000096    0.000831    0.000347
    16    0.003555    0.000408   -0.000115
----------------------------------------
   Tot    0.002160    0.013058    0.006807
----------------------------------------
   Max    0.006535
   Res    0.001911    sqrt( Sum f_i^2 / 3N )
----------------------------------------
   Max    0.006535    constrained

Stress tensor Voigt[x,y,z,yz,xz,xy] (kbar):       -0.87       -0.32       -0.18       -0.00       -0.00        0.32
(Free)E + p*V (eV/cell)    -2395.5613
Target enthalpy (eV/cell)    -2396.2610

cgvc: Finished line minimization   88.  Mean atomic displacement =    0.0002

                     ====================================
                        Begin CG opt. move =    215
                     ====================================

outcoor: Atomic coordinates (Ang):                          
    5.51993147   -6.75864714   -0.00000052   1       1  H
    4.49418071   -6.51292476   -0.00001145   2       2  N
    3.19299684   -7.75477845   -0.00005568   3       3  Si
    3.67934250   -9.16242528    0.00000004   1       4  H
    1.56099747   -7.26905763   -0.00003572   2       5  N
    1.60862386   -5.46691202    0.00028950   3       6  Si
    0.40534443   -3.59065243   -0.00012068   3       7  Si
   -1.13726093   -3.20141150   -0.00001439   4       8  O
    1.64738352   -2.18050179    0.00000406   2       9  N
    1.13768814   -1.24603335    0.00000078   1      10  H
    3.40349423   -2.08435181    0.00000441   3      11  Si
    4.03832178   -0.46232444   -0.00000815   2      12  N
    3.50305287    0.44278792    0.00000005   1      13  H
    5.08247092   -0.35479414   -0.00000003   1      14  H
    4.56478883   -3.33381428    0.00003097   2      15  N
    3.72019846   -4.86381276   -0.00006919   3      16  Si

outcell: Unit cell vectors (Ang):
       16.818328    0.000000    0.000000
        0.000000   14.230200    0.000000
        0.000000    0.000000   10.224979

outcell: Cell vector modules (Ang)   :   16.818328   14.230200   10.224979
outcell: Cell angles (23,13,12) (deg):     90.0000     90.0000     90.0000
outcell: Cell volume (Ang**3)        :   2447.1255
Gamma-point calculation with multiply-connected orbital pairs
Folding of H and S implicitly performed
<dSpData1D:S at geom step 215
  <sparsity:sparsity for geom step 215
    nrows_g=168 nrows=10 sparsity=.0579 nnzs=1635, refcount: 8>
  <dData1D:(new from dSpData1D) n=1635, refcount: 1>
refcount: 1>
new_DM -- step:   216
Re-using DM from previous geometries...
Number of DMs in history: 1
 DM extrapolation coefficients: 
1   1.00000
New DM after history re-use:
<dSpData2D:SpM extrapolated using coords
  <sparsity:sparsity for geom step 215
    nrows_g=168 nrows=10 sparsity=.0579 nnzs=1635, refcount: 10>
  <dData2D:(temp array for extrapolation) n=1635 m=8, refcount: 1>
refcount: 1>
     spin moment: S , {S} =    0.00000  -0.00000  -0.00000  -0.00000
No. of atoms with KB's overlaping orbs in proc 0. Max # of overlaps:      16     142
New grid distribution:   1
           1       1:   96    1:   20    1:    8
           2       1:   96    1:   20    9:   16
           3       1:   96    1:   20   17:   24
           4       1:   96    1:   20   25:   32
           5       1:   96    1:   20   33:   39
           6       1:   96    1:   20   40:   46
           7       1:   96    1:   20   47:   53
           8       1:   96    1:   20   54:   60
           9       1:   96   21:   40    1:    8
          10       1:   96   21:   40    9:   16
          11       1:   96   21:   40   17:   24
          12       1:   96   21:   40   25:   32
          13       1:   96   21:   40   33:   39
          14       1:   96   21:   40   40:   46
          15       1:   96   21:   40   47:   53
          16       1:   96   21:   40   54:   60
          17       1:   96   41:   60    1:    8
          18       1:   96   41:   60    9:   16
          19       1:   96   41:   60   17:   24
          20       1:   96   41:   60   25:   32
          21       1:   96   41:   60   33:   39
          22       1:   96   41:   60   40:   46
          23       1:   96   41:   60   47:   53
          24       1:   96   41:   60   54:   60
          25       1:   96   61:   80    1:    8
          26       1:   96   61:   80    9:   16
          27       1:   96   61:   80   17:   24
          28       1:   96   61:   80   25:   32
          29       1:   96   61:   80   33:   39
          30       1:   96   61:   80   40:   46
          31       1:   96   61:   80   47:   53
          32       1:   96   61:   80   54:   60

InitMesh: MESH =   192 x   160 x   120 =     3686400
InitMesh: (bp) =    96 x    80 x    60 =      460800
InitMesh: Mesh cutoff (required, used) =   340.000   349.397 Ry
ExtMesh (bp) on 0 =   200 x   124 x   116 =     2876800
New grid distribution:   2
           1       1:   12    1:   44    1:   21
           2      20:   27   44:   54   20:   60
           3      12:   19   67:   80    1:   20
           4      28:   96    1:   44   20:   60
           5      29:   96   65:   80    1:   19
           6      20:   27    1:   43    1:   19
           7      12:   19   56:   66   21:   60
           8       1:   11   56:   65    1:   20
           9      28:   96    1:   44    1:   19
          10       1:   11   66:   80    1:   20
          11      20:   28   55:   65    1:   19
          12      13:   19    1:   44   22:   60
          13       1:   12    1:   44   22:   60
          14      13:   19    1:   44    1:   21
          15      13:   19   45:   55   22:   60
          16      12:   19   56:   66    1:   20
          17      28:   96   45:   54    1:   19
          18       1:   12   45:   55    1:   21
          19      20:   27   55:   65   20:   60
          20      28:   96   45:   54   20:   60
          21      28:   96   55:   64   20:   60
          22       1:   12   45:   55   22:   60
          23       1:   11   56:   65   21:   60
          24      20:   27   44:   54    1:   19
          25      29:   96   55:   64    1:   19
          26      20:   28   66:   80    1:   19
          27      12:   19   67:   80   21:   60
          28      28:   96   65:   80   20:   60
          29      20:   27    1:   43   20:   60
          30       1:   11   66:   80   21:   60
          31      20:   27   66:   80   20:   60
          32      13:   19   45:   55    1:   21
New grid distribution:   3
           1       1:   14    1:   27    1:   25
           2      14:   26   63:   80   27:   60
           3      15:   26    1:   24    1:   25
           4      39:   96    1:   38   24:   60
           5      50:   96   64:   80    1:   24
           6       1:   14    1:   27   26:   60
           7       1:   13   45:   61   27:   60
           8      14:   26   63:   80    1:   26
           9      39:   96    1:   38    1:   23
          10      27:   38    1:   28    1:   23
          11      27:   38   29:   50    1:   23
          12      27:   38    1:   29   24:   60
          13      39:   96   39:   50    1:   23
          14      15:   26    1:   25   26:   60
          15       1:   14   28:   44   26:   60
          16      15:   26   25:   44    1:   25
          17      50:   96   51:   63    1:   24
          18      27:   49   51:   65    1:   24
          19      14:   26   45:   62    1:   26
          20      39:   96   39:   50   24:   60
          21      27:   65   51:   65   25:   60
          22      66:   96   51:   63   25:   60
          23      15:   26   26:   44   26:   60
          24       1:   14   28:   44    1:   25
          25      27:   38   30:   50   24:   60
          26      27:   49   66:   80    1:   24
          27       1:   13   62:   80    1:   26
          28      27:   65   66:   80   25:   60
          29      66:   96   64:   80   25:   60
          30       1:   13   62:   80   27:   60
          31      14:   26   45:   62   27:   60
          32       1:   13   45:   61    1:   26
Setting up quadratic distribution...
ExtMesh (bp) on 0 =   116 x   148 x   129 =     2214672
PhiOnMesh: Number of (b)points on node 0 =                11088
PhiOnMesh: nlist on node 0 =               223785

        iscf     Eharris(eV)        E_KS(eV)     FreeEng(eV)     dDmax    Ef(eV) dHmax(eV)
   scf:    1    -2396.260186    -2396.261016    -2396.261016  0.000045 -3.831443  0.002575
     spin moment: S , {S} =    0.00000  -0.00000  -0.00000  -0.00000
   scf:    2    -2396.261002    -2396.261012    -2396.261012  0.000240 -3.831026  0.010901
     spin moment: S , {S} =    0.00000  -0.00000  -0.00000  -0.00000
   scf:    3    -2396.261018    -2396.261017    -2396.261017  0.000193 -3.831326  0.000207
     spin moment: S , {S} =    0.00000  -0.00000  -0.00000  -0.00000
   scf:    4    -2396.261017    -2396.261017    -2396.261017  0.000002 -3.831307  0.000102
     spin moment: S , {S} =    0.00000  -0.00000  -0.00000  -0.00000
   scf:    5    -2396.261017    -2396.261017    -2396.261017  0.000001 -3.831301  0.000044
     spin moment: S , {S} =    0.00000  -0.00000  -0.00000  -0.00000
   scf:    6    -2396.261017    -2396.261017    -2396.261017  0.000001 -3.831299  0.000009
     spin moment: S , {S} =    0.00000  -0.00000  -0.00000  -0.00000
   scf:    7    -2396.261017    -2396.261017    -2396.261017  0.000000 -3.831299  0.000004
     spin moment: S , {S} =    0.00000  -0.00000  -0.00000  -0.00000
   scf:    8    -2396.261017    -2396.261017    -2396.261017  0.000000 -3.831298  0.000001
     spin moment: S , {S} =    0.00000  -0.00000  -0.00000  -0.00000
   scf:    9    -2396.261017    -2396.261017    -2396.261017  0.000000 -3.831298  0.000000
     spin moment: S , {S} =    0.00000  -0.00000  -0.00000  -0.00000

SCF Convergence by DM+H criterion
max |DM_out - DM_in|         :     0.0000000191
max |H_out - H_in|      (eV) :     0.0000004532
SCF cycle converged after 9 iterations

Using DM_out to compute the final energy and forces
No. of atoms with KB's overlaping orbs in proc 0. Max # of overlaps:      16     142

siesta: E_KS(eV) =            -2396.2610
     spin moment: S , {S} =    0.00000  -0.00000  -0.00000  -0.00000

siesta: Atomic forces (eV/Ang):
     1    0.002202   -0.000005   -0.000001
     2    0.001018   -0.000175   -0.000017
     3   -0.000995    0.002441   -0.000120
     4    0.001862    0.001655   -0.000002
     5    0.003486   -0.000941   -0.000035
     6   -0.000548   -0.000352    0.000622
     7    0.001212    0.000272   -0.000281
     8    0.001075   -0.001617    0.002687
     9   -0.003144   -0.000882    0.000012
    10    0.000955    0.000238   -0.000004
    11   -0.000499    0.000078    0.000015
    12   -0.001928    0.001720   -0.000020
    13   -0.000421   -0.001125   -0.000000
    14   -0.002143   -0.000064   -0.000000
    15    0.001170    0.001389    0.000113
    16    0.002416    0.000087   -0.000139
----------------------------------------
   Tot    0.005717    0.002719    0.002828
----------------------------------------
   Max    0.003486
   Res    0.001286    sqrt( Sum f_i^2 / 3N )
----------------------------------------
   Max    0.003486    constrained

Stress tensor Voigt[x,y,z,yz,xz,xy] (kbar):       -0.87       -0.33       -0.18        0.00       -0.00        0.31
(Free)E + p*V (eV/cell)    -2395.5575
Target enthalpy (eV/cell)    -2396.2610

outcoor: Relaxed atomic coordinates (Ang):                  
    5.51993147   -6.75864714   -0.00000052   1       1  H
    4.49418071   -6.51292476   -0.00001145   2       2  N
    3.19299684   -7.75477845   -0.00005568   3       3  Si
    3.67934250   -9.16242528    0.00000004   1       4  H
    1.56099747   -7.26905763   -0.00003572   2       5  N
    1.60862386   -5.46691202    0.00028950   3       6  Si
    0.40534443   -3.59065243   -0.00012068   3       7  Si
   -1.13726093   -3.20141150   -0.00001439   4       8  O
    1.64738352   -2.18050179    0.00000406   2       9  N
    1.13768814   -1.24603335    0.00000078   1      10  H
    3.40349423   -2.08435181    0.00000441   3      11  Si
    4.03832178   -0.46232444   -0.00000815   2      12  N
    3.50305287    0.44278792    0.00000005   1      13  H
    5.08247092   -0.35479414   -0.00000003   1      14  H
    4.56478883   -3.33381428    0.00003097   2      15  N
    3.72019846   -4.86381276   -0.00006919   3      16  Si

siesta: Eigenvalues (eV):
ik =     1
  -22.1787  -22.1787  -22.0029  -22.0029  -21.5548  -21.5548  -21.1610  -21.1610  -20.0986  -20.0986
  -19.6851  -19.6851  -14.1940  -14.1940  -13.4663  -13.4663  -13.3800  -13.3800  -13.1213  -13.1213
  -12.8018  -12.8018  -11.7108  -11.7108  -11.0291  -11.0291  -10.9478  -10.9478   -9.5114   -9.5114
   -9.1859   -9.1859   -8.9667   -8.9667   -8.8888   -8.8888   -8.4663   -8.4663   -7.9434   -7.9434
   -7.6308   -7.6308   -7.5510   -7.5510   -7.1264   -7.1264   -6.8104   -6.8104   -6.4974   -6.4974
   -6.4575   -6.4575   -6.0290   -6.0290   -4.6046   -4.6046   -2.6049   -2.6049   -2.4571   -2.4571
   -2.1781   -2.1781   -2.1387   -2.1387   -1.7867   -1.7867   -1.3011   -1.3011   -1.0988   -1.0988
   -0.6872   -0.6872    0.1237    0.1237    0.1517    0.1517    0.3316    0.3316    0.5440    0.5440
    1.0212    1.0212    1.2093    1.2093    1.4890    1.4890    2.0408    2.0408    2.4403    2.4403
    2.4738    2.4738    2.7772    2.7772    3.0800    3.0800    3.4464    3.4464    3.5048    3.5048
    4.1462    4.1462    4.3509    4.3509    4.5116    4.5116    4.7994    4.7994    4.9738    4.9738
    5.4290    5.4290    5.5277    5.5277    5.6399    5.6399    5.7079    5.7079    6.1073    6.1073
    6.3886    6.3886    6.8716    6.8716    7.0992    7.0992    7.2667    7.2667    7.4824    7.4824
    8.0265    8.0265    8.3245    8.3245    8.4149    8.4149    8.5447    8.5447    8.9055    8.9055
    8.9446    8.9446    9.5803    9.5803    9.7136    9.7136   10.1461   10.1461   10.5903   10.5903
   10.6503   10.6503   10.7266   10.7266   11.6014   11.6014   11.6827   11.6827   11.8431   11.8431
   12.1057   12.1057   12.5177   12.5177   13.1425   13.1425   13.4694   13.4694   14.0345   14.0345
   14.2443   14.2443   14.5213   14.5213   15.9017   15.9017   16.1117   16.1117   16.6787   16.6787
   18.0173   18.0173   18.1729   18.1729   18.4377   18.4377   19.1461   19.1461   19.7890   19.7890
   21.6061   21.6061   22.4175   22.4175   23.0113   23.0113   23.1524   23.1524   23.7491   23.7491
   25.0138   25.0138   26.6611   26.6611   28.5332   28.5332   29.2099   29.2099   29.5623   29.5623
   29.7435   29.7435   29.9849   29.9849   30.5851   30.5851   30.7384   30.7384   30.7426   30.7426
   32.0949   32.0949   33.7705   33.7705   34.3562   34.3562   34.7932   34.7932   35.2311   35.2311
   35.2608   35.2608   36.4691   36.4691   36.5605   36.5605   37.0308   37.0308   37.2467   37.2467
   38.1410   38.1410   39.0941   39.0941   39.8908   39.8908   40.2083   40.2083   40.8012   40.8012
   40.8718   40.8718   41.2403   41.2403   42.8180   42.8180   43.0711   43.0711   43.6454   43.6454
   43.6891   43.6891   44.4048   44.4048   44.5507   44.5507   45.1440   45.1440   46.0893   46.0893
   46.6662   46.6662   47.3108   47.3108   49.1153   49.1153   49.1647   49.1647   50.2000   50.2000
   50.9893   50.9893   51.6632   51.6632   52.3990   52.3990   54.3654   54.3654   54.6557   54.6557
   55.6151   55.6151   56.1729   56.1729   58.0434   58.0434   58.8411   58.8411   60.2291   60.2291
   61.0126   61.0126   61.7806   61.7806   61.9141   61.9141   64.2354   64.2354   66.8172   66.8172
   67.1391   67.1391   68.1287   68.1287   70.9103   70.9103   73.5096   73.5096   90.5175   90.5175
   93.2491   93.2491   97.7028   97.7028  102.9962  102.9962  103.1515  103.1515  109.6564  109.6564
  123.9615  123.9615  130.8709  130.8709  140.7124  140.7124
siesta: Fermi energy =      -3.831298 eV

siesta: Program's energy decomposition (eV):
siesta: Ebs     =      -666.003721
siesta: Eions   =      2040.955082
siesta: Ena     =       223.330859
siesta: Ekin    =      1680.581538
siesta: Enl     =     -1652.082486
siesta: Eso     =        -0.002391
siesta: Edftu   =         0.000000
siesta: DEna    =        30.252788
siesta: DUscf   =         8.096378
siesta: DUext   =         0.000000
siesta: Exc     =      -645.482621
siesta: eta*DQ  =         0.000000
siesta: Emadel  =         0.000000
siesta: Emeta   =         0.000000
siesta: Emolmec =         0.000000
siesta: Ekinion =         0.000000
siesta: Eharris =     -2396.261017
siesta: Etot    =     -2396.261017
siesta: FreeEng =     -2396.261017

siesta: Final energy (eV):
siesta:  Band Struct. =    -666.003721
siesta:       Kinetic =    1680.581538
siesta:       Hartree =    3956.963491
siesta:       Edftu   =       0.000000
siesta:       Eso     =      -0.002391
siesta:    Ext. field =       0.000000
siesta:   Exch.-corr. =    -645.482621
siesta:  Ion-electron =   -9422.444566
siesta:       Ion-ion =    2034.123532
siesta:       Ekinion =       0.000000
siesta:         Total =   -2396.261017
siesta:         Fermi =      -3.831298

siesta: Stress tensor (static) (eV/Ang**3):
siesta:    -0.000546    0.000196   -0.000000
siesta:     0.000196   -0.000203    0.000000
siesta:    -0.000000    0.000000   -0.000114

siesta: Cell volume =       2447.125524 Ang**3

siesta: Pressure (static):
siesta:                Solid            Molecule  Units
siesta:           0.00000313          0.00000316  Ry/Bohr**3
siesta:           0.00028748          0.00028993  eV/Ang**3
siesta:           0.46060053          0.46451669  kBar
(Free)E+ p_basis*V_orbitals  =       -2385.271341
(Free)Eharris+ p_basis*V_orbitals  =       -2385.271341
     spin moment: S , {S} =    0.00000  -0.00000  -0.00000  -0.00000

siesta: Electric dipole (a.u.)  =    3.159857   -0.000000   -0.000082
siesta: Electric dipole (Debye) =    8.031562   -0.000000   -0.000209

cite: Please see "Guanine.bib" for an exhaustive BiBTeX file.
cite: Please clearly indicate Siesta version in published work: v4.1.5-1-g384057250
cite: This calculation has made use of the following articles
cite: which are encouraged to be cited in a published work.
        Primary SIESTA paper
          DOI: www.doi.org/10.1088/0953-8984/14/11/302
        Spin-orbit coupling (on-site approximation)
          DOI: www.doi.org/10.1088/0953-8984/19/19/489001


WARNING: alloc-realloc-dealloc name mismatch
         Name: atomlist isa
         Size:               -64. Bytes
         Node:     0
         Subsequent mismatches will not be reported
>> End of run:  14-OCT-2023  16:44:33
Job completed
