Siesta Version  : v4.1.5-1-g384057250
Architecture    : gcc
Compiler version: GNU Fortran (Ubuntu 11.4.0-1ubuntu1~22.04) 11.4.0
Compiler flags  : mpifort -O2 -fPIC -ftree-vectorize -fallow-argument-mismatch
PP flags        : -DFC_HAVE_ABORT -DMPI -DSIESTA__FLOOK -DSIESTA__METIS -DSIESTA__MUMPS -DCDF -DNCDF -DNCDF_4 -DNCDF_PARALLEL -DSIESTA__MRRR -DSIESTA__ELPA
Libraries       : libncdf.a libfdict.a  -lflookall -ldl -lnetcdff -lnetcdf -lhdf5_hl -lhdf5 -lhdf5_fortran -lz -lscalapack-openmpi -lopenblas -lmetis -lzmumps -lcmumps -ldmumps -lmumps_common -lpord -lsmumps -lesmumps -lscotch -lscotcherr -fopenmp -lelpa
PARALLEL version
NetCDF support
NetCDF-4 support
NetCDF-4 MPI-IO support
METIS ordering support
Lua support

* Running on 8 nodes in parallel
>> Start of run:   1-FEB-2024  18:04:06

                           ***********************       
                           *  WELCOME TO SIESTA  *       
                           ***********************       

reinit: Reading from standard input
reinit: Dumped input in INPUT_TMP.36447
************************** Dump of input data file ****************************
# mpirun -np 4 siesta-4.1.5 < AT.fdf > AT.out &
SystemLabel      AT
NumberOfAtoms    30
NumberOfSpecies  4
%block ChemicalSpeciesLabel
    1    1  H
    2    7  N
    3   14  Si
    4    8  O
%endblock ChemicalSpeciesLabel
############################################
# This overrides Defaults.fdf configuration
############################################
MD.TypeOfRun                Verlet # CG, Verlet
MD.Steps                    0
MaxSCFIterations            200
SCF.MustConverge            F
AtomicCoordinatesFormat NotScaledCartesianAng
%block AtomicCoordinatesAndAtomicSpecies
    2.28494382 -5.19529124 0.0  1  1  H
    1.37433094 -4.6647107 0.0  2  2  N
    -0.21830245 -5.49458215 0.0  3  3  Si
    -0.17484108 -6.98516892 0.0  1  4  H
    -1.66171682 -4.58600741 0.0  2  5  N
    -1.09026419 -2.87456374 0.0  3  6  Si
    -1.53038332 -0.70765692 0.0  3  7  Si
    -3.14415959 -0.09186471 0.0  2  8  N
    -3.40268075 0.95848335 0.0  1  9  H
    -3.95073599 -0.76720972 0.0  1  10  H
    -0.17836637 0.41349951 0.0  2  11  N
    1.49520211 -0.0473996 0.0  3  12  Si
    2.45603905 1.10727302 0.0  1  13  H
    2.30451743 -1.58574382 0.0  2  14  N
    1.10725559 -2.84610319 0.0  3  15  Si
    0.6637105297117062 6.876399453871443 0.0  1  16  H
    -0.14500015028829377 6.184193573871442 0.0  2  17  N
    -1.8015899902882937 6.897313673871443 0.0  3  18  Si
    -1.7047248202882936 8.408038883871441 0.0  1  19  H
    -3.5277463402882936 5.554265543871442 0.0  3  20  Si
    -5.882200590288294 5.546278613871443 0.0  3  21  Si
    -6.444618710288294 6.280768263871442 -1.20183078  1  22  H
    -6.182014340288294 4.067187483871442 -0.08618332  1  23  H
    -6.444731170288294 6.1111110738714425 1.28814761  1  24  H
    -2.5983557002882938 3.483694313871442 0.0  3  25  Si
    -3.547824060288294 2.195158183871442 0.0  4  26  O
    -0.8074108302882939 3.309958843871442 0.0  2  27  N
    -0.47641947028829373 2.277601863871442 0.0  1  28  H
    0.5010473897117061 4.504505263871442 0.0  3  29  Si
    2.066984319711706 4.237258413871443 0.0  4  30  O
%endblock AtomicCoordinatesAndAtomicSpecies
#############
# Unit Cell
#############
LatticeConstant 1.0 Ang
%block LatticeVectors
    30.00000    0.000000    0.000000
    0.000000    45.00000    0.000000
    0.000000    0.000000    10.00000
%endblock LatticeVectors
%include ../../../../Defaults.fdf
************************** End of input data file *****************************

reinit: -----------------------------------------------------------------------
reinit: System Name: 
reinit: -----------------------------------------------------------------------
reinit: System Label: AT
reinit: -----------------------------------------------------------------------

initatom: Reading input for the pseudopotentials and atomic orbitals ----------
Species number:   1 Atomic number:    1 Label: H
Species number:   2 Atomic number:    7 Label: N
Species number:   3 Atomic number:   14 Label: Si
Species number:   4 Atomic number:    8 Label: O

Ground state valence configuration:   1s01
Reading pseudopotential information in formatted form from H.psf

Pseudopotential generated from a relativistic atomic calculation

Valence configuration for pseudopotential generation:
1s( 1.00) rc: 0.01
2p( 0.00) rc: 0.60
3d( 0.00) rc: 1.99
4f( 0.00) rc: 2.49
Ground state valence configuration:   2s02  2p03
Reading pseudopotential information in formatted form from N.psf

Pseudopotential generated from a relativistic atomic calculation

Valence configuration for pseudopotential generation:
2s( 2.00) rc: 0.94
2p( 3.00) rc: 0.59
3d( 0.00) rc: 3.46
4f( 0.00) rc: 2.47
Ground state valence configuration:   3s02  3p02
Reading pseudopotential information in formatted form from Si.psf

Pseudopotential generated from a relativistic atomic calculation

Valence configuration for pseudopotential generation:
3s( 2.00) rc: 1.67
3p( 2.00) rc: 2.04
3d( 0.00) rc: 2.89
4f( 0.00) rc: 2.49
Ground state valence configuration:   2s02  2p04
Reading pseudopotential information in formatted form from O.psf

Pseudopotential generated from a relativistic atomic calculation

Valence configuration for pseudopotential generation:
2s( 2.00) rc: 0.45
2p( 4.00) rc: 0.92
3d( 0.00) rc: 2.24
4f( 0.00) rc: 0.25
For H, standard SIESTA heuristics set lmxkb to 2
 (one more than the basis l, including polarization orbitals).
Use PS.lmax or PS.KBprojectors blocks to override.
For N, standard SIESTA heuristics set lmxkb to 3
 (one more than the basis l, including polarization orbitals).
Use PS.lmax or PS.KBprojectors blocks to override.
For Si, standard SIESTA heuristics set lmxkb to 3
 (one more than the basis l, including polarization orbitals).
Use PS.lmax or PS.KBprojectors blocks to override.
For O, standard SIESTA heuristics set lmxkb to 3
 (one more than the basis l, including polarization orbitals).
Use PS.lmax or PS.KBprojectors blocks to override.

<basis_specs>
===============================================================================
H                    Z=   1    Mass=  1.0100        Charge= 0.17977+309
Lmxo=0 Lmxkb= 2    BasisType=split      Semic=F
L=0  Nsemic=0  Cnfigmx=1
          i=1  nzeta=2  polorb=1  (1s)
            splnorm:   0.62000    
               vcte:    0.0000    
               rinn:    0.0000    
               qcoe:    0.0000    
               qyuk:    0.0000    
               qwid:   0.10000E-01
                rcs:    0.0000      0.0000    
            lambdas:    1.0000      1.0000    
-------------------------------------------------------------------------------
L=0  Nkbl=1  erefs: 0.17977+309
L=1  Nkbl=1  erefs: 0.17977+309
L=2  Nkbl=1  erefs: 0.17977+309
===============================================================================
</basis_specs>

atom: Called for H                     (Z =   1)

read_vps: Pseudopotential generation method:
read_vps: ATM4.2.7  Troullier-Martins                       
Valence charge for ps generation:    1.00000

xc_check: Exchange-correlation functional:
xc_check: GGA Perdew, Burke & Ernzerhof 1996
V l=0 = -2*Zval/r beyond r=  0.0098
V l=1 = -2*Zval/r beyond r=  0.5817
V l=2 = -2*Zval/r beyond r=  1.9372
All V_l potentials equal beyond r=  1.9372
This should be close to max(r_c) in ps generation
All pots = -2*Zval/r beyond r=  1.9372

VLOCAL1: 99.0% of the norm of Vloc inside     11.567 Ry
VLOCAL1: 99.9% of the norm of Vloc inside     26.362 Ry
atom: Maximum radius for 4*pi*r*r*local-pseudopot. charge    2.25106
atom: Maximum radius for r*vlocal+2*Zval:    1.91306
GHOST: No ghost state for L =  0
GHOST: No ghost state for L =  1
GHOST: No ghost state for L =  2

KBgen: Kleinman-Bylander projectors: 
   l= 0   rc=  2.036604   el= -0.477180   Ekb= -6.081590   kbcos= -0.277285
   l= 1   rc=  2.195416   el=  0.001076   Ekb= -0.926943   kbcos= -0.034643
   l= 2   rc=  2.251056   el=  0.002010   Ekb= -0.130941   kbcos= -0.009788

KBgen: Total number of Kleinman-Bylander projectors:    9
atom: -------------------------------------------------------------------------

atom: SANKEY-TYPE ORBITALS:
atom: Selected multiple-zeta basis: split     

SPLIT: Orbitals with angular momentum L= 0

SPLIT: Basis orbitals for state 1s

SPLIT: PAO cut-off radius determined from an
SPLIT: energy shift=  0.002000 Ry

   izeta = 1
                 lambda =    1.000000
                     rc =    6.518340
                 energy =   -0.475305
                kinetic =    0.912139
    potential(screened) =   -1.387444
       potential(ionic) =   -1.907295

   izeta = 2
                 rmatch =    2.141150
              splitnorm =    0.620000
                 energy =    0.566467
                kinetic =    3.772856
    potential(screened) =   -3.206389
       potential(ionic) =   -3.759093

POLgen: Perturbative polarization orbital with L=  1

POLgen: Polarization orbital for state 1s

   izeta = 1
                     rc =    6.518340
                 energy =    0.533861
                kinetic =    1.121086
    potential(screened) =   -0.587225
       potential(ionic) =   -1.053027
atom: Total number of Sankey-type orbitals:  5

atm_pop: Valence configuration (for local Pseudopot. screening):
 1s( 1.00)                                                            
Vna: chval, zval:    1.00000   1.00000

Vna:  Cut-off radius for the neutral-atom potential:   6.518340

atom: _________________________________________________________________________

<basis_specs>
===============================================================================
N                    Z=   7    Mass=  14.010        Charge= 0.17977+309
Lmxo=1 Lmxkb= 3    BasisType=split      Semic=F
L=0  Nsemic=0  Cnfigmx=2
          i=1  nzeta=2  polorb=0  (2s)
            splnorm:   0.28000    
               vcte:    0.0000    
               rinn:    0.0000    
               qcoe:    0.0000    
               qyuk:    0.0000    
               qwid:   0.10000E-01
                rcs:    0.0000      0.0000    
            lambdas:    1.0000      1.0000    
L=1  Nsemic=0  Cnfigmx=2
          i=1  nzeta=2  polorb=1  (2p)
            splnorm:   0.28000    
               vcte:    0.0000    
               rinn:    0.0000    
               qcoe:    0.0000    
               qyuk:    0.0000    
               qwid:   0.10000E-01
                rcs:    0.0000      0.0000    
            lambdas:    1.0000      1.0000    
-------------------------------------------------------------------------------
L=0  Nkbl=1  erefs: 0.17977+309
L=1  Nkbl=1  erefs: 0.17977+309
L=2  Nkbl=1  erefs: 0.17977+309
L=3  Nkbl=1  erefs: 0.17977+309
===============================================================================
</basis_specs>

atom: Called for N                     (Z =   7)

read_vps: Pseudopotential generation method:
read_vps: ATM4.2.7  Troullier-Martins                       
Valence charge for ps generation:    5.00000

xc_check: Exchange-correlation functional:
xc_check: GGA Perdew, Burke & Ernzerhof 1996
V l=0 = -2*Zval/r beyond r=  1.2889
V l=1 = -2*Zval/r beyond r=  1.2889
V l=2 = -2*Zval/r beyond r=  3.4178
V l=3 = -2*Zval/r beyond r=  2.4084
All V_l potentials equal beyond r=  3.3753
This should be close to max(r_c) in ps generation
All pots = -2*Zval/r beyond r=  3.4178

VLOCAL1: 99.0% of the norm of Vloc inside      3.810 Ry
VLOCAL1: 99.9% of the norm of Vloc inside      8.683 Ry
atom: Maximum radius for 4*pi*r*r*local-pseudopot. charge    4.02088
atom: Maximum radius for r*vlocal+2*Zval:    3.54838
GHOST: No ghost state for L =  0
GHOST: No ghost state for L =  1
GHOST: No ghost state for L =  2
GHOST: No ghost state for L =  3

KBgen: Kleinman-Bylander projectors: 
   l= 0   rc=  3.417763   el= -1.365098   Ekb= -4.433130   kbcos= -0.707855
   l= 1   rc=  3.375302   el= -0.521201   Ekb=-13.264039   kbcos= -0.535594
   l= 2   rc=  3.872880   el=  0.001991   Ekb= -0.641094   kbcos= -0.062456
   l= 3   rc=  3.970931   el=  0.003093   Ekb= -0.474517   kbcos= -0.018236

KBgen: Total number of Kleinman-Bylander projectors:   16
atom: -------------------------------------------------------------------------

atom: SANKEY-TYPE ORBITALS:
atom: Selected multiple-zeta basis: split     

SPLIT: Orbitals with angular momentum L= 0

SPLIT: Basis orbitals for state 2s

SPLIT: PAO cut-off radius determined from an
SPLIT: energy shift=  0.002000 Ry

   izeta = 1
                 lambda =    1.000000
                     rc =    4.730425
                 energy =   -1.363399
                kinetic =    1.245246
    potential(screened) =   -2.608645
       potential(ionic) =   -8.121105

   izeta = 2
                 rmatch =    2.531849
              splitnorm =    0.280000
                 energy =   -0.959908
                kinetic =    2.409435
    potential(screened) =   -3.369343
       potential(ionic) =   -9.427975

SPLIT: Orbitals with angular momentum L= 1

SPLIT: Basis orbitals for state 2p

SPLIT: PAO cut-off radius determined from an
SPLIT: energy shift=  0.002000 Ry

   izeta = 1
                 lambda =    1.000000
                     rc =    5.924108
                 energy =   -0.519262
                kinetic =    3.672940
    potential(screened) =   -4.192202
       potential(ionic) =   -9.518354

   izeta = 2
                 rmatch =    2.531849
              splitnorm =    0.280000
                 energy =   -0.104258
                kinetic =    6.807538
    potential(screened) =   -6.911796
       potential(ionic) =  -13.149920

POLgen: Perturbative polarization orbital with L=  2

POLgen: Polarization orbital for state 2p

   izeta = 1
                     rc =    5.924108
                 energy =    1.427508
                kinetic =    2.872379
    potential(screened) =   -1.444871
       potential(ionic) =   -5.563644
atom: Total number of Sankey-type orbitals: 13

atm_pop: Valence configuration (for local Pseudopot. screening):
 2s( 2.00)                                                            
 2p( 3.00)                                                            
Vna: chval, zval:    5.00000   5.00000

Vna:  Cut-off radius for the neutral-atom potential:   5.924108

atom: _________________________________________________________________________

<basis_specs>
===============================================================================
Si                   Z=  14    Mass=  28.090        Charge= 0.17977+309
Lmxo=1 Lmxkb= 3    BasisType=split      Semic=F
L=0  Nsemic=0  Cnfigmx=3
          i=1  nzeta=2  polorb=0  (3s)
            splnorm:   0.28000    
               vcte:    0.0000    
               rinn:    0.0000    
               qcoe:    0.0000    
               qyuk:    0.0000    
               qwid:   0.10000E-01
                rcs:    0.0000      0.0000    
            lambdas:    1.0000      1.0000    
L=1  Nsemic=0  Cnfigmx=3
          i=1  nzeta=2  polorb=1  (3p)
            splnorm:   0.28000    
               vcte:    0.0000    
               rinn:    0.0000    
               qcoe:    0.0000    
               qyuk:    0.0000    
               qwid:   0.10000E-01
                rcs:    0.0000      0.0000    
            lambdas:    1.0000      1.0000    
-------------------------------------------------------------------------------
L=0  Nkbl=1  erefs: 0.17977+309
L=1  Nkbl=1  erefs: 0.17977+309
L=2  Nkbl=1  erefs: 0.17977+309
L=3  Nkbl=1  erefs: 0.17977+309
===============================================================================
</basis_specs>

atom: Called for Si                    (Z =  14)

read_vps: Pseudopotential generation method:
read_vps: ATM4.2.7  Troullier-Martins                       
Valence charge for ps generation:    4.00000

xc_check: Exchange-correlation functional:
xc_check: GGA Perdew, Burke & Ernzerhof 1996
V l=0 = -2*Zval/r beyond r=  2.7826
V l=1 = -2*Zval/r beyond r=  2.7826
V l=2 = -2*Zval/r beyond r=  2.9253
V l=3 = -2*Zval/r beyond r=  2.7826
All V_l potentials equal beyond r=  2.8530
This should be close to max(r_c) in ps generation
All pots = -2*Zval/r beyond r=  2.9253

VLOCAL1: 99.0% of the norm of Vloc inside      5.333 Ry
VLOCAL1: 99.9% of the norm of Vloc inside     12.154 Ry
atom: Maximum radius for 4*pi*r*r*local-pseudopot. charge    3.39869
atom: Maximum radius for r*vlocal+2*Zval:    2.96205
GHOST: No ghost state for L =  0
GHOST: No ghost state for L =  1
GHOST: No ghost state for L =  2
GHOST: No ghost state for L =  3

KBgen: Kleinman-Bylander projectors: 
   l= 0   rc=  3.075247   el= -0.794092   Ekb=  5.879390   kbcos=  0.167461
   l= 1   rc=  3.153101   el= -0.300068   Ekb=  2.642817   kbcos=  0.058301
   l= 2   rc=  3.273594   el=  0.001958   Ekb= -1.185135   kbcos= -0.104411
   l= 3   rc=  3.232927   el=  0.003046   Ekb= -0.497174   kbcos= -0.015889

KBgen: Total number of Kleinman-Bylander projectors:   16
atom: -------------------------------------------------------------------------

atom: SANKEY-TYPE ORBITALS:
atom: Selected multiple-zeta basis: split     

SPLIT: Orbitals with angular momentum L= 0

SPLIT: Basis orbitals for state 3s

SPLIT: PAO cut-off radius determined from an
SPLIT: energy shift=  0.002000 Ry

   izeta = 1
                 lambda =    1.000000
                     rc =    6.429618
                 energy =   -0.792283
                kinetic =    0.525293
    potential(screened) =   -1.317576
       potential(ionic) =   -3.744923

   izeta = 2
                 rmatch =    3.998416
              splitnorm =    0.280000
                 energy =   -0.583081
                kinetic =    1.069570
    potential(screened) =   -1.652651
       potential(ionic) =   -4.235185

SPLIT: Orbitals with angular momentum L= 1

SPLIT: Basis orbitals for state 3p

SPLIT: PAO cut-off radius determined from an
SPLIT: energy shift=  0.002000 Ry

   izeta = 1
                 lambda =    1.000000
                     rc =    8.464845
                 energy =   -0.298236
                kinetic =    0.785360
    potential(screened) =   -1.083596
       potential(ionic) =   -3.273779

   izeta = 2
                 rmatch =    4.587816
              splitnorm =    0.280000
                 energy =   -0.131871
                kinetic =    1.403687
    potential(screened) =   -1.535557
       potential(ionic) =   -4.015310

POLgen: Perturbative polarization orbital with L=  2

POLgen: Polarization orbital for state 3p

   izeta = 1
                     rc =    8.464845
                 energy =    0.321949
                kinetic =    1.055677
    potential(screened) =   -0.733728
       potential(ionic) =   -2.672950
atom: Total number of Sankey-type orbitals: 13

atm_pop: Valence configuration (for local Pseudopot. screening):
 3s( 2.00)                                                            
 3p( 2.00)                                                            
Vna: chval, zval:    4.00000   4.00000

Vna:  Cut-off radius for the neutral-atom potential:   8.464845

atom: _________________________________________________________________________

<basis_specs>
===============================================================================
O                    Z=   8    Mass=  16.000        Charge= 0.17977+309
Lmxo=1 Lmxkb= 3    BasisType=split      Semic=F
L=0  Nsemic=0  Cnfigmx=2
          i=1  nzeta=2  polorb=0  (2s)
            splnorm:   0.28000    
               vcte:    0.0000    
               rinn:    0.0000    
               qcoe:    0.0000    
               qyuk:    0.0000    
               qwid:   0.10000E-01
                rcs:    0.0000      0.0000    
            lambdas:    1.0000      1.0000    
L=1  Nsemic=0  Cnfigmx=2
          i=1  nzeta=2  polorb=1  (2p)
            splnorm:   0.28000    
               vcte:    0.0000    
               rinn:    0.0000    
               qcoe:    0.0000    
               qyuk:    0.0000    
               qwid:   0.10000E-01
                rcs:    0.0000      0.0000    
            lambdas:    1.0000      1.0000    
-------------------------------------------------------------------------------
L=0  Nkbl=1  erefs: 0.17977+309
L=1  Nkbl=1  erefs: 0.17977+309
L=2  Nkbl=1  erefs: 0.17977+309
L=3  Nkbl=1  erefs: 0.17977+309
===============================================================================
</basis_specs>

atom: Called for O                     (Z =   8)

read_vps: Pseudopotential generation method:
read_vps: ATM4.2.7  Troullier-Martins                       
Valence charge for ps generation:    6.00000

xc_check: Exchange-correlation functional:
xc_check: GGA Perdew, Burke & Ernzerhof 1996
V l=0 = -2*Zval/r beyond r=  1.1000
V l=1 = -2*Zval/r beyond r=  1.1000
V l=2 = -2*Zval/r beyond r=  2.2154
V l=3 = -2*Zval/r beyond r=  1.1000
All V_l potentials equal beyond r=  2.2154
This should be close to max(r_c) in ps generation
All pots = -2*Zval/r beyond r=  2.2154

VLOCAL1: 99.0% of the norm of Vloc inside      8.845 Ry
VLOCAL1: 99.9% of the norm of Vloc inside     20.157 Ry
atom: Maximum radius for 4*pi*r*r*local-pseudopot. charge    2.67231
atom: Maximum radius for r*vlocal+2*Zval:    2.32897
GHOST: No ghost state for L =  0
GHOST: No ghost state for L =  1
GHOST: No ghost state for L =  2
GHOST: No ghost state for L =  3

KBgen: Kleinman-Bylander projectors: 
   l= 0   rc=  2.243238   el= -1.759686   Ekb=**********   kbcos= -0.171774
   l= 1   rc=  2.328968   el= -0.663873   Ekb=-14.506792   kbcos= -0.519897
   l= 2   rc=  2.573941   el=  0.002031   Ekb= -1.137373   kbcos= -0.019581
   l= 3   rc=  2.606321   el=  0.003153   Ekb= -1.013546   kbcos= -0.003122

KBgen: Total number of Kleinman-Bylander projectors:   16
atom: -------------------------------------------------------------------------

atom: SANKEY-TYPE ORBITALS:
atom: Selected multiple-zeta basis: split     

SPLIT: Orbitals with angular momentum L= 0

SPLIT: Basis orbitals for state 2s

SPLIT: PAO cut-off radius determined from an
SPLIT: energy shift=  0.002000 Ry

   izeta = 1
                 lambda =    1.000000
                     rc =    4.243912
                 energy =   -1.758270
                kinetic =    3.286084
    potential(screened) =   -5.044353
       potential(ionic) =  -12.921184

   izeta = 2
                 rmatch =    2.187845
              splitnorm =    0.280000
                 energy =   -0.885018
                kinetic =    8.134434
    potential(screened) =   -9.019452
       potential(ionic) =  -17.710645

SPLIT: Orbitals with angular momentum L= 1

SPLIT: Basis orbitals for state 2p

SPLIT: PAO cut-off radius determined from an
SPLIT: energy shift=  0.002000 Ry

   izeta = 1
                 lambda =    1.000000
                     rc =    5.314825
                 energy =   -0.661986
                kinetic =    4.917472
    potential(screened) =   -5.579458
       potential(ionic) =  -13.236259

   izeta = 2
                 rmatch =    2.160663
              splitnorm =    0.280000
                 energy =   -0.068760
                kinetic =    9.183374
    potential(screened) =   -9.252135
       potential(ionic) =  -18.274251

POLgen: Perturbative polarization orbital with L=  2

POLgen: Polarization orbital for state 2p

   izeta = 1
                     rc =    5.314825
                 energy =    1.970580
                kinetic =    3.886128
    potential(screened) =   -1.915547
       potential(ionic) =   -7.749584
atom: Total number of Sankey-type orbitals: 13

atm_pop: Valence configuration (for local Pseudopot. screening):
 2s( 2.00)                                                            
 2p( 4.00)                                                            
Vna: chval, zval:    6.00000   6.00000

Vna:  Cut-off radius for the neutral-atom potential:   5.314825

atom: _________________________________________________________________________

prinput: Basis input ----------------------------------------------------------

PAO.BasisType split     

%block ChemicalSpeciesLabel
    1    1 H                       # Species index, atomic number, species label
    2    7 N                       # Species index, atomic number, species label
    3   14 Si                      # Species index, atomic number, species label
    4    8 O                       # Species index, atomic number, species label
%endblock ChemicalSpeciesLabel

%block PAO.Basis                 # Define Basis set
H                     1                    # Species label, number of l-shells
 n=1   0   2 P   1                   # n, l, Nzeta, Polarization, NzetaPol
   6.518      2.141   
   1.000      1.000   
N                     2                    # Species label, number of l-shells
 n=2   0   2                         # n, l, Nzeta 
   4.730      2.532   
   1.000      1.000   
 n=2   1   2 P   1                   # n, l, Nzeta, Polarization, NzetaPol
   5.924      2.532   
   1.000      1.000   
Si                    2                    # Species label, number of l-shells
 n=3   0   2                         # n, l, Nzeta 
   6.430      3.998   
   1.000      1.000   
 n=3   1   2 P   1                   # n, l, Nzeta, Polarization, NzetaPol
   8.465      4.588   
   1.000      1.000   
O                     2                    # Species label, number of l-shells
 n=2   0   2                         # n, l, Nzeta 
   4.244      2.188   
   1.000      1.000   
 n=2   1   2 P   1                   # n, l, Nzeta, Polarization, NzetaPol
   5.315      2.161   
   1.000      1.000   
%endblock PAO.Basis

prinput: ----------------------------------------------------------------------

Dumping basis to NetCDF file H.ion.nc
Dumping basis to NetCDF file N.ion.nc
Dumping basis to NetCDF file Si.ion.nc
Dumping basis to NetCDF file O.ion.nc
coor:   Atomic-coordinates input format  =     Cartesian coordinates
coor:                                          (in Angstroms)

siesta: Atomic coordinates (Bohr) and species
siesta:      4.31792  -9.81768   0.00000  1        1
siesta:      2.59711  -8.81503   0.00000  2        2
siesta:     -0.41253 -10.38326   0.00000  3        3
siesta:     -0.33040 -13.20006   0.00000  1        4
siesta:     -3.14019  -8.66630   0.00000  2        5
siesta:     -2.06030  -5.43214   0.00000  3        6
siesta:     -2.89201  -1.33728   0.00000  3        7
siesta:     -5.94160  -0.17360   0.00000  2        8
siesta:     -6.43014   1.81127   0.00000  1        9
siesta:     -7.46581  -1.44982   0.00000  1       10
siesta:     -0.33706   0.78140   0.00000  2       11
siesta:      2.82552  -0.08957   0.00000  3       12
siesta:      4.64124   2.09244   0.00000  1       13
siesta:      4.35491  -2.99662   0.00000  2       14
siesta:      2.09241  -5.37836   0.00000  3       15
siesta:      1.25423  12.99452   0.00000  1       16
siesta:     -0.27401  11.68644   0.00000  2       17
siesta:     -3.40451  13.03404   0.00000  3       18
siesta:     -3.22146  15.88890   0.00000  1       19
siesta:     -6.66648  10.49604   0.00000  3       20
siesta:    -11.11575  10.48095   0.00000  3       21
siesta:    -12.17857  11.86894  -2.27113  1       22
siesta:    -11.68232   7.68587  -0.16286  1       23
siesta:    -12.17878  11.54833   2.43425  1       24
siesta:     -4.91018   6.58323   0.00000  3       25
siesta:     -6.70442   4.14825   0.00000  4       26
siesta:     -1.52579   6.25492   0.00000  2       27
siesta:     -0.90030   4.30405   0.00000  1       28
siesta:      0.94684   8.51228   0.00000  3       29
siesta:      3.90604   8.00726   0.00000  4       30

siesta: System type = molecule  

initatomlists: Number of atoms, orbitals, and projectors:     30   302   403

siesta: ******************** Simulation parameters ****************************
siesta:
siesta: The following are some of the parameters of the simulation.
siesta: A complete list of the parameters used, including default values,
siesta: can be found in file out.fdf
siesta:
redata: Spin configuration                          = spin-orbit
redata: Number of spin components                   = 8
redata: Time-Reversal Symmetry                      = F
redata: Spin spiral                                 = F
############################################################
This spin-orbit implementation uses a local approximation.
From 4.2 and onwards the full non-local approximation is implemented
You are strongly advised to use >=4.2 versions!
############################################################
redata: Long output                                 =   F
redata: Number of Atomic Species                    =        4
redata: Charge density info will appear in .RHO file
redata: Write Mulliken Pop.                         = NO
redata: Matel table size (NRTAB)                    =     1024
redata: Mesh Cutoff                                 =   340.0000 Ry
redata: Net charge of the system                    =     0.0000 |e|
redata: Min. number of SCF Iter                     =        1
redata: Max. number of SCF Iter                     =      200
redata: SCF mix quantity                            = Hamiltonian
redata: Mix DM or H after convergence               =   F
redata: Recompute H after scf cycle                 =   F
redata: Mix DM in first SCF step                    =   T
redata: Write Pulay info on disk                    =   F
redata: New DM Occupancy tolerance                  = 0.000000000001
redata: No kicks to SCF
redata: DM Mixing Weight for Kicks                  =     0.5000
redata: Require Harris convergence for SCF          =   F
redata: Harris energy tolerance for SCF             =     0.000100 eV
redata: Require DM convergence for SCF              =   T
redata: DM tolerance for SCF                        =     0.000008
redata: Require EDM convergence for SCF             =   F
redata: EDM tolerance for SCF                       =     0.001000 eV
redata: Require H convergence for SCF               =   T
redata: Hamiltonian tolerance for SCF               =     0.000001 eV
redata: Require (free) Energy convergence for SCF   =   F
redata: (free) Energy tolerance for SCF             =     0.000100 eV
redata: Using Saved Data (generic)                  =   F
redata: Use continuation files for DM               =   T
redata: Neglect nonoverlap interactions             =   F
redata: Method of Calculation                       = Diagonalization
redata: Electronic Temperature                      =   299.9978 K
redata: Fix the spin of the system                  =   F
redata: Dynamics option                             = Verlet MD run
redata: Initial MD time step                        =        1
redata:   Final MD time step                        =        1
redata: Length of MD time step                      =     0.5000 fs
redata: Initial Temperature of MD run               =     0.0000 K
redata: Perform a MD quench                         =   F
mix.SCF: Pulay mixing                            = Pulay
mix.SCF:    Variant                              = stable
mix.SCF:    History steps                        = 6
mix.SCF:    Linear mixing weight                 =     0.250000
mix.SCF:    Mixing weight                        =     0.250000
mix.SCF:    SVD condition                        = 0.1000E-07
mix.SCF:    Restart steps                        = 24
mix.SCF:    Restart save steps                   = 3
mix.SCF: Spin-component mixing                   all
redata: Save all siesta data in one NC              =   F
redata: ***********************************************************************

%block SCF.Mixers
  Pulay
%endblock SCF.Mixers

%block SCF.Mixer.Pulay
  # Mixing method
  method pulay
  variant stable

  # Mixing options
  weight 0.2500
  weight.linear 0.2500
  history 6
  restart 24
  restart.save 3
%endblock SCF.Mixer.Pulay

Size of DM history Fstack: 3
Total number of electrons:    98.000000
Total ionic charge:    98.000000

* ProcessorY, Blocksize:    2  24


* Orbital distribution balance (max,min):    48    24


Time-reversal symmetry not used.

siesta: k-grid: Number of k-points =     1
siesta: k-grid: Cutoff (effective) =     5.000 Ang
siesta: k-grid: Supercell and displacements
siesta: k-grid:    1   0   0      0.000
siesta: k-grid:    0   1   0      0.000
siesta: k-grid:    0   0   1      0.000

diag: Algorithm                                     = ELPA-1stage
diag: Parallel over k                               =   F
diag: Use parallel 2D distribution                  =   T
diag: Parallel block-size                           = 24
diag: Parallel distribution                         =     2 x     4
diag: Used triangular part                          = Lower
diag: Absolute tolerance                            =  0.100E-15
diag: Orthogonalization factor                      =  0.100E-05
diag: Memory factor                                 =  1.0000


ts: **************************************************************
ts: Save H and S matrices                           =    F
ts: Save DM and EDM matrices                        =    F
ts: Only save the overlap matrix S                  =    F
ts: **************************************************************

************************ Begin: TS CHECKS AND WARNINGS ************************
************************ End: TS CHECKS AND WARNINGS **************************


                     ====================================
                        Begin MD step =      1
                     ====================================

outcoor: Atomic coordinates (Ang):                          
    2.28494382   -5.19529124    0.00000000   1       1  H
    1.37433094   -4.66471070    0.00000000   2       2  N
   -0.21830245   -5.49458215    0.00000000   3       3  Si
   -0.17484108   -6.98516892    0.00000000   1       4  H
   -1.66171682   -4.58600741    0.00000000   2       5  N
   -1.09026419   -2.87456374    0.00000000   3       6  Si
   -1.53038332   -0.70765692    0.00000000   3       7  Si
   -3.14415959   -0.09186471    0.00000000   2       8  N
   -3.40268075    0.95848335    0.00000000   1       9  H
   -3.95073599   -0.76720972    0.00000000   1      10  H
   -0.17836637    0.41349951    0.00000000   2      11  N
    1.49520211   -0.04739960    0.00000000   3      12  Si
    2.45603905    1.10727302    0.00000000   1      13  H
    2.30451743   -1.58574382    0.00000000   2      14  N
    1.10725559   -2.84610319    0.00000000   3      15  Si
    0.66371053    6.87639945    0.00000000   1      16  H
   -0.14500015    6.18419357    0.00000000   2      17  N
   -1.80158999    6.89731367    0.00000000   3      18  Si
   -1.70472482    8.40803888    0.00000000   1      19  H
   -3.52774634    5.55426554    0.00000000   3      20  Si
   -5.88220059    5.54627861    0.00000000   3      21  Si
   -6.44461871    6.28076826   -1.20183078   1      22  H
   -6.18201434    4.06718748   -0.08618332   1      23  H
   -6.44473117    6.11111107    1.28814761   1      24  H
   -2.59835570    3.48369431    0.00000000   3      25  Si
   -3.54782406    2.19515818    0.00000000   4      26  O
   -0.80741083    3.30995884    0.00000000   2      27  N
   -0.47641947    2.27760186    0.00000000   1      28  H
    0.50104739    4.50450526    0.00000000   3      29  Si
    2.06698432    4.23725841    0.00000000   4      30  O

outcell: Unit cell vectors (Ang):
       30.000000    0.000000    0.000000
        0.000000   45.000000    0.000000
        0.000000    0.000000   10.000000

outcell: Cell vector modules (Ang)   :   30.000000   45.000000   10.000000
outcell: Cell angles (23,13,12) (deg):     90.0000     90.0000     90.0000
outcell: Cell volume (Ang**3)        :  13500.0000
<dSpData1D:S at geom step 1
  <sparsity:sparsity for geom step 1
    nrows_g=302 nrows=48 sparsity=.1088 nnzs=9923, refcount: 8>
  <dData1D:(new from dSpData1D) n=9923, refcount: 1>
refcount: 1>
new_DM -- step:     1
Initializing Density Matrix...

Attempting to read DM from file... Failed...
DM filled with atomic data:
<dSpData2D:DM initialized from atoms
  <sparsity:sparsity for geom step 1
    nrows_g=302 nrows=48 sparsity=.1088 nnzs=9923, refcount: 9>
  <dData2D:DM n=9923 m=8, refcount: 1>
refcount: 1>
     spin moment: S , {S} =   56.00000   0.00000   0.00000  56.00000
No. of atoms with KB's overlaping orbs in proc 0. Max # of overlaps:      28     205

Initializing spin-orbit part of the Hamiltonian
  Adding spin-orbit effects for H 
  Adding spin-orbit effects for N 
  Adding spin-orbit effects for Si
  Adding spin-orbit effects for O 


New grid distribution:   1
           1       1:  180    1:  125    1:   15
           2       1:  180    1:  125   16:   30
           3       1:  180    1:  125   31:   45
           4       1:  180    1:  125   46:   60
           5       1:  180  126:  250    1:   15
           6       1:  180  126:  250   16:   30
           7       1:  180  126:  250   31:   45
           8       1:  180  126:  250   46:   60

InitMesh: MESH =   360 x   500 x   120 =    21600000
InitMesh: (bp) =   180 x   250 x    60 =     2700000
InitMesh: Mesh cutoff (required, used) =   340.000   341.206 Ry
ExtMesh (bp) on 0 =   288 x   225 x   123 =     7970400
New grid distribution:   2
           1     155:  180   36:  229    1:   60
           2       1:  159    1:   19    1:   60
           3       1:  159   20:   35    1:   60
           4     160:  180   17:   35    1:   60
           5       1:  154   36:  230    1:   60
           6       1:  154  231:  250    1:   60
           7     155:  180  230:  250    1:   60
           8     160:  180    1:   16    1:   60
New grid distribution:   3
           1     147:  180   47:  221    1:   60
           2       1:  141    1:   24    1:   60
           3       1:  141   25:   46    1:   60
           4     142:  180    1:   24    1:   60
           5       1:  146   47:  224    1:   60
           6       1:  146  225:  250    1:   60
           7     147:  180  222:  250    1:   60
           8     142:  180   25:   46    1:   60
Setting up quadratic distribution...
ExtMesh (bp) on 0 =   134 x   294 x   168 =     6618528
PhiOnMesh: Number of (b)points on node 0 =               302640
PhiOnMesh: nlist on node 0 =              1658484

stepf: Fermi-Dirac step function

siesta: Program's energy decomposition (eV):
siesta: Ebs     =      -604.079725
siesta: Eions   =      3553.971015
siesta: Ena     =       375.532459
siesta: Ekin    =      3174.285506
siesta: Enl     =     -2988.323303
siesta: Eso     =        -0.003941
siesta: Edftu   =         0.000000
siesta: DEna    =       131.246522
siesta: DUscf   =        73.737853
siesta: DUext   =         0.000000
siesta: Exc     =     -1169.964918
siesta: eta*DQ  =         0.000000
siesta: Emadel  =         0.000000
siesta: Emeta   =         0.000000
siesta: Emolmec =         0.000000
siesta: Ekinion =         0.000000
siesta: Eharris =     -3885.649148
siesta: Etot    =     -3957.460837
siesta: FreeEng =     -3957.464639

        iscf     Eharris(eV)        E_KS(eV)     FreeEng(eV)     dDmax    Ef(eV) dHmax(eV)
   scf:    1    -3885.649148    -3957.460837    -3957.464639  0.966935 -4.949389 21.039090
     spin moment: S , {S} =    2.02801  -0.00000  -0.00000   2.02801
timer: Routine,Calls,Time,% = IterSCF        1      11.841  32.69
   scf:    2    -4000.177142    -3990.755157    -3990.755159  0.454165 -4.259478 10.257644
     spin moment: S , {S} =    2.00011   0.00000  -0.00000   2.00011
   scf:    3    -3992.907624    -3995.651984    -3995.665524  0.425804 -4.103169  6.022498
     spin moment: S , {S} =    0.13703  -0.00000   0.00000   0.13703
   scf:    4    -3999.007283    -3997.506985    -3997.506986  0.028006 -3.759524  4.277723
     spin moment: S , {S} =    0.00009  -0.00000   0.00000   0.00009
   scf:    5    -3999.223635    -3998.400661    -3998.400701  0.032242 -3.685327  2.216586
     spin moment: S , {S} =    0.00019  -0.00000   0.00000   0.00019
   scf:    6    -3999.093769    -3998.749588    -3998.750614  0.028329 -3.719050  0.874215
     spin moment: S , {S} =    0.00581  -0.00000   0.00000   0.00581
   scf:    7    -3998.937264    -3998.844636    -3998.848809  0.019042 -3.769618  0.508990
     spin moment: S , {S} =    0.00142  -0.00000  -0.00000   0.00142
   scf:    8    -3998.922553    -3998.886233    -3998.887606  0.008256 -3.794550  0.203669
     spin moment: S , {S} =    0.00312  -0.00000   0.00000  -0.00312
   scf:    9    -3998.913587    -3998.899348    -3998.900692  0.005518 -3.800278  0.115997
     spin moment: S , {S} =    0.00379  -0.00000   0.00000  -0.00379
   scf:   10    -3998.921949    -3998.909849    -3998.910925  0.007117 -3.803786  0.080225
     spin moment: S , {S} =    0.00233  -0.00000  -0.00000  -0.00233
   scf:   11    -3998.922061    -3998.915274    -3998.916316  0.006900 -3.804580  0.061104
     spin moment: S , {S} =    0.00134  -0.00000  -0.00000  -0.00134
   scf:   12    -3998.919650    -3998.917097    -3998.918198  0.005694 -3.803386  0.025693
     spin moment: S , {S} =    0.00049  -0.00000  -0.00000  -0.00049
   scf:   13    -3998.917730    -3998.917372    -3998.918504  0.002359 -3.802582  0.017290
     spin moment: S , {S} =    0.00031  -0.00000  -0.00000  -0.00031
   scf:   14    -3998.917626    -3998.917490    -3998.918608  0.001296 -3.801889  0.012404
     spin moment: S , {S} =    0.00020  -0.00000  -0.00000  -0.00020
   scf:   15    -3998.917653    -3998.917562    -3998.918677  0.001296 -3.801364  0.008224
     spin moment: S , {S} =    0.00010  -0.00000  -0.00000  -0.00010
   scf:   16    -3998.917640    -3998.917597    -3998.918708  0.000975 -3.801094  0.004817
     spin moment: S , {S} =    0.00003  -0.00000  -0.00000  -0.00003
   scf:   17    -3998.917619    -3998.917607    -3998.918716  0.000399 -3.801124  0.003730
     spin moment: S , {S} =    0.00002  -0.00000  -0.00000  -0.00002
   scf:   18    -3998.917616    -3998.917610    -3998.918721  0.000519 -3.801238  0.001532
     spin moment: S , {S} =    0.00002  -0.00000  -0.00000  -0.00002
   scf:   19    -3998.917611    -3998.917611    -3998.918721  0.000100 -3.801288  0.001066
     spin moment: S , {S} =    0.00002  -0.00000  -0.00000  -0.00002
   scf:   20    -3998.917612    -3998.917611    -3998.918722  0.000135 -3.801321  0.000454
     spin moment: S , {S} =    0.00002  -0.00000  -0.00000  -0.00002
   scf:   21    -3998.917612    -3998.917612    -3998.918722  0.000083 -3.801327  0.000186
     spin moment: S , {S} =    0.00001  -0.00000  -0.00000  -0.00001
   scf:   22    -3998.917611    -3998.917612    -3998.918722  0.000021 -3.801331  0.000156
     spin moment: S , {S} =    0.00000  -0.00000  -0.00000  -0.00000
   scf:   23    -3998.917612    -3998.917612    -3998.918722  0.000011 -3.801331  0.000102
     spin moment: S , {S} =    0.00000  -0.00000  -0.00000  -0.00000
   scf:   24    -3998.917612    -3998.917612    -3998.918722  0.000012 -3.801333  0.000050
     spin moment: S , {S} =    0.00000  -0.00000  -0.00000  -0.00000
mix: Pulay -- resetting history
   scf:   25    -3998.917612    -3998.917612    -3998.918722  0.000004 -3.801332  0.000035
     spin moment: S , {S} =    0.00000  -0.00000  -0.00000  -0.00000
   scf:   26    -3998.917612    -3998.917612    -3998.918722  0.000005 -3.801330  0.000032
     spin moment: S , {S} =    0.00000   0.00000  -0.00000  -0.00000
   scf:   27    -3998.917612    -3998.917612    -3998.918722  0.000002 -3.801329  0.000027
     spin moment: S , {S} =    0.00000  -0.00000  -0.00000  -0.00000
   scf:   28    -3998.917612    -3998.917612    -3998.918722  0.000003 -3.801329  0.000017
     spin moment: S , {S} =    0.00000  -0.00000  -0.00000  -0.00000
   scf:   29    -3998.917612    -3998.917612    -3998.918722  0.000003 -3.801330  0.000007
     spin moment: S , {S} =    0.00000  -0.00000  -0.00000  -0.00000
   scf:   30    -3998.917612    -3998.917612    -3998.918722  0.000001 -3.801330  0.000002
     spin moment: S , {S} =    0.00000  -0.00000  -0.00000  -0.00000
   scf:   31    -3998.917612    -3998.917612    -3998.918722  0.000000 -3.801330  0.000001
     spin moment: S , {S} =    0.00000  -0.00000  -0.00000  -0.00000
   scf:   32    -3998.917612    -3998.917612    -3998.918722  0.000000 -3.801330  0.000001
     spin moment: S , {S} =    0.00000  -0.00000  -0.00000  -0.00000

SCF Convergence by DM+H criterion
max |DM_out - DM_in|         :     0.0000001445
max |H_out - H_in|      (eV) :     0.0000008255
SCF cycle converged after 32 iterations

Using DM_out to compute the final energy and forces
No. of atoms with KB's overlaping orbs in proc 0. Max # of overlaps:      28     205

siesta: E_KS(eV) =            -3998.9176

siesta: E_KS - E_eggbox =     -3998.9176
     spin moment: S , {S} =    0.00000  -0.00000  -0.00000  -0.00000

siesta: Atomic forces (eV/Ang):
     1    0.142900   -0.053141   -0.000004
     2    0.023931    0.009744   -0.000012
     3    0.016722   -0.011321   -0.000002
     4    0.065622   -0.134095    0.000003
     5    0.023134    0.043068   -0.000018
     6    0.083870   -0.022164    0.000003
     7   -0.552386   -0.166036   -0.000061
     8    0.706980   -2.766290    0.000221
     9    0.005656   -0.020327   -0.000103
    10    0.056241   -0.300564   -0.000068
    11    0.107315   -0.019895    0.000012
    12    0.175702   -0.048238   -0.000000
    13   -0.157656   -0.011702    0.000005
    14   -0.026007    0.078068   -0.000012
    15   -0.027891   -0.084525    0.000053
    16   -0.090185   -0.059224   -0.000915
    17   -0.001565    0.047151   -0.000745
    18    0.095991    0.010580    0.005248
    19    0.026526   -0.146762   -0.001409
    20   -0.051498   -0.079883   -0.001312
    21    0.064650    0.025231   -0.004631
    22    0.078260    0.012932    0.121125
    23    0.076096   -0.020697   -0.005288
    24    0.075379    0.050988   -0.097521
    25    0.403105    0.481978    0.000804
    26   -2.313545   -0.242653    0.000224
    27   -0.373496    0.641116   -0.000506
    28    0.088826   -0.658172   -0.000092
    29   -0.126338   -0.044977   -0.000125
    30    1.547932   -1.629293    0.000197
----------------------------------------
   Tot    0.144272   -5.119099    0.015070
----------------------------------------
   Max    2.766290
   Res    0.479478    sqrt( Sum f_i^2 / 3N )
----------------------------------------
   Max    2.766290    constrained

Stress tensor Voigt[x,y,z,yz,xz,xy] (kbar):        0.20       -1.13       -0.01       -0.01        0.00        0.27
(Free)E + p*V (eV/cell)    -3996.2724
Target enthalpy (eV/cell)    -3998.9187

siesta: Stress tensor (static) (eV/Ang**3):
         0.000124    0.000168    0.000000
         0.000168   -0.000706   -0.000004
         0.000000   -0.000004   -0.000007

siesta: Pressure (static):          0.31406455  kBar

siesta: Stress tensor (total) (eV/Ang**3):
         0.000124    0.000168    0.000000
         0.000168   -0.000706   -0.000004
         0.000000   -0.000004   -0.000007

siesta: Pressure (total):          0.31406455  kBar

siesta: Temp_ion =       0.000 K

siesta: Eigenvalues (eV):
ik =     1
  -23.6629  -23.6629  -22.7979  -22.7979  -21.7231  -21.7231  -21.0930  -21.0930  -20.8344  -20.8344
  -19.8311  -19.8311  -19.3242  -19.3242  -19.0647  -19.0647  -18.6310  -18.6310  -15.1731  -15.1731
  -14.2125  -14.2125  -13.6047  -13.6047  -13.4313  -13.4313  -13.3167  -13.3167  -12.6899  -12.6899
  -12.2978  -12.2978  -12.0529  -12.0529  -11.8816  -11.8816  -11.5733  -11.5733  -11.3238  -11.3238
  -10.7015  -10.7015  -10.6078  -10.6078  -10.0045  -10.0045   -9.5470   -9.5470   -9.4356   -9.4356
   -9.2183   -9.2183   -9.0017   -9.0017   -8.8518   -8.8518   -8.6736   -8.6736   -8.6694   -8.6694
   -8.4264   -8.4264   -8.3387   -8.3387   -8.2546   -8.2546   -8.1094   -8.1094   -7.9554   -7.9554
   -7.6872   -7.6872   -7.5383   -7.5383   -7.2750   -7.2750   -7.2078   -7.2078   -6.9386   -6.9386
   -6.7726   -6.7726   -6.5582   -6.5582   -6.4821   -6.4821   -6.2637   -6.2637   -6.0962   -6.0962
   -5.8702   -5.8702   -5.5065   -5.5065   -5.4186   -5.4186   -3.9708   -3.9708   -3.6319   -3.6319
   -2.8038   -2.8038   -2.3599   -2.3599   -2.3008   -2.3008   -2.0927   -2.0927   -1.9636   -1.9636
   -1.7974   -1.7974   -1.6798   -1.6798   -1.6401   -1.6401   -1.3509   -1.3509   -1.2300   -1.2300
   -1.1451   -1.1451   -0.3305   -0.3305   -0.2315   -0.2315   -0.1627   -0.1627   -0.0869   -0.0869
   -0.0794   -0.0794   -0.0136   -0.0136    0.1545    0.1545    0.6070    0.6070    0.7540    0.7540
    0.7649    0.7649    1.0689    1.0689    1.3177    1.3177    1.4405    1.4405    1.5075    1.5075
    1.7060    1.7060    1.7942    1.7942    2.1755    2.1755    2.3625    2.3625    2.4373    2.4373
    2.5738    2.5738    2.6444    2.6444    3.0010    3.0010    3.1084    3.1084    3.1666    3.1666
    3.2362    3.2362    3.3139    3.3139    3.3525    3.3525    3.5908    3.5908    3.6751    3.6751
    4.1064    4.1064    4.2868    4.2868    4.3153    4.3153    4.5663    4.5663    4.6547    4.6547
    4.8972    4.8972    5.0153    5.0153    5.1088    5.1088    5.1694    5.1694    5.2476    5.2476
    5.3581    5.3581    5.6071    5.6071    5.7932    5.7932    5.9842    5.9842    5.9955    5.9955
    6.2875    6.2875    6.3668    6.3668    6.6071    6.6071    6.6149    6.6149    6.7551    6.7551
    6.9912    6.9912    7.0768    7.0768    7.1733    7.1733    7.4912    7.4912    7.5015    7.5015
    7.7263    7.7263    7.8576    7.8576    7.9125    7.9125    8.1422    8.1422    8.2356    8.2356
    8.5100    8.5100    8.5562    8.5562    8.6817    8.6817    8.8673    8.8673    9.1134    9.1134
    9.3517    9.3517    9.3836    9.3836    9.6164    9.6164    9.6940    9.6940    9.7636    9.7636
    9.8698    9.8698   10.0886   10.0886   10.2727   10.2727   10.4145   10.4145   10.4495   10.4495
   10.8244   10.8244   11.3322   11.3322   11.3738   11.3738   11.4963   11.4963   11.6420   11.6420
   11.6506   11.6506   11.7694   11.7694   11.9727   11.9727   12.1604   12.1604   12.2082   12.2082
   12.4803   12.4803   12.6354   12.6354   12.8593   12.8593   13.0374   13.0374   13.2258   13.2258
   13.4300   13.4300   13.6565   13.6565   13.7886   13.7886   14.0206   14.0206   14.3655   14.3655
   14.6505   14.6505   14.7307   14.7307   15.0145   15.0145   15.1417   15.1417   15.4921   15.4921
   15.5967   15.5967   16.0185   16.0185   16.1709   16.1709   16.4488   16.4488   16.6507   16.6507
   17.1358   17.1358   17.2664   17.2664   17.4296   17.4296   17.7764   17.7764   18.0789   18.0789
   18.1621   18.1621   18.8850   18.8850   18.9394   18.9394   18.9735   18.9735   19.1564   19.1564
   19.2521   19.2521   19.9296   19.9296   20.1402   20.1402   20.5247   20.5247   21.0620   21.0620
   21.1310   21.1310   21.5725   21.5725   22.0552   22.0552   22.5410   22.5410   22.7055   22.7055
   23.0736   23.0736   23.2870   23.2870   23.3877   23.3877   23.9095   23.9095   24.8333   24.8333
   24.9506   24.9506   25.1433   25.1433   25.7996   25.7996   25.8675   25.8675   26.5410   26.5410
   26.6977   26.6977   27.0573   27.0573   27.4117   27.4117   28.1819   28.1819   28.9489   28.9489
   29.2579   29.2579   29.9426   29.9426   31.0533   31.0533   31.0728   31.0729   31.3600   31.3600
   31.5098   31.5098   31.5406   31.5406   31.7078   31.7078   31.9350   31.9350   32.4679   32.4679
   33.5454   33.5454   33.7959   33.7959   33.8800   33.8800   34.6351   34.6351   34.6680   34.6680
   35.4068   35.4068   36.2089   36.2089   36.5263   36.5263   37.1031   37.1031   37.3831   37.3831
   37.4632   37.4632   37.9789   37.9789   38.4363   38.4363   39.0046   39.0046   39.3153   39.3153
   39.6212   39.6212   40.2789   40.2789   40.5088   40.5088   41.1085   41.1085   41.6000   41.6000
   41.7675   41.7675   42.1415   42.1415   42.5101   42.5101   43.3951   43.3951   43.6685   43.6685
   44.0672   44.0672   44.1816   44.1816   44.4293   44.4293   44.9109   44.9109   45.0557   45.0557
   45.6793   45.6793   46.2348   46.2348   46.5898   46.5898   46.7374   46.7374   47.3086   47.3086
   48.0074   48.0074   48.2303   48.2303   48.3136   48.3136   49.2703   49.2703   49.3260   49.3260
   49.8684   49.8684   50.1621   50.1621   50.2838   50.2838   50.6965   50.6965   51.0998   51.0998
   51.1783   51.1783   52.0368   52.0368   53.2285   53.2285   54.1552   54.1552   54.5165   54.5165
   54.6722   54.6722   55.6094   55.6094   56.0738   56.0738   56.1807   56.1807   57.2673   57.2673
   57.5309   57.5309   57.7497   57.7497   57.8570   57.8570   59.6600   59.6600   60.0047   60.0047
   60.7200   60.7200   61.5978   61.5978   61.9495   61.9495   63.1248   63.1248   63.8221   63.8221
   64.3992   64.3992   65.1163   65.1163   65.7473   65.7473   66.8727   66.8727   67.1241   67.1241
   67.9793   67.9793   68.9228   68.9228   69.9140   69.9140   72.2004   72.2004   74.7430   74.7430
   77.8725   77.8725   79.8710   79.8710   88.2184   88.2184   89.1516   89.1516   93.7473   93.7473
   95.1111   95.1111   96.7559   96.7559   97.9970   97.9970  100.9413  100.9413  103.2454  103.2454
  103.6128  103.6128  110.2065  110.2065  120.4561  120.4561  124.6266  124.6266  125.3551  125.3551
  140.9954  140.9954  148.8857  148.8857
siesta: Fermi energy =      -3.801330 eV

siesta: Program's energy decomposition (eV):
siesta: Ebs     =     -1107.802244
siesta: Eions   =      3553.971015
siesta: Ena     =       375.532459
siesta: Ekin    =      2753.749917
siesta: Enl     =     -2531.594115
siesta: Eso     =        -0.004741
siesta: Edftu   =         0.000000
siesta: DEna    =        37.733186
siesta: DUscf   =        13.664927
siesta: DUext   =         0.000000
siesta: Exc     =     -1094.028230
siesta: eta*DQ  =         0.000000
siesta: Emadel  =         0.000000
siesta: Emeta   =         0.000000
siesta: Emolmec =         0.000000
siesta: Ekinion =         0.000000
siesta: Eharris =     -3998.917612
siesta: Etot    =     -3998.917612
siesta: FreeEng =     -3998.918722

siesta: Final energy (eV):
siesta:  Band Struct. =   -1107.802244
siesta:       Kinetic =    2753.749917
siesta:       Hartree =   15265.798772
siesta:       Edftu   =       0.000000
siesta:       Eso     =      -0.004741
siesta:    Ext. field =       0.000000
siesta:   Exch.-corr. =   -1094.028230
siesta:  Ion-electron =  -32973.085566
siesta:       Ion-ion =   12048.652237
siesta:       Ekinion =       0.000000
siesta:         Total =   -3998.917612
siesta:         Fermi =      -3.801330

siesta: Atomic forces (eV/Ang):
siesta:      1    0.142900   -0.053141   -0.000004
siesta:      2    0.023931    0.009744   -0.000012
siesta:      3    0.016722   -0.011321   -0.000002
siesta:      4    0.065622   -0.134095    0.000003
siesta:      5    0.023134    0.043068   -0.000018
siesta:      6    0.083870   -0.022164    0.000003
siesta:      7   -0.552386   -0.166036   -0.000061
siesta:      8    0.706980   -2.766290    0.000221
siesta:      9    0.005656   -0.020327   -0.000103
siesta:     10    0.056241   -0.300564   -0.000068
siesta:     11    0.107315   -0.019895    0.000012
siesta:     12    0.175702   -0.048238   -0.000000
siesta:     13   -0.157656   -0.011702    0.000005
siesta:     14   -0.026007    0.078068   -0.000012
siesta:     15   -0.027891   -0.084525    0.000053
siesta:     16   -0.090185   -0.059224   -0.000915
siesta:     17   -0.001565    0.047151   -0.000745
siesta:     18    0.095991    0.010580    0.005248
siesta:     19    0.026526   -0.146762   -0.001409
siesta:     20   -0.051498   -0.079883   -0.001312
siesta:     21    0.064650    0.025231   -0.004631
siesta:     22    0.078260    0.012932    0.121125
siesta:     23    0.076096   -0.020697   -0.005288
siesta:     24    0.075379    0.050988   -0.097521
siesta:     25    0.403105    0.481978    0.000804
siesta:     26   -2.313545   -0.242653    0.000224
siesta:     27   -0.373496    0.641116   -0.000506
siesta:     28    0.088826   -0.658172   -0.000092
siesta:     29   -0.126338   -0.044977   -0.000125
siesta:     30    1.547932   -1.629293    0.000197
siesta: ----------------------------------------
siesta:    Tot    0.144272   -5.119099    0.015070

siesta: Stress tensor (static) (eV/Ang**3):
siesta:     0.000124    0.000168    0.000000
siesta:     0.000168   -0.000706   -0.000004
siesta:     0.000000   -0.000004   -0.000007

siesta: Cell volume =      13500.000000 Ang**3

siesta: Pressure (static):
siesta:                Solid            Molecule  Units
siesta:           0.00000213         -0.00000038  Ry/Bohr**3
siesta:           0.00019602         -0.00003450  eV/Ang**3
siesta:           0.31406455         -0.05527149  kBar
(Free)E+ p_basis*V_orbitals  =       -3977.790637
(Free)Eharris+ p_basis*V_orbitals  =       -3977.790637
     spin moment: S , {S} =    0.00000  -0.00000  -0.00000  -0.00000

siesta: Electric dipole (a.u.)  =   -1.155868    2.050356   -0.001728
siesta: Electric dipole (Debye) =   -2.937925    5.211488   -0.004392

cite: Please see "AT.bib" for an exhaustive BiBTeX file.
cite: Please clearly indicate Siesta version in published work: v4.1.5-1-g384057250
cite: This calculation has made use of the following articles
cite: which are encouraged to be cited in a published work.
        Primary SIESTA paper
          DOI: www.doi.org/10.1088/0953-8984/14/11/302
        Spin-orbit coupling (on-site approximation)
          DOI: www.doi.org/10.1088/0953-8984/19/19/489001


WARNING: alloc-realloc-dealloc name mismatch
         Name: atomlist isa
         Size:              -120. Bytes
         Node:     0
         Subsequent mismatches will not be reported
>> End of run:   1-FEB-2024  18:08:04
Job completed
