Siesta Version  : v4.1.5-1-g384057250
Architecture    : gcc
Compiler version: GNU Fortran (Debian 10.2.1-6) 10.2.1 20210110
Compiler flags  : mpifort -O2 -fPIC -ftree-vectorize -fallow-argument-mismatch
PP flags        : -DFC_HAVE_ABORT -DMPI -DSIESTA__FLOOK -DSIESTA__METIS -DSIESTA__MUMPS -DCDF -DNCDF -DNCDF_4 -DNCDF_PARALLEL -DSIESTA__MRRR -DSIESTA__ELPA
Libraries       : libncdf.a libfdict.a  -lflookall -ldl -lnetcdff -lnetcdf -lhdf5_hl -lhdf5 -lhdf5_fortran -lz -lscalapack-openmpi -lopenblas -lmetis -lzmumps -lcmumps -ldmumps -lmumps_common -lpord -lsmumps -lesmumps -lscotch -lscotcherr -fopenmp -lelpa
PARALLEL version
NetCDF support
NetCDF-4 support
NetCDF-4 MPI-IO support
METIS ordering support
Lua support

* Running on 6 nodes in parallel
>> Start of run:  16-OCT-2023  18:58:27

                           ***********************       
                           *  WELCOME TO SIESTA  *       
                           ***********************       

reinit: Reading from standard input
reinit: Dumped input in INPUT_TMP.63039
************************** Dump of input data file ****************************
# mpirun -np 4 siesta-4.1.5 < GC.fdf > GC.out &
SystemLabel      GC
NumberOfAtoms    29
NumberOfSpecies  4
%block ChemicalSpeciesLabel
    1    1  H
    2    7  N
    3   14  Si
    4    8  O
%endblock ChemicalSpeciesLabel
############################################
# This overrides Defaults.fdf configuration
############################################
MD.TypeOfRun                CG # CG, Verlet
MD.Steps                    0
MaxSCFIterations            600
AtomicCoordinatesFormat NotScaledCartesianAng
%block AtomicCoordinatesAndAtomicSpecies
    -0.6453570594893876 6.097476561558196 0.0  1  1  H
    -1.3518437894893875 5.307440381558196 0.0  2  2  N
    -3.0821306994893876 5.748804291558196 0.0  3  3  Si
    -3.2379103794893878 7.238796551558195 0.0  1  4  H
    -4.6054523194893875 4.189896771558196 0.0  3  5  Si
    -6.088639949489388 4.432727131558195 0.0  1  6  H
    -3.4070614594893875 2.2766206115581955 0.0  3  7  Si
    -4.173086919489387 0.7439038715581956 0.0  2  8  N
    -3.5828403694893876 -0.21330915844180431 0.0  1  9  H
    -5.224709239489387 0.6634436415581957 0.0  1  10  H
    -1.6908613994893875 2.3317949215581955 0.0  2  11  N
    -0.6158387794893876 3.662133761558196 0.0  3  12  Si
    0.9928345405106123 3.6433235015581955 0.0  4  13  O
    5.6164483 -7.44953905 0.0  1  14  H
    4.58206954 -7.2320376 0.0  2  15  N
    3.29666389 -8.492636 0.0  3  16  Si
    3.80117524 -9.90371886 -0.0  1  17  H
    1.65934232 -8.01362137 0.0  2  18  N
    1.68097912 -6.20463398 -0.0  3  19  Si
    0.54543521 -4.28636135 0.0  3  20  Si
    -1.03431493 -3.94450034 0.0  4  21  O
    1.73226934 -2.87719605 0.0  2  22  N
    1.20957366 -1.92961761 -0.0  1  23  H
    3.50853448 -2.77677601 0.0  3  24  Si
    4.13684451 -1.17938608 0.0  2  25  N
    3.54296161 -0.26248101 0.0  1  26  H
    5.18364407 -1.05231197 -0.0  1  27  H
    4.63288658 -4.07521596 -0.0  2  28  N
    3.79410501 -5.58634043 0.0  3  29  Si
%endblock AtomicCoordinatesAndAtomicSpecies
%include ../../../../Defaults.fdf
************************** End of input data file *****************************

reinit: -----------------------------------------------------------------------
reinit: System Name: 
reinit: -----------------------------------------------------------------------
reinit: System Label: GC
reinit: -----------------------------------------------------------------------

initatom: Reading input for the pseudopotentials and atomic orbitals ----------
Species number:   1 Atomic number:    1 Label: H
Species number:   2 Atomic number:    7 Label: N
Species number:   3 Atomic number:   14 Label: Si
Species number:   4 Atomic number:    8 Label: O

Ground state valence configuration:   1s01
Reading pseudopotential information in formatted form from H.psf

Pseudopotential generated from a relativistic atomic calculation

Valence configuration for pseudopotential generation:
1s( 1.00) rc: 0.01
2p( 0.00) rc: 0.60
3d( 0.00) rc: 1.99
4f( 0.00) rc: 2.49
Ground state valence configuration:   2s02  2p03
Reading pseudopotential information in formatted form from N.psf

Pseudopotential generated from a relativistic atomic calculation

Valence configuration for pseudopotential generation:
2s( 2.00) rc: 0.94
2p( 3.00) rc: 0.59
3d( 0.00) rc: 3.46
4f( 0.00) rc: 2.47
Ground state valence configuration:   3s02  3p02
Reading pseudopotential information in formatted form from Si.psf

Pseudopotential generated from a relativistic atomic calculation

Valence configuration for pseudopotential generation:
3s( 2.00) rc: 1.67
3p( 2.00) rc: 2.04
3d( 0.00) rc: 2.89
4f( 0.00) rc: 2.49
Ground state valence configuration:   2s02  2p04
Reading pseudopotential information in formatted form from O.psf

Pseudopotential generated from a relativistic atomic calculation

Valence configuration for pseudopotential generation:
2s( 2.00) rc: 0.45
2p( 4.00) rc: 0.92
3d( 0.00) rc: 2.24
4f( 0.00) rc: 0.25
For H, standard SIESTA heuristics set lmxkb to 2
 (one more than the basis l, including polarization orbitals).
Use PS.lmax or PS.KBprojectors blocks to override.
For N, standard SIESTA heuristics set lmxkb to 3
 (one more than the basis l, including polarization orbitals).
Use PS.lmax or PS.KBprojectors blocks to override.
For Si, standard SIESTA heuristics set lmxkb to 3
 (one more than the basis l, including polarization orbitals).
Use PS.lmax or PS.KBprojectors blocks to override.
For O, standard SIESTA heuristics set lmxkb to 3
 (one more than the basis l, including polarization orbitals).
Use PS.lmax or PS.KBprojectors blocks to override.

<basis_specs>
===============================================================================
H                    Z=   1    Mass=  1.0100        Charge= 0.17977+309
Lmxo=0 Lmxkb= 2    BasisType=split      Semic=F
L=0  Nsemic=0  Cnfigmx=1
          i=1  nzeta=2  polorb=1  (1s)
            splnorm:   0.62000    
               vcte:    0.0000    
               rinn:    0.0000    
               qcoe:    0.0000    
               qyuk:    0.0000    
               qwid:   0.10000E-01
                rcs:    0.0000      0.0000    
            lambdas:    1.0000      1.0000    
-------------------------------------------------------------------------------
L=0  Nkbl=1  erefs: 0.17977+309
L=1  Nkbl=1  erefs: 0.17977+309
L=2  Nkbl=1  erefs: 0.17977+309
===============================================================================
</basis_specs>

atom: Called for H                     (Z =   1)

read_vps: Pseudopotential generation method:
read_vps: ATM4.2.7  Troullier-Martins                       
Valence charge for ps generation:    1.00000

xc_check: Exchange-correlation functional:
xc_check: GGA Perdew, Burke & Ernzerhof 1996
V l=0 = -2*Zval/r beyond r=  0.0098
V l=1 = -2*Zval/r beyond r=  0.5817
V l=2 = -2*Zval/r beyond r=  1.9372
All V_l potentials equal beyond r=  1.9372
This should be close to max(r_c) in ps generation
All pots = -2*Zval/r beyond r=  1.9372

VLOCAL1: 99.0% of the norm of Vloc inside     11.567 Ry
VLOCAL1: 99.9% of the norm of Vloc inside     26.362 Ry
atom: Maximum radius for 4*pi*r*r*local-pseudopot. charge    2.25106
atom: Maximum radius for r*vlocal+2*Zval:    1.91306
GHOST: No ghost state for L =  0
GHOST: No ghost state for L =  1
GHOST: No ghost state for L =  2

KBgen: Kleinman-Bylander projectors: 
   l= 0   rc=  2.036604   el= -0.477180   Ekb= -6.081590   kbcos= -0.277285
   l= 1   rc=  2.195416   el=  0.001076   Ekb= -0.926943   kbcos= -0.034643
   l= 2   rc=  2.251056   el=  0.002010   Ekb= -0.130941   kbcos= -0.009788

KBgen: Total number of Kleinman-Bylander projectors:    9
atom: -------------------------------------------------------------------------

atom: SANKEY-TYPE ORBITALS:
atom: Selected multiple-zeta basis: split     

SPLIT: Orbitals with angular momentum L= 0

SPLIT: Basis orbitals for state 1s

SPLIT: PAO cut-off radius determined from an
SPLIT: energy shift=  0.002000 Ry

   izeta = 1
                 lambda =    1.000000
                     rc =    6.518340
                 energy =   -0.475305
                kinetic =    0.912139
    potential(screened) =   -1.387444
       potential(ionic) =   -1.907295

   izeta = 2
                 rmatch =    2.141150
              splitnorm =    0.620000
                 energy =    0.566467
                kinetic =    3.772856
    potential(screened) =   -3.206389
       potential(ionic) =   -3.759093

POLgen: Perturbative polarization orbital with L=  1

POLgen: Polarization orbital for state 1s

   izeta = 1
                     rc =    6.518340
                 energy =    0.533861
                kinetic =    1.121086
    potential(screened) =   -0.587225
       potential(ionic) =   -1.053027
atom: Total number of Sankey-type orbitals:  5

atm_pop: Valence configuration (for local Pseudopot. screening):
 1s( 1.00)                                                            
Vna: chval, zval:    1.00000   1.00000

Vna:  Cut-off radius for the neutral-atom potential:   6.518340

atom: _________________________________________________________________________

<basis_specs>
===============================================================================
N                    Z=   7    Mass=  14.010        Charge= 0.17977+309
Lmxo=1 Lmxkb= 3    BasisType=split      Semic=F
L=0  Nsemic=0  Cnfigmx=2
          i=1  nzeta=2  polorb=0  (2s)
            splnorm:   0.28000    
               vcte:    0.0000    
               rinn:    0.0000    
               qcoe:    0.0000    
               qyuk:    0.0000    
               qwid:   0.10000E-01
                rcs:    0.0000      0.0000    
            lambdas:    1.0000      1.0000    
L=1  Nsemic=0  Cnfigmx=2
          i=1  nzeta=2  polorb=1  (2p)
            splnorm:   0.28000    
               vcte:    0.0000    
               rinn:    0.0000    
               qcoe:    0.0000    
               qyuk:    0.0000    
               qwid:   0.10000E-01
                rcs:    0.0000      0.0000    
            lambdas:    1.0000      1.0000    
-------------------------------------------------------------------------------
L=0  Nkbl=1  erefs: 0.17977+309
L=1  Nkbl=1  erefs: 0.17977+309
L=2  Nkbl=1  erefs: 0.17977+309
L=3  Nkbl=1  erefs: 0.17977+309
===============================================================================
</basis_specs>

atom: Called for N                     (Z =   7)

read_vps: Pseudopotential generation method:
read_vps: ATM4.2.7  Troullier-Martins                       
Valence charge for ps generation:    5.00000

xc_check: Exchange-correlation functional:
xc_check: GGA Perdew, Burke & Ernzerhof 1996
V l=0 = -2*Zval/r beyond r=  1.2889
V l=1 = -2*Zval/r beyond r=  1.2889
V l=2 = -2*Zval/r beyond r=  3.4178
V l=3 = -2*Zval/r beyond r=  2.4084
All V_l potentials equal beyond r=  3.3753
This should be close to max(r_c) in ps generation
All pots = -2*Zval/r beyond r=  3.4178

VLOCAL1: 99.0% of the norm of Vloc inside      3.810 Ry
VLOCAL1: 99.9% of the norm of Vloc inside      8.683 Ry
atom: Maximum radius for 4*pi*r*r*local-pseudopot. charge    4.02088
atom: Maximum radius for r*vlocal+2*Zval:    3.54838
GHOST: No ghost state for L =  0
GHOST: No ghost state for L =  1
GHOST: No ghost state for L =  2
GHOST: No ghost state for L =  3

KBgen: Kleinman-Bylander projectors: 
   l= 0   rc=  3.417763   el= -1.365098   Ekb= -4.433130   kbcos= -0.707855
   l= 1   rc=  3.375302   el= -0.521201   Ekb=-13.264039   kbcos= -0.535594
   l= 2   rc=  3.872880   el=  0.001991   Ekb= -0.641094   kbcos= -0.062456
   l= 3   rc=  3.970931   el=  0.003093   Ekb= -0.474517   kbcos= -0.018236

KBgen: Total number of Kleinman-Bylander projectors:   16
atom: -------------------------------------------------------------------------

atom: SANKEY-TYPE ORBITALS:
atom: Selected multiple-zeta basis: split     

SPLIT: Orbitals with angular momentum L= 0

SPLIT: Basis orbitals for state 2s

SPLIT: PAO cut-off radius determined from an
SPLIT: energy shift=  0.002000 Ry

   izeta = 1
                 lambda =    1.000000
                     rc =    4.730425
                 energy =   -1.363399
                kinetic =    1.245246
    potential(screened) =   -2.608645
       potential(ionic) =   -8.121105

   izeta = 2
                 rmatch =    2.531849
              splitnorm =    0.280000
                 energy =   -0.959908
                kinetic =    2.409435
    potential(screened) =   -3.369343
       potential(ionic) =   -9.427975

SPLIT: Orbitals with angular momentum L= 1

SPLIT: Basis orbitals for state 2p

SPLIT: PAO cut-off radius determined from an
SPLIT: energy shift=  0.002000 Ry

   izeta = 1
                 lambda =    1.000000
                     rc =    5.924108
                 energy =   -0.519262
                kinetic =    3.672940
    potential(screened) =   -4.192202
       potential(ionic) =   -9.518354

   izeta = 2
                 rmatch =    2.531849
              splitnorm =    0.280000
                 energy =   -0.104258
                kinetic =    6.807538
    potential(screened) =   -6.911796
       potential(ionic) =  -13.149920

POLgen: Perturbative polarization orbital with L=  2

POLgen: Polarization orbital for state 2p

   izeta = 1
                     rc =    5.924108
                 energy =    1.427508
                kinetic =    2.872379
    potential(screened) =   -1.444871
       potential(ionic) =   -5.563644
atom: Total number of Sankey-type orbitals: 13

atm_pop: Valence configuration (for local Pseudopot. screening):
 2s( 2.00)                                                            
 2p( 3.00)                                                            
Vna: chval, zval:    5.00000   5.00000

Vna:  Cut-off radius for the neutral-atom potential:   5.924108

atom: _________________________________________________________________________

<basis_specs>
===============================================================================
Si                   Z=  14    Mass=  28.090        Charge= 0.17977+309
Lmxo=1 Lmxkb= 3    BasisType=split      Semic=F
L=0  Nsemic=0  Cnfigmx=3
          i=1  nzeta=2  polorb=0  (3s)
            splnorm:   0.28000    
               vcte:    0.0000    
               rinn:    0.0000    
               qcoe:    0.0000    
               qyuk:    0.0000    
               qwid:   0.10000E-01
                rcs:    0.0000      0.0000    
            lambdas:    1.0000      1.0000    
L=1  Nsemic=0  Cnfigmx=3
          i=1  nzeta=2  polorb=1  (3p)
            splnorm:   0.28000    
               vcte:    0.0000    
               rinn:    0.0000    
               qcoe:    0.0000    
               qyuk:    0.0000    
               qwid:   0.10000E-01
                rcs:    0.0000      0.0000    
            lambdas:    1.0000      1.0000    
-------------------------------------------------------------------------------
L=0  Nkbl=1  erefs: 0.17977+309
L=1  Nkbl=1  erefs: 0.17977+309
L=2  Nkbl=1  erefs: 0.17977+309
L=3  Nkbl=1  erefs: 0.17977+309
===============================================================================
</basis_specs>

atom: Called for Si                    (Z =  14)

read_vps: Pseudopotential generation method:
read_vps: ATM4.2.7  Troullier-Martins                       
Valence charge for ps generation:    4.00000

xc_check: Exchange-correlation functional:
xc_check: GGA Perdew, Burke & Ernzerhof 1996
V l=0 = -2*Zval/r beyond r=  2.7826
V l=1 = -2*Zval/r beyond r=  2.7826
V l=2 = -2*Zval/r beyond r=  2.9253
V l=3 = -2*Zval/r beyond r=  2.7826
All V_l potentials equal beyond r=  2.8530
This should be close to max(r_c) in ps generation
All pots = -2*Zval/r beyond r=  2.9253

VLOCAL1: 99.0% of the norm of Vloc inside      5.333 Ry
VLOCAL1: 99.9% of the norm of Vloc inside     12.154 Ry
atom: Maximum radius for 4*pi*r*r*local-pseudopot. charge    3.39869
atom: Maximum radius for r*vlocal+2*Zval:    2.96205
GHOST: No ghost state for L =  0
GHOST: No ghost state for L =  1
GHOST: No ghost state for L =  2
GHOST: No ghost state for L =  3

KBgen: Kleinman-Bylander projectors: 
   l= 0   rc=  3.075247   el= -0.794092   Ekb=  5.879390   kbcos=  0.167461
   l= 1   rc=  3.153101   el= -0.300068   Ekb=  2.642817   kbcos=  0.058301
   l= 2   rc=  3.273594   el=  0.001958   Ekb= -1.185135   kbcos= -0.104411
   l= 3   rc=  3.232927   el=  0.003046   Ekb= -0.497174   kbcos= -0.015889

KBgen: Total number of Kleinman-Bylander projectors:   16
atom: -------------------------------------------------------------------------

atom: SANKEY-TYPE ORBITALS:
atom: Selected multiple-zeta basis: split     

SPLIT: Orbitals with angular momentum L= 0

SPLIT: Basis orbitals for state 3s

SPLIT: PAO cut-off radius determined from an
SPLIT: energy shift=  0.002000 Ry

   izeta = 1
                 lambda =    1.000000
                     rc =    6.429618
                 energy =   -0.792283
                kinetic =    0.525293
    potential(screened) =   -1.317576
       potential(ionic) =   -3.744923

   izeta = 2
                 rmatch =    3.998416
              splitnorm =    0.280000
                 energy =   -0.583081
                kinetic =    1.069570
    potential(screened) =   -1.652651
       potential(ionic) =   -4.235185

SPLIT: Orbitals with angular momentum L= 1

SPLIT: Basis orbitals for state 3p

SPLIT: PAO cut-off radius determined from an
SPLIT: energy shift=  0.002000 Ry

   izeta = 1
                 lambda =    1.000000
                     rc =    8.464845
                 energy =   -0.298236
                kinetic =    0.785360
    potential(screened) =   -1.083596
       potential(ionic) =   -3.273779

   izeta = 2
                 rmatch =    4.587816
              splitnorm =    0.280000
                 energy =   -0.131871
                kinetic =    1.403687
    potential(screened) =   -1.535557
       potential(ionic) =   -4.015310

POLgen: Perturbative polarization orbital with L=  2

POLgen: Polarization orbital for state 3p

   izeta = 1
                     rc =    8.464845
                 energy =    0.321949
                kinetic =    1.055677
    potential(screened) =   -0.733728
       potential(ionic) =   -2.672950
atom: Total number of Sankey-type orbitals: 13

atm_pop: Valence configuration (for local Pseudopot. screening):
 3s( 2.00)                                                            
 3p( 2.00)                                                            
Vna: chval, zval:    4.00000   4.00000

Vna:  Cut-off radius for the neutral-atom potential:   8.464845

atom: _________________________________________________________________________

<basis_specs>
===============================================================================
O                    Z=   8    Mass=  16.000        Charge= 0.17977+309
Lmxo=1 Lmxkb= 3    BasisType=split      Semic=F
L=0  Nsemic=0  Cnfigmx=2
          i=1  nzeta=2  polorb=0  (2s)
            splnorm:   0.28000    
               vcte:    0.0000    
               rinn:    0.0000    
               qcoe:    0.0000    
               qyuk:    0.0000    
               qwid:   0.10000E-01
                rcs:    0.0000      0.0000    
            lambdas:    1.0000      1.0000    
L=1  Nsemic=0  Cnfigmx=2
          i=1  nzeta=2  polorb=1  (2p)
            splnorm:   0.28000    
               vcte:    0.0000    
               rinn:    0.0000    
               qcoe:    0.0000    
               qyuk:    0.0000    
               qwid:   0.10000E-01
                rcs:    0.0000      0.0000    
            lambdas:    1.0000      1.0000    
-------------------------------------------------------------------------------
L=0  Nkbl=1  erefs: 0.17977+309
L=1  Nkbl=1  erefs: 0.17977+309
L=2  Nkbl=1  erefs: 0.17977+309
L=3  Nkbl=1  erefs: 0.17977+309
===============================================================================
</basis_specs>

atom: Called for O                     (Z =   8)

read_vps: Pseudopotential generation method:
read_vps: ATM4.2.7  Troullier-Martins                       
Valence charge for ps generation:    6.00000

xc_check: Exchange-correlation functional:
xc_check: GGA Perdew, Burke & Ernzerhof 1996
V l=0 = -2*Zval/r beyond r=  1.1000
V l=1 = -2*Zval/r beyond r=  1.1000
V l=2 = -2*Zval/r beyond r=  2.2154
V l=3 = -2*Zval/r beyond r=  1.1000
All V_l potentials equal beyond r=  2.2154
This should be close to max(r_c) in ps generation
All pots = -2*Zval/r beyond r=  2.2154

VLOCAL1: 99.0% of the norm of Vloc inside      8.845 Ry
VLOCAL1: 99.9% of the norm of Vloc inside     20.157 Ry
atom: Maximum radius for 4*pi*r*r*local-pseudopot. charge    2.67231
atom: Maximum radius for r*vlocal+2*Zval:    2.32897
GHOST: No ghost state for L =  0
GHOST: No ghost state for L =  1
GHOST: No ghost state for L =  2
GHOST: No ghost state for L =  3

KBgen: Kleinman-Bylander projectors: 
   l= 0   rc=  2.243238   el= -1.759686   Ekb=**********   kbcos= -0.171774
   l= 1   rc=  2.328968   el= -0.663873   Ekb=-14.506792   kbcos= -0.519897
   l= 2   rc=  2.573941   el=  0.002031   Ekb= -1.137373   kbcos= -0.019581
   l= 3   rc=  2.606321   el=  0.003153   Ekb= -1.013546   kbcos= -0.003122

KBgen: Total number of Kleinman-Bylander projectors:   16
atom: -------------------------------------------------------------------------

atom: SANKEY-TYPE ORBITALS:
atom: Selected multiple-zeta basis: split     

SPLIT: Orbitals with angular momentum L= 0

SPLIT: Basis orbitals for state 2s

SPLIT: PAO cut-off radius determined from an
SPLIT: energy shift=  0.002000 Ry

   izeta = 1
                 lambda =    1.000000
                     rc =    4.243912
                 energy =   -1.758270
                kinetic =    3.286084
    potential(screened) =   -5.044353
       potential(ionic) =  -12.921184

   izeta = 2
                 rmatch =    2.187845
              splitnorm =    0.280000
                 energy =   -0.885018
                kinetic =    8.134434
    potential(screened) =   -9.019452
       potential(ionic) =  -17.710645

SPLIT: Orbitals with angular momentum L= 1

SPLIT: Basis orbitals for state 2p

SPLIT: PAO cut-off radius determined from an
SPLIT: energy shift=  0.002000 Ry

   izeta = 1
                 lambda =    1.000000
                     rc =    5.314825
                 energy =   -0.661986
                kinetic =    4.917472
    potential(screened) =   -5.579458
       potential(ionic) =  -13.236259

   izeta = 2
                 rmatch =    2.160663
              splitnorm =    0.280000
                 energy =   -0.068760
                kinetic =    9.183374
    potential(screened) =   -9.252135
       potential(ionic) =  -18.274251

POLgen: Perturbative polarization orbital with L=  2

POLgen: Polarization orbital for state 2p

   izeta = 1
                     rc =    5.314825
                 energy =    1.970580
                kinetic =    3.886128
    potential(screened) =   -1.915547
       potential(ionic) =   -7.749584
atom: Total number of Sankey-type orbitals: 13

atm_pop: Valence configuration (for local Pseudopot. screening):
 2s( 2.00)                                                            
 2p( 4.00)                                                            
Vna: chval, zval:    6.00000   6.00000

Vna:  Cut-off radius for the neutral-atom potential:   5.314825

atom: _________________________________________________________________________

prinput: Basis input ----------------------------------------------------------

PAO.BasisType split     

%block ChemicalSpeciesLabel
    1    1 H                       # Species index, atomic number, species label
    2    7 N                       # Species index, atomic number, species label
    3   14 Si                      # Species index, atomic number, species label
    4    8 O                       # Species index, atomic number, species label
%endblock ChemicalSpeciesLabel

%block PAO.Basis                 # Define Basis set
H                     1                    # Species label, number of l-shells
 n=1   0   2 P   1                   # n, l, Nzeta, Polarization, NzetaPol
   6.518      2.141   
   1.000      1.000   
N                     2                    # Species label, number of l-shells
 n=2   0   2                         # n, l, Nzeta 
   4.730      2.532   
   1.000      1.000   
 n=2   1   2 P   1                   # n, l, Nzeta, Polarization, NzetaPol
   5.924      2.532   
   1.000      1.000   
Si                    2                    # Species label, number of l-shells
 n=3   0   2                         # n, l, Nzeta 
   6.430      3.998   
   1.000      1.000   
 n=3   1   2 P   1                   # n, l, Nzeta, Polarization, NzetaPol
   8.465      4.588   
   1.000      1.000   
O                     2                    # Species label, number of l-shells
 n=2   0   2                         # n, l, Nzeta 
   4.244      2.188   
   1.000      1.000   
 n=2   1   2 P   1                   # n, l, Nzeta, Polarization, NzetaPol
   5.315      2.161   
   1.000      1.000   
%endblock PAO.Basis

prinput: ----------------------------------------------------------------------

Dumping basis to NetCDF file H.ion.nc
Dumping basis to NetCDF file N.ion.nc
Dumping basis to NetCDF file Si.ion.nc
Dumping basis to NetCDF file O.ion.nc
coor:   Atomic-coordinates input format  =     Cartesian coordinates
coor:                                          (in Angstroms)

siesta: Atomic coordinates (Bohr) and species
siesta:     -1.21955  11.52257   0.00000  1        1
siesta:     -2.55462  10.02961   0.00000  2        2
siesta:     -5.82439  10.86367   0.00000  3        3
siesta:     -6.11877  13.67935   0.00000  1        4
siesta:     -8.70305   7.91776   0.00000  3        5
siesta:    -11.50587   8.37664   0.00000  1        6
siesta:     -6.43842   4.30219   0.00000  3        7
siesta:     -7.88599   1.40578   0.00000  2        8
siesta:     -6.77059  -0.40310   0.00000  1        9
siesta:     -9.87327   1.25373   0.00000  1       10
siesta:     -3.19527   4.40646   0.00000  2       11
siesta:     -1.16377   6.92043   0.00000  3       12
siesta:      1.87619   6.88489   0.00000  4       13
siesta:     10.61355 -14.07759   0.00000  1       14
siesta:      8.65886 -13.66658   0.00000  2       15
siesta:      6.22979 -16.04876   0.00000  3       16
siesta:      7.18318 -18.71532  -0.00000  1       17
siesta:      3.13570 -15.14356   0.00000  2       18
siesta:      3.17659 -11.72506  -0.00000  3       19
siesta:      1.03072  -8.10005   0.00000  3       20
siesta:     -1.95457  -7.45403   0.00000  4       21
siesta:      3.27352  -5.43711   0.00000  2       22
siesta:      2.28576  -3.64645  -0.00000  1       23
siesta:      6.63017  -5.24735   0.00000  3       24
siesta:      7.81751  -2.22872   0.00000  2       25
siesta:      6.69523  -0.49602   0.00000  1       26
siesta:      9.79567  -1.98858  -0.00000  1       27
siesta:      8.75489  -7.70105  -0.00000  2       28
siesta:      7.16982 -10.55666   0.00000  3       29

siesta: Automatic unit cell vectors (Ang):
siesta:   20.464180    0.000000    0.000000
siesta:    0.000000   26.445350    0.000000
siesta:    0.000000    0.000000    9.854683

siesta: System type = molecule  

initatomlists: Number of atoms, orbitals, and projectors:     29   297   394

siesta: ******************** Simulation parameters ****************************
siesta:
siesta: The following are some of the parameters of the simulation.
siesta: A complete list of the parameters used, including default values,
siesta: can be found in file out.fdf
siesta:
redata: Spin configuration                          = spin-orbit
redata: Number of spin components                   = 8
redata: Time-Reversal Symmetry                      = F
redata: Spin spiral                                 = F
############################################################
This spin-orbit implementation uses a local approximation.
From 4.2 and onwards the full non-local approximation is implemented
You are strongly advised to use >=4.2 versions!
############################################################
redata: Long output                                 =   F
redata: Number of Atomic Species                    =        4
redata: Charge density info will appear in .RHO file
redata: Write Mulliken Pop.                         = NO
redata: Matel table size (NRTAB)                    =     1024
redata: Mesh Cutoff                                 =   340.0000 Ry
redata: Net charge of the system                    =     0.0000 |e|
redata: Min. number of SCF Iter                     =        1
redata: Max. number of SCF Iter                     =      600
redata: SCF convergence failure will abort job
redata: SCF mix quantity                            = Hamiltonian
redata: Mix DM or H after convergence               =   F
redata: Recompute H after scf cycle                 =   F
redata: Mix DM in first SCF step                    =   T
redata: Write Pulay info on disk                    =   F
redata: New DM Occupancy tolerance                  = 0.000000000001
redata: No kicks to SCF
redata: DM Mixing Weight for Kicks                  =     0.5000
redata: Require Harris convergence for SCF          =   F
redata: Harris energy tolerance for SCF             =     0.000100 eV
redata: Require DM convergence for SCF              =   T
redata: DM tolerance for SCF                        =     0.000008
redata: Require EDM convergence for SCF             =   F
redata: EDM tolerance for SCF                       =     0.001000 eV
redata: Require H convergence for SCF               =   T
redata: Hamiltonian tolerance for SCF               =     0.000001 eV
redata: Require (free) Energy convergence for SCF   =   F
redata: (free) Energy tolerance for SCF             =     0.000100 eV
redata: Using Saved Data (generic)                  =   F
redata: Use continuation files for DM               =   T
redata: Neglect nonoverlap interactions             =   F
redata: Method of Calculation                       = Diagonalization
redata: Electronic Temperature                      =   299.9978 K
redata: Fix the spin of the system                  =   F
redata: Dynamics option                             = Single-point calculation
mix.SCF: Pulay mixing                            = Pulay
mix.SCF:    Variant                              = stable
mix.SCF:    History steps                        = 6
mix.SCF:    Linear mixing weight                 =     0.250000
mix.SCF:    Mixing weight                        =     0.250000
mix.SCF:    SVD condition                        = 0.1000E-07
mix.SCF:    Restart steps                        = 24
mix.SCF:    Restart save steps                   = 3
mix.SCF: Spin-component mixing                   all
redata: Save all siesta data in one NC              =   F
redata: ***********************************************************************

%block SCF.Mixers
  Pulay
%endblock SCF.Mixers

%block SCF.Mixer.Pulay
  # Mixing method
  method pulay
  variant stable

  # Mixing options
  weight 0.2500
  weight.linear 0.2500
  history 6
  restart 24
  restart.save 3
%endblock SCF.Mixer.Pulay

DM_history_depth set to one: no extrapolation allowed by default for geometry relaxation
Size of DM history Fstack: 1
Total number of electrons:    98.000000
Total ionic charge:    98.000000

* ProcessorY, Blocksize:    2  24


* Orbital distribution balance (max,min):    57    48


Time-reversal symmetry not used.

siesta: k-grid: Number of k-points =     1
siesta: k-grid: Cutoff (effective) =     4.927 Ang
siesta: k-grid: Supercell and displacements
siesta: k-grid:    1   0   0      0.000
siesta: k-grid:    0   1   0      0.000
siesta: k-grid:    0   0   1      0.000

diag: Algorithm                                     = ELPA-1stage
diag: Parallel over k                               =   F
diag: Use parallel 2D distribution                  =   T
diag: Parallel block-size                           = 24
diag: Parallel distribution                         =     2 x     3
diag: Used triangular part                          = Lower
diag: Absolute tolerance                            =  0.100E-15
diag: Orthogonalization factor                      =  0.100E-05
diag: Memory factor                                 =  1.0000


ts: **************************************************************
ts: Save H and S matrices                           =    F
ts: Save DM and EDM matrices                        =    F
ts: Only save the overlap matrix S                  =    F
ts: **************************************************************

************************ Begin: TS CHECKS AND WARNINGS ************************
************************ End: TS CHECKS AND WARNINGS **************************


                     ====================================
                        Single-point calculation
                     ====================================

outcoor: Atomic coordinates (Ang):                          
   -0.64535706    6.09747656    0.00000000   1       1  H
   -1.35184379    5.30744038    0.00000000   2       2  N
   -3.08213070    5.74880429    0.00000000   3       3  Si
   -3.23791038    7.23879655    0.00000000   1       4  H
   -4.60545232    4.18989677    0.00000000   3       5  Si
   -6.08863995    4.43272713    0.00000000   1       6  H
   -3.40706146    2.27662061    0.00000000   3       7  Si
   -4.17308692    0.74390387    0.00000000   2       8  N
   -3.58284037   -0.21330916    0.00000000   1       9  H
   -5.22470924    0.66344364    0.00000000   1      10  H
   -1.69086140    2.33179492    0.00000000   2      11  N
   -0.61583878    3.66213376    0.00000000   3      12  Si
    0.99283454    3.64332350    0.00000000   4      13  O
    5.61644830   -7.44953905    0.00000000   1      14  H
    4.58206954   -7.23203760    0.00000000   2      15  N
    3.29666389   -8.49263600    0.00000000   3      16  Si
    3.80117524   -9.90371886    0.00000000   1      17  H
    1.65934232   -8.01362137    0.00000000   2      18  N
    1.68097912   -6.20463398    0.00000000   3      19  Si
    0.54543521   -4.28636135    0.00000000   3      20  Si
   -1.03431493   -3.94450034    0.00000000   4      21  O
    1.73226934   -2.87719605    0.00000000   2      22  N
    1.20957366   -1.92961761    0.00000000   1      23  H
    3.50853448   -2.77677601    0.00000000   3      24  Si
    4.13684451   -1.17938608    0.00000000   2      25  N
    3.54296161   -0.26248101    0.00000000   1      26  H
    5.18364407   -1.05231197    0.00000000   1      27  H
    4.63288658   -4.07521596    0.00000000   2      28  N
    3.79410501   -5.58634043    0.00000000   3      29  Si

outcell: Unit cell vectors (Ang):
       20.464180    0.000000    0.000000
        0.000000   26.445350    0.000000
        0.000000    0.000000    9.854683

outcell: Cell vector modules (Ang)   :   20.464180   26.445350    9.854683
outcell: Cell angles (23,13,12) (deg):     90.0000     90.0000     90.0000
outcell: Cell volume (Ang**3)        :   5333.1811
<dSpData1D:S at geom step 0
  <sparsity:sparsity for geom step 0
    nrows_g=297 nrows=57 sparsity=.0971 nnzs=8561, refcount: 8>
  <dData1D:(new from dSpData1D) n=8561, refcount: 1>
refcount: 1>
new_DM -- step:     1
Initializing Density Matrix...

Attempting to read DM from file... Failed...
DM filled with atomic data:
<dSpData2D:DM initialized from atoms
  <sparsity:sparsity for geom step 0
    nrows_g=297 nrows=57 sparsity=.0971 nnzs=8561, refcount: 9>
  <dData2D:DM n=8561 m=8, refcount: 1>
refcount: 1>
     spin moment: S , {S} =   56.00000   0.00000   0.00000  56.00000
No. of atoms with KB's overlaping orbs in proc 0. Max # of overlaps:      28     142

Initializing spin-orbit part of the Hamiltonian
  Adding spin-orbit effects for H 
  Adding spin-orbit effects for N 
  Adding spin-orbit effects for Si
  Adding spin-orbit effects for O 


New grid distribution:   1
           1       1:  120    1:   75    1:   20
           2       1:  120    1:   75   21:   40
           3       1:  120    1:   75   41:   60
           4       1:  120   76:  150    1:   20
           5       1:  120   76:  150   21:   40
           6       1:  120   76:  150   41:   60

InitMesh: MESH =   240 x   300 x   120 =     8640000
InitMesh: (bp) =   120 x   150 x    60 =     1080000
InitMesh: Mesh cutoff (required, used) =   340.000   355.669 Ry
ExtMesh (bp) on 0 =   228 x   179 x   132 =     5387184
New grid distribution:   2
           1       1:   85    1:  106    1:   60
           2      86:  120    1:   22    1:   60
           3       1:   15  107:  150    1:   60
           4      16:  120  127:  150    1:   60
           5      86:  120   23:  106    1:   60
           6      16:  120  107:  126    1:   60
New grid distribution:   3
           1      39:  120   26:   91    1:   60
           2       1:   38    1:   91    1:   60
           3      39:  120    1:   25    1:   60
           4       1:   21   92:  150    1:   60
           5      22:  120   92:  126    1:   60
           6      22:  120  127:  150    1:   60
Setting up quadratic distribution...
ExtMesh (bp) on 0 =   193 x   210 x   172 =     6971160
PhiOnMesh: Number of (b)points on node 0 =               540600
PhiOnMesh: nlist on node 0 =              2425153

stepf: Fermi-Dirac step function

siesta: Program's energy decomposition (eV):
siesta: Ebs     =      -620.738114
siesta: Eions   =      3585.165840
siesta: Ena     =       381.828378
siesta: Ekin    =      3369.075370
siesta: Enl     =     -3297.429874
siesta: Eso     =        -0.003409
siesta: Edftu   =         0.000000
siesta: DEna    =       153.563496
siesta: DUscf   =        81.742817
siesta: DUext   =         0.000000
siesta: Exc     =     -1204.078378
siesta: eta*DQ  =         0.000000
siesta: Emadel  =         0.000000
siesta: Emeta   =         0.000000
siesta: Emolmec =         0.000000
siesta: Ekinion =         0.000000
siesta: Eharris =     -4020.965608
siesta: Etot    =     -4100.467440
siesta: FreeEng =     -4100.468475

        iscf     Eharris(eV)        E_KS(eV)     FreeEng(eV)     dDmax    Ef(eV) dHmax(eV)
   scf:    1    -4020.965608    -4100.467440    -4100.468475  0.965670 -4.903661 21.923246
     spin moment: S , {S} =    2.00582   0.00000  -0.00000   2.00582
timer: Routine,Calls,Time,% = IterSCF        1       6.308  24.39
   scf:    2    -4147.280895    -4135.926320    -4135.928516  0.452216 -4.212648 11.318458
     spin moment: S , {S} =    1.98770  -0.00000  -0.00000   1.98770
   scf:    3    -4108.465805    -4133.650732    -4133.659292  0.423562 -4.334822 11.849812
     spin moment: S , {S} =    2.05001  -0.00000  -0.00000   2.05001
   scf:    4    -4149.508829    -4144.930718    -4144.930718  0.323661 -3.906950  7.236825
     spin moment: S , {S} =    0.00010  -0.00000  -0.00000   0.00010
   scf:    5    -4146.253156    -4145.697077    -4145.697077  0.035825 -3.703795  4.608557
     spin moment: S , {S} =    0.00006  -0.00000  -0.00000   0.00006
   scf:    6    -4146.492761    -4146.104724    -4146.104724  0.024483 -3.542259  2.207712
     spin moment: S , {S} =    0.00003   0.00000  -0.00000   0.00003
   scf:    7    -4146.460267    -4146.279176    -4146.279176  0.021100 -3.754927  0.885526
     spin moment: S , {S} =    0.00001   0.00000   0.00000   0.00001
   scf:    8    -4146.398614    -4146.337021    -4146.337021  0.012184 -3.687168  0.495499
     spin moment: S , {S} =    0.00000   0.00000   0.00000   0.00000
   scf:    9    -4146.375444    -4146.355572    -4146.355572  0.006513 -3.801504  0.368679
     spin moment: S , {S} =    0.00000   0.00000   0.00000   0.00000
   scf:   10    -4146.406054    -4146.375054    -4146.375054  0.020827 -3.783209  0.218961
     spin moment: S , {S} =    0.00000  -0.00000  -0.00000  -0.00000
   scf:   11    -4146.378785    -4146.376887    -4146.376887  0.005780 -3.771751  0.059053
     spin moment: S , {S} =    0.00000   0.00000  -0.00000  -0.00000
   scf:   12    -4146.377903    -4146.377408    -4146.377408  0.001004 -3.766966  0.025320
     spin moment: S , {S} =    0.00000   0.00000  -0.00000   0.00000
   scf:   13    -4146.377844    -4146.377623    -4146.377623  0.001291 -3.765588  0.016013
     spin moment: S , {S} =    0.00000   0.00000  -0.00000   0.00000
   scf:   14    -4146.377869    -4146.377739    -4146.377739  0.001156 -3.763905  0.011504
     spin moment: S , {S} =    0.00000   0.00000  -0.00000   0.00000
   scf:   15    -4146.377839    -4146.377786    -4146.377786  0.000900 -3.764247  0.008598
     spin moment: S , {S} =    0.00000   0.00000  -0.00000   0.00000
   scf:   16    -4146.377862    -4146.377819    -4146.377819  0.001043 -3.764919  0.005701
     spin moment: S , {S} =    0.00000   0.00000  -0.00000   0.00000
   scf:   17    -4146.377836    -4146.377827    -4146.377827  0.000450 -3.764974  0.004278
     spin moment: S , {S} =    0.00000   0.00000  -0.00000   0.00000
   scf:   18    -4146.377837    -4146.377831    -4146.377831  0.000380 -3.765176  0.002528
     spin moment: S , {S} =    0.00000  -0.00000  -0.00000   0.00000
   scf:   19    -4146.377836    -4146.377833    -4146.377833  0.000273 -3.765318  0.001554
     spin moment: S , {S} =    0.00000   0.00000  -0.00000   0.00000
   scf:   20    -4146.377836    -4146.377834    -4146.377834  0.000195 -3.765316  0.000843
     spin moment: S , {S} =    0.00000  -0.00000  -0.00000   0.00000
   scf:   21    -4146.377835    -4146.377835    -4146.377835  0.000147 -3.765290  0.000317
     spin moment: S , {S} =    0.00000  -0.00000  -0.00000   0.00000
   scf:   22    -4146.377835    -4146.377835    -4146.377835  0.000062 -3.765258  0.000170
     spin moment: S , {S} =    0.00000  -0.00000  -0.00000   0.00000
   scf:   23    -4146.377835    -4146.377835    -4146.377835  0.000013 -3.765254  0.000120
     spin moment: S , {S} =    0.00000  -0.00000  -0.00000   0.00000
   scf:   24    -4146.377835    -4146.377835    -4146.377835  0.000006 -3.765254  0.000058
     spin moment: S , {S} =    0.00000  -0.00000  -0.00000   0.00000
mix: Pulay -- resetting history
   scf:   25    -4146.377835    -4146.377835    -4146.377835  0.000004 -3.765255  0.000031
     spin moment: S , {S} =    0.00000  -0.00000  -0.00000  -0.00000
   scf:   26    -4146.377835    -4146.377835    -4146.377835  0.000002 -3.765254  0.000022
     spin moment: S , {S} =    0.00000  -0.00000  -0.00000  -0.00000
   scf:   27    -4146.377835    -4146.377835    -4146.377835  0.000001 -3.765253  0.000017
     spin moment: S , {S} =    0.00000  -0.00000  -0.00000  -0.00000
   scf:   28    -4146.377835    -4146.377835    -4146.377835  0.000001 -3.765252  0.000010
     spin moment: S , {S} =    0.00000  -0.00000  -0.00000  -0.00000
   scf:   29    -4146.377835    -4146.377835    -4146.377835  0.000001 -3.765251  0.000006
     spin moment: S , {S} =    0.00000  -0.00000  -0.00000  -0.00000
   scf:   30    -4146.377835    -4146.377835    -4146.377835  0.000001 -3.765251  0.000003
     spin moment: S , {S} =    0.00000  -0.00000  -0.00000  -0.00000
   scf:   31    -4146.377835    -4146.377835    -4146.377835  0.000001 -3.765252  0.000002
     spin moment: S , {S} =    0.00000  -0.00000  -0.00000  -0.00000
   scf:   32    -4146.377835    -4146.377835    -4146.377835  0.000000 -3.765252  0.000001
     spin moment: S , {S} =    0.00000  -0.00000  -0.00000  -0.00000

SCF Convergence by DM+H criterion
max |DM_out - DM_in|         :     0.0000002275
max |H_out - H_in|      (eV) :     0.0000009539
SCF cycle converged after 32 iterations

Using DM_out to compute the final energy and forces
No. of atoms with KB's overlaping orbs in proc 0. Max # of overlaps:      28     142

siesta: E_KS(eV) =            -4146.3778

siesta: E_KS - E_eggbox =     -4146.3778
     spin moment: S , {S} =    0.00000  -0.00000  -0.00000  -0.00000

siesta: Atomic forces (eV/Ang):
     1    0.021871   -0.054123    0.000000
     2   -0.506543    0.299089    0.000000
     3    0.415002   -0.021595    0.000000
     4   -0.127053   -0.029954   -0.000000
     5   -0.203712   -0.215392   -0.000000
     6    0.032766    0.024471    0.000000
     7    1.171432    1.015064   -0.000000
     8    0.805095   -2.291755    0.000000
     9   -1.280792    1.829266   -0.000000
    10    0.156203   -0.279279    0.000000
    11   -0.983556   -0.313398   -0.000000
    12    1.192723   -0.222379    0.000000
    13    2.135080   -3.207361   -0.000000
    14    0.028509   -0.002368    0.000000
    15    0.097345    0.031427   -0.000000
    16    0.022588   -0.013873    0.000000
    17   -0.031813    0.060387    0.000000
    18   -0.003866    0.048184    0.000000
    19    0.256167    0.028735   -0.000000
    20   -1.348851   -0.169475    0.000000
    21    2.963972   -2.533607   -0.000000
    22    0.353182    0.760965    0.000000
    23    0.122392   -0.654622   -0.000000
    24   -0.328532   -0.942241    0.000000
    25   -0.483103    1.538064    0.000000
    26    0.845581   -1.179845    0.000000
    27   -0.009482    0.114560   -0.000000
    28    0.041453    0.701176    0.000000
    29   -0.300075   -0.405694   -0.000000
----------------------------------------
   Tot    5.053984   -6.085571    0.000000
----------------------------------------
   Max    3.207361
   Res    0.803386    sqrt( Sum f_i^2 / 3N )
----------------------------------------
   Max    3.207361    constrained

Stress tensor Voigt[x,y,z,yz,xz,xy] (kbar):        1.26        0.56       -0.09        0.00       -0.00       -1.25
(Free)E + p*V (eV/cell)    -4148.3007
Target enthalpy (eV/cell)    -4146.3778

siesta: Eigenvalues (eV):
ik =     1
  -21.8808  -21.8808  -21.8048  -21.8048  -21.5735  -21.5735  -21.5615  -21.5615  -21.2357  -21.2357
  -21.0321  -21.0321  -20.8451  -20.8451  -19.8238  -19.8238  -19.3793  -19.3793  -19.3661  -19.3661
  -14.7444  -14.7443  -13.9009  -13.9009  -13.3276  -13.3276  -13.1846  -13.1846  -13.0739  -13.0739
  -12.8715  -12.8715  -12.8663  -12.8663  -12.4840  -12.4840  -12.4131  -12.4131  -12.0282  -12.0282
  -11.4326  -11.4326  -10.8033  -10.8033  -10.7689  -10.7689  -10.7434  -10.7434  -10.0753  -10.0753
   -9.5502   -9.5502   -9.2730   -9.2730   -8.8560   -8.8560   -8.7043   -8.7043   -8.6675   -8.6675
   -8.6450   -8.6450   -8.4011   -8.4011   -8.1882   -8.1882   -7.8332   -7.8332   -7.6254   -7.6254
   -7.6068   -7.6068   -7.3288   -7.3288   -7.2884   -7.2884   -6.8924   -6.8924   -6.7454   -6.7454
   -6.5190   -6.5190   -6.4828   -6.4828   -6.1200   -6.1200   -6.1065   -6.1065   -6.1017   -6.1017
   -5.7496   -5.7496   -5.6209   -5.6209   -5.4531   -5.4531   -4.3098   -4.3098   -3.2191   -3.2191
   -2.3203   -2.3203   -2.2978   -2.2978   -2.2903   -2.2903   -1.9166   -1.9166   -1.8559   -1.8559
   -1.8398   -1.8398   -1.7841   -1.7841   -1.5804   -1.5804   -1.5667   -1.5667   -0.9681   -0.9681
   -0.9386   -0.9386   -0.8084   -0.8084   -0.4163   -0.4163   -0.1592   -0.1592    0.0438    0.0438
    0.3429    0.3429    0.4050    0.4050    0.5505    0.5505    0.7030    0.7030    0.7920    0.7920
    0.9711    0.9711    1.2427    1.2427    1.3196    1.3196    1.3861    1.3861    1.4458    1.4458
    1.7172    1.7172    1.8346    1.8346    1.9266    1.9266    2.3118    2.3118    2.7245    2.7245
    2.7303    2.7303    2.8209    2.8209    2.9803    2.9803    3.1541    3.1541    3.3389    3.3389
    3.3782    3.3782    3.7342    3.7342    3.8090    3.8090    4.1147    4.1147    4.2548    4.2548
    4.4237    4.4237    4.4414    4.4414    4.5866    4.5866    4.5891    4.5891    4.7891    4.7891
    4.9307    4.9307    4.9745    4.9745    5.2288    5.2288    5.5147    5.5147    5.6788    5.6788
    5.7541    5.7541    5.7640    5.7640    5.8686    5.8686    5.9565    5.9565    5.9663    5.9663
    6.1854    6.1854    6.3518    6.3518    6.6293    6.6293    6.6777    6.6777    6.8451    6.8451
    7.0409    7.0409    7.1639    7.1639    7.4123    7.4123    7.5103    7.5103    7.7367    7.7367
    7.8100    7.8100    7.9692    7.9692    8.1064    8.1064    8.2550    8.2550    8.2899    8.2899
    8.4956    8.4956    8.7007    8.7007    8.8473    8.8473    8.9197    8.9197    9.1485    9.1485
    9.1826    9.1826    9.2156    9.2156    9.7225    9.7225    9.8288    9.8288    9.8407    9.8407
   10.0374   10.0374   10.1810   10.1810   10.4326   10.4326   10.7602   10.7602   10.8169   10.8169
   10.9540   10.9540   10.9603   10.9603   11.1790   11.1790   11.6762   11.6762   11.7171   11.7171
   11.8421   11.8421   11.8535   11.8535   12.0695   12.0695   12.3685   12.3685   12.7222   12.7222
   12.7381   12.7381   12.7809   12.7809   13.2700   13.2700   13.4742   13.4742   13.6309   13.6309
   13.8097   13.8097   14.1206   14.1206   14.2516   14.2516   14.6221   14.6221   14.7322   14.7322
   14.8755   14.8755   15.3601   15.3601   15.9884   15.9884   16.4418   16.4418   16.7286   16.7286
   16.9074   16.9074   17.3422   17.3422   17.6110   17.6110   18.1523   18.1523   18.3994   18.3994
   18.5889   18.5889   19.2148   19.2148   19.3319   19.3319   19.8774   19.8774   20.2959   20.2959
   20.9884   20.9884   21.2533   21.2533   21.9200   21.9200   22.2559   22.2559   22.3319   22.3319
   22.9018   22.9018   23.2148   23.2148   23.6887   23.6887   23.8121   23.8121   23.8911   23.8911
   24.8625   24.8625   25.3159   25.3159   25.9775   25.9775   26.6883   26.6883   27.4529   27.4529
   28.2601   28.2601   28.9442   28.9442   29.1622   29.1622   29.3850   29.3850   29.6616   29.6616
   29.9529   29.9529   30.0685   30.0685   30.2184   30.2184   30.6853   30.6853   30.8282   30.8282
   30.9878   30.9878   31.1995   31.1995   31.5300   31.5300   31.6434   31.6434   32.0783   32.0783
   32.5908   32.5908   33.7906   33.7906   34.5909   34.5909   34.6412   34.6412   34.9347   34.9347
   34.9886   34.9886   35.0603   35.0603   35.4976   35.4976   35.6003   35.6003   35.8936   35.8936
   36.6970   36.6970   36.8155   36.8155   37.0429   37.0429   37.2493   37.2493   37.5292   37.5292
   38.2081   38.2081   38.3517   38.3517   39.2977   39.2977   39.3859   39.3859   39.7528   39.7528
   40.3780   40.3780   40.4904   40.4904   40.6111   40.6111   40.6532   40.6532   40.8890   40.8890
   40.9367   40.9367   41.2314   41.2314   42.4802   42.4802   42.8385   42.8385   42.8804   42.8804
   43.3096   43.3096   43.7573   43.7573   43.8905   43.8905   43.9764   43.9764   44.3321   44.3321
   44.6377   44.6377   44.6967   44.6967   45.0691   45.0691   45.4090   45.4090   46.0137   46.0137
   46.2737   46.2737   46.9784   46.9784   47.3087   47.3087   48.8129   48.8129   49.0830   49.0830
   49.4236   49.4236   50.3068   50.3068   50.4586   50.4586   50.9929   50.9929   51.0360   51.0360
   51.5842   51.5842   51.6288   51.6288   52.6837   52.6837   52.8050   52.8050   54.1294   54.1294
   54.2729   54.2729   54.5081   54.5081   54.7285   54.7285   55.6552   55.6552   55.7425   55.7425
   55.7916   55.7916   56.0241   56.0241   56.3942   56.3942   58.0779   58.0779   58.3254   58.3254
   58.5866   58.5866   60.1098   60.1098   60.2109   60.2109   60.5712   60.5712   61.0865   61.0865
   61.8312   61.8312   61.9336   61.9336   62.1089   62.1089   64.7030   64.7030   66.5552   66.5552
   66.7595   66.7595   67.1615   67.1615   68.0679   68.0679   68.4912   68.4912   70.8378   70.8378
   73.7543   73.7543   80.2055   80.2055   91.0551   91.0551   92.0499   92.0499   93.1927   93.1927
   98.2313   98.2313   98.5875   98.5875   99.5741   99.5741  102.9890  102.9890  103.5916  103.5916
  110.0462  110.0462  111.5777  111.5777  124.0145  124.0145  126.2488  126.2488  129.1200  129.1200
  135.1460  135.1460  138.2288  138.2288
siesta: Fermi energy =      -3.765252 eV

siesta: Program's energy decomposition (eV):
siesta: Ebs     =     -1134.579598
siesta: Eions   =      3585.165840
siesta: Ena     =       381.828378
siesta: Ekin    =      2902.708586
siesta: Enl     =     -2787.358647
siesta: Eso     =        -0.004276
siesta: Edftu   =         0.000000
siesta: DEna    =        46.905332
siesta: DUscf   =        14.334385
siesta: DUext   =         0.000000
siesta: Exc     =     -1119.625754
siesta: eta*DQ  =         0.000000
siesta: Emadel  =         0.000000
siesta: Emeta   =         0.000000
siesta: Emolmec =         0.000000
siesta: Ekinion =         0.000000
siesta: Eharris =     -4146.377835
siesta: Etot    =     -4146.377835
siesta: FreeEng =     -4146.377835

siesta: Final energy (eV):
siesta:  Band Struct. =   -1134.579598
siesta:       Kinetic =    2902.708586
siesta:       Hartree =    8170.186311
siesta:       Edftu   =       0.000000
siesta:       Eso     =      -0.004276
siesta:    Ext. field =       0.000000
siesta:   Exch.-corr. =   -1119.625754
siesta:  Ion-electron =  -18924.259631
siesta:       Ion-ion =    4824.616929
siesta:       Ekinion =       0.000000
siesta:         Total =   -4146.377835
siesta:         Fermi =      -3.765252

siesta: Atomic forces (eV/Ang):
siesta:      1    0.021871   -0.054123    0.000000
siesta:      2   -0.506543    0.299089    0.000000
siesta:      3    0.415002   -0.021595    0.000000
siesta:      4   -0.127053   -0.029954   -0.000000
siesta:      5   -0.203712   -0.215392   -0.000000
siesta:      6    0.032766    0.024471    0.000000
siesta:      7    1.171432    1.015064   -0.000000
siesta:      8    0.805095   -2.291755    0.000000
siesta:      9   -1.280792    1.829266   -0.000000
siesta:     10    0.156203   -0.279279    0.000000
siesta:     11   -0.983556   -0.313398   -0.000000
siesta:     12    1.192723   -0.222379    0.000000
siesta:     13    2.135080   -3.207361   -0.000000
siesta:     14    0.028509   -0.002368    0.000000
siesta:     15    0.097345    0.031427   -0.000000
siesta:     16    0.022588   -0.013873    0.000000
siesta:     17   -0.031813    0.060387    0.000000
siesta:     18   -0.003866    0.048184    0.000000
siesta:     19    0.256167    0.028735   -0.000000
siesta:     20   -1.348851   -0.169475    0.000000
siesta:     21    2.963972   -2.533607   -0.000000
siesta:     22    0.353182    0.760965    0.000000
siesta:     23    0.122392   -0.654622   -0.000000
siesta:     24   -0.328532   -0.942241    0.000000
siesta:     25   -0.483103    1.538064    0.000000
siesta:     26    0.845581   -1.179845    0.000000
siesta:     27   -0.009482    0.114560   -0.000000
siesta:     28    0.041453    0.701176    0.000000
siesta:     29   -0.300075   -0.405694   -0.000000
siesta: ----------------------------------------
siesta:    Tot    5.053984   -6.085571    0.000000

siesta: Stress tensor (static) (eV/Ang**3):
siesta:     0.000788   -0.000782   -0.000000
siesta:    -0.000782    0.000347    0.000000
siesta:    -0.000000    0.000000   -0.000053

siesta: Cell volume =       5333.181090 Ang**3

siesta: Pressure (static):
siesta:                Solid            Molecule  Units
siesta:          -0.00000393          0.00000655  Ry/Bohr**3
siesta:          -0.00036055          0.00060183  eV/Ang**3
siesta:          -0.57766954          0.96424284  kBar
(Free)E+ p_basis*V_orbitals  =       -4126.527417
(Free)Eharris+ p_basis*V_orbitals  =       -4126.527417
     spin moment: S , {S} =    0.00000  -0.00000  -0.00000  -0.00000

siesta: Electric dipole (a.u.)  =    0.022191    1.530672    0.000000
siesta: Electric dipole (Debye) =    0.056405    3.890583    0.000000

cite: Please see "GC.bib" for an exhaustive BiBTeX file.
cite: Please clearly indicate Siesta version in published work: v4.1.5-1-g384057250
cite: This calculation has made use of the following articles
cite: which are encouraged to be cited in a published work.
        Primary SIESTA paper
          DOI: www.doi.org/10.1088/0953-8984/14/11/302
        Spin-orbit coupling (on-site approximation)
          DOI: www.doi.org/10.1088/0953-8984/19/19/489001


WARNING: alloc-realloc-dealloc name mismatch
         Name: atomlist isa
         Size:              -116. Bytes
         Node:     0
         Subsequent mismatches will not be reported
>> End of run:  16-OCT-2023  19:00:40
Job completed
