Siesta Version  : v4.1.5-1-g384057250
Architecture    : gcc
Compiler version: GNU Fortran (Ubuntu 11.4.0-1ubuntu1~22.04) 11.4.0
Compiler flags  : mpifort -O2 -fPIC -ftree-vectorize -fallow-argument-mismatch
PP flags        : -DFC_HAVE_ABORT -DMPI -DSIESTA__FLOOK -DSIESTA__METIS -DSIESTA__MUMPS -DCDF -DNCDF -DNCDF_4 -DNCDF_PARALLEL -DSIESTA__MRRR -DSIESTA__ELPA
Libraries       : libncdf.a libfdict.a  -lflookall -ldl -lnetcdff -lnetcdf -lhdf5_hl -lhdf5 -lhdf5_fortran -lz -lscalapack-openmpi -lopenblas -lmetis -lzmumps -lcmumps -ldmumps -lmumps_common -lpord -lsmumps -lesmumps -lscotch -lscotcherr -fopenmp -lelpa
PARALLEL version
NetCDF support
NetCDF-4 support
NetCDF-4 MPI-IO support
METIS ordering support
Lua support

* Running on 8 nodes in parallel
>> Start of run:   1-FEB-2024  22:52:12

                           ***********************       
                           *  WELCOME TO SIESTA  *       
                           ***********************       

reinit: Reading from standard input
reinit: Dumped input in INPUT_TMP.02799
************************** Dump of input data file ****************************
# mpirun -np 4 siesta-4.1.5 < GC.fdf > GC.out &
SystemLabel      GC
NumberOfAtoms    29
NumberOfSpecies  4
%block ChemicalSpeciesLabel
    1    1  H
    2    7  N
    3   14  Si
    4    8  O
%endblock ChemicalSpeciesLabel
############################################
# This overrides Defaults.fdf configuration
############################################
MD.TypeOfRun                Verlet # CG, Verlet
MD.Steps                    0
MaxSCFIterations            200
SCF.MustConverge            F
AtomicCoordinatesFormat NotScaledCartesianAng
%block AtomicCoordinatesAndAtomicSpecies
    -0.659657268669726 6.118759564478891 0.0  1  1  H
    -1.366143998669726 5.3287233844788915 0.0  2  2  N
    -3.096430908669726 5.770087294478891 0.0  3  3  Si
    -3.252210588669726 7.2600795544788905 0.0  1  4  H
    -4.619752528669726 4.211179774478891 0.0  3  5  Si
    -6.1029401586697265 4.4540101344788905 0.0  1  6  H
    -3.421361668669726 2.2979036144788907 0.0  3  7  Si
    -4.187387128669726 0.7651868744788908 0.0  2  8  N
    -3.597140578669726 -0.19202615552110913 0.0  1  9  H
    -5.239009448669726 0.6847266444788909 0.0  1  10  H
    -1.7051616086697259 2.3530779244788906 0.0  2  11  N
    -0.630138988669726 3.683416764478891 0.0  3  12  Si
    0.9785343313302739 3.6646065044788907 0.0  4  13  O
    5.6164483 -7.44953905 0.0  1  14  H
    4.58206954 -7.2320376 0.0  2  15  N
    3.29666389 -8.492636 0.0  3  16  Si
    3.80117524 -9.90371886 -0.0  1  17  H
    1.65934232 -8.01362137 0.0  2  18  N
    1.68097912 -6.20463398 -0.0  3  19  Si
    0.54543521 -4.28636135 0.0  3  20  Si
    -1.03431493 -3.94450034 0.0  4  21  O
    1.73226934 -2.87719605 0.0  2  22  N
    1.20957366 -1.92961761 -0.0  1  23  H
    3.50853448 -2.77677601 0.0  3  24  Si
    4.13684451 -1.17938608 0.0  2  25  N
    3.54296161 -0.26248101 0.0  1  26  H
    5.18364407 -1.05231197 -0.0  1  27  H
    4.63288658 -4.07521596 -0.0  2  28  N
    3.79410501 -5.58634043 0.0  3  29  Si
%endblock AtomicCoordinatesAndAtomicSpecies
#############
# Unit Cell
#############
LatticeConstant 1.0 Ang
%block LatticeVectors
    30.00000    0.000000    0.000000
    0.000000    45.00000    0.000000
    0.000000    0.000000    10.00000
%endblock LatticeVectors
%include ../../../../Defaults.fdf
************************** End of input data file *****************************

reinit: -----------------------------------------------------------------------
reinit: System Name: 
reinit: -----------------------------------------------------------------------
reinit: System Label: GC
reinit: -----------------------------------------------------------------------

initatom: Reading input for the pseudopotentials and atomic orbitals ----------
Species number:   1 Atomic number:    1 Label: H
Species number:   2 Atomic number:    7 Label: N
Species number:   3 Atomic number:   14 Label: Si
Species number:   4 Atomic number:    8 Label: O

Ground state valence configuration:   1s01
Reading pseudopotential information in formatted form from H.psf

Pseudopotential generated from a relativistic atomic calculation

Valence configuration for pseudopotential generation:
1s( 1.00) rc: 0.01
2p( 0.00) rc: 0.60
3d( 0.00) rc: 1.99
4f( 0.00) rc: 2.49
Ground state valence configuration:   2s02  2p03
Reading pseudopotential information in formatted form from N.psf

Pseudopotential generated from a relativistic atomic calculation

Valence configuration for pseudopotential generation:
2s( 2.00) rc: 0.94
2p( 3.00) rc: 0.59
3d( 0.00) rc: 3.46
4f( 0.00) rc: 2.47
Ground state valence configuration:   3s02  3p02
Reading pseudopotential information in formatted form from Si.psf

Pseudopotential generated from a relativistic atomic calculation

Valence configuration for pseudopotential generation:
3s( 2.00) rc: 1.67
3p( 2.00) rc: 2.04
3d( 0.00) rc: 2.89
4f( 0.00) rc: 2.49
Ground state valence configuration:   2s02  2p04
Reading pseudopotential information in formatted form from O.psf

Pseudopotential generated from a relativistic atomic calculation

Valence configuration for pseudopotential generation:
2s( 2.00) rc: 0.45
2p( 4.00) rc: 0.92
3d( 0.00) rc: 2.24
4f( 0.00) rc: 0.25
For H, standard SIESTA heuristics set lmxkb to 2
 (one more than the basis l, including polarization orbitals).
Use PS.lmax or PS.KBprojectors blocks to override.
For N, standard SIESTA heuristics set lmxkb to 3
 (one more than the basis l, including polarization orbitals).
Use PS.lmax or PS.KBprojectors blocks to override.
For Si, standard SIESTA heuristics set lmxkb to 3
 (one more than the basis l, including polarization orbitals).
Use PS.lmax or PS.KBprojectors blocks to override.
For O, standard SIESTA heuristics set lmxkb to 3
 (one more than the basis l, including polarization orbitals).
Use PS.lmax or PS.KBprojectors blocks to override.

<basis_specs>
===============================================================================
H                    Z=   1    Mass=  1.0100        Charge= 0.17977+309
Lmxo=0 Lmxkb= 2    BasisType=split      Semic=F
L=0  Nsemic=0  Cnfigmx=1
          i=1  nzeta=2  polorb=1  (1s)
            splnorm:   0.62000    
               vcte:    0.0000    
               rinn:    0.0000    
               qcoe:    0.0000    
               qyuk:    0.0000    
               qwid:   0.10000E-01
                rcs:    0.0000      0.0000    
            lambdas:    1.0000      1.0000    
-------------------------------------------------------------------------------
L=0  Nkbl=1  erefs: 0.17977+309
L=1  Nkbl=1  erefs: 0.17977+309
L=2  Nkbl=1  erefs: 0.17977+309
===============================================================================
</basis_specs>

atom: Called for H                     (Z =   1)

read_vps: Pseudopotential generation method:
read_vps: ATM4.2.7  Troullier-Martins                       
Valence charge for ps generation:    1.00000

xc_check: Exchange-correlation functional:
xc_check: GGA Perdew, Burke & Ernzerhof 1996
V l=0 = -2*Zval/r beyond r=  0.0098
V l=1 = -2*Zval/r beyond r=  0.5817
V l=2 = -2*Zval/r beyond r=  1.9372
All V_l potentials equal beyond r=  1.9372
This should be close to max(r_c) in ps generation
All pots = -2*Zval/r beyond r=  1.9372

VLOCAL1: 99.0% of the norm of Vloc inside     11.567 Ry
VLOCAL1: 99.9% of the norm of Vloc inside     26.362 Ry
atom: Maximum radius for 4*pi*r*r*local-pseudopot. charge    2.25106
atom: Maximum radius for r*vlocal+2*Zval:    1.91306
GHOST: No ghost state for L =  0
GHOST: No ghost state for L =  1
GHOST: No ghost state for L =  2

KBgen: Kleinman-Bylander projectors: 
   l= 0   rc=  2.036604   el= -0.477180   Ekb= -6.081590   kbcos= -0.277285
   l= 1   rc=  2.195416   el=  0.001076   Ekb= -0.926943   kbcos= -0.034643
   l= 2   rc=  2.251056   el=  0.002010   Ekb= -0.130941   kbcos= -0.009788

KBgen: Total number of Kleinman-Bylander projectors:    9
atom: -------------------------------------------------------------------------

atom: SANKEY-TYPE ORBITALS:
atom: Selected multiple-zeta basis: split     

SPLIT: Orbitals with angular momentum L= 0

SPLIT: Basis orbitals for state 1s

SPLIT: PAO cut-off radius determined from an
SPLIT: energy shift=  0.002000 Ry

   izeta = 1
                 lambda =    1.000000
                     rc =    6.518340
                 energy =   -0.475305
                kinetic =    0.912139
    potential(screened) =   -1.387444
       potential(ionic) =   -1.907295

   izeta = 2
                 rmatch =    2.141150
              splitnorm =    0.620000
                 energy =    0.566467
                kinetic =    3.772856
    potential(screened) =   -3.206389
       potential(ionic) =   -3.759093

POLgen: Perturbative polarization orbital with L=  1

POLgen: Polarization orbital for state 1s

   izeta = 1
                     rc =    6.518340
                 energy =    0.533861
                kinetic =    1.121086
    potential(screened) =   -0.587225
       potential(ionic) =   -1.053027
atom: Total number of Sankey-type orbitals:  5

atm_pop: Valence configuration (for local Pseudopot. screening):
 1s( 1.00)                                                            
Vna: chval, zval:    1.00000   1.00000

Vna:  Cut-off radius for the neutral-atom potential:   6.518340

atom: _________________________________________________________________________

<basis_specs>
===============================================================================
N                    Z=   7    Mass=  14.010        Charge= 0.17977+309
Lmxo=1 Lmxkb= 3    BasisType=split      Semic=F
L=0  Nsemic=0  Cnfigmx=2
          i=1  nzeta=2  polorb=0  (2s)
            splnorm:   0.28000    
               vcte:    0.0000    
               rinn:    0.0000    
               qcoe:    0.0000    
               qyuk:    0.0000    
               qwid:   0.10000E-01
                rcs:    0.0000      0.0000    
            lambdas:    1.0000      1.0000    
L=1  Nsemic=0  Cnfigmx=2
          i=1  nzeta=2  polorb=1  (2p)
            splnorm:   0.28000    
               vcte:    0.0000    
               rinn:    0.0000    
               qcoe:    0.0000    
               qyuk:    0.0000    
               qwid:   0.10000E-01
                rcs:    0.0000      0.0000    
            lambdas:    1.0000      1.0000    
-------------------------------------------------------------------------------
L=0  Nkbl=1  erefs: 0.17977+309
L=1  Nkbl=1  erefs: 0.17977+309
L=2  Nkbl=1  erefs: 0.17977+309
L=3  Nkbl=1  erefs: 0.17977+309
===============================================================================
</basis_specs>

atom: Called for N                     (Z =   7)

read_vps: Pseudopotential generation method:
read_vps: ATM4.2.7  Troullier-Martins                       
Valence charge for ps generation:    5.00000

xc_check: Exchange-correlation functional:
xc_check: GGA Perdew, Burke & Ernzerhof 1996
V l=0 = -2*Zval/r beyond r=  1.2889
V l=1 = -2*Zval/r beyond r=  1.2889
V l=2 = -2*Zval/r beyond r=  3.4178
V l=3 = -2*Zval/r beyond r=  2.4084
All V_l potentials equal beyond r=  3.3753
This should be close to max(r_c) in ps generation
All pots = -2*Zval/r beyond r=  3.4178

VLOCAL1: 99.0% of the norm of Vloc inside      3.810 Ry
VLOCAL1: 99.9% of the norm of Vloc inside      8.683 Ry
atom: Maximum radius for 4*pi*r*r*local-pseudopot. charge    4.02088
atom: Maximum radius for r*vlocal+2*Zval:    3.54838
GHOST: No ghost state for L =  0
GHOST: No ghost state for L =  1
GHOST: No ghost state for L =  2
GHOST: No ghost state for L =  3

KBgen: Kleinman-Bylander projectors: 
   l= 0   rc=  3.417763   el= -1.365098   Ekb= -4.433130   kbcos= -0.707855
   l= 1   rc=  3.375302   el= -0.521201   Ekb=-13.264039   kbcos= -0.535594
   l= 2   rc=  3.872880   el=  0.001991   Ekb= -0.641094   kbcos= -0.062456
   l= 3   rc=  3.970931   el=  0.003093   Ekb= -0.474517   kbcos= -0.018236

KBgen: Total number of Kleinman-Bylander projectors:   16
atom: -------------------------------------------------------------------------

atom: SANKEY-TYPE ORBITALS:
atom: Selected multiple-zeta basis: split     

SPLIT: Orbitals with angular momentum L= 0

SPLIT: Basis orbitals for state 2s

SPLIT: PAO cut-off radius determined from an
SPLIT: energy shift=  0.002000 Ry

   izeta = 1
                 lambda =    1.000000
                     rc =    4.730425
                 energy =   -1.363399
                kinetic =    1.245246
    potential(screened) =   -2.608645
       potential(ionic) =   -8.121105

   izeta = 2
                 rmatch =    2.531849
              splitnorm =    0.280000
                 energy =   -0.959908
                kinetic =    2.409435
    potential(screened) =   -3.369343
       potential(ionic) =   -9.427975

SPLIT: Orbitals with angular momentum L= 1

SPLIT: Basis orbitals for state 2p

SPLIT: PAO cut-off radius determined from an
SPLIT: energy shift=  0.002000 Ry

   izeta = 1
                 lambda =    1.000000
                     rc =    5.924108
                 energy =   -0.519262
                kinetic =    3.672940
    potential(screened) =   -4.192202
       potential(ionic) =   -9.518354

   izeta = 2
                 rmatch =    2.531849
              splitnorm =    0.280000
                 energy =   -0.104258
                kinetic =    6.807538
    potential(screened) =   -6.911796
       potential(ionic) =  -13.149920

POLgen: Perturbative polarization orbital with L=  2

POLgen: Polarization orbital for state 2p

   izeta = 1
                     rc =    5.924108
                 energy =    1.427508
                kinetic =    2.872379
    potential(screened) =   -1.444871
       potential(ionic) =   -5.563644
atom: Total number of Sankey-type orbitals: 13

atm_pop: Valence configuration (for local Pseudopot. screening):
 2s( 2.00)                                                            
 2p( 3.00)                                                            
Vna: chval, zval:    5.00000   5.00000

Vna:  Cut-off radius for the neutral-atom potential:   5.924108

atom: _________________________________________________________________________

<basis_specs>
===============================================================================
Si                   Z=  14    Mass=  28.090        Charge= 0.17977+309
Lmxo=1 Lmxkb= 3    BasisType=split      Semic=F
L=0  Nsemic=0  Cnfigmx=3
          i=1  nzeta=2  polorb=0  (3s)
            splnorm:   0.28000    
               vcte:    0.0000    
               rinn:    0.0000    
               qcoe:    0.0000    
               qyuk:    0.0000    
               qwid:   0.10000E-01
                rcs:    0.0000      0.0000    
            lambdas:    1.0000      1.0000    
L=1  Nsemic=0  Cnfigmx=3
          i=1  nzeta=2  polorb=1  (3p)
            splnorm:   0.28000    
               vcte:    0.0000    
               rinn:    0.0000    
               qcoe:    0.0000    
               qyuk:    0.0000    
               qwid:   0.10000E-01
                rcs:    0.0000      0.0000    
            lambdas:    1.0000      1.0000    
-------------------------------------------------------------------------------
L=0  Nkbl=1  erefs: 0.17977+309
L=1  Nkbl=1  erefs: 0.17977+309
L=2  Nkbl=1  erefs: 0.17977+309
L=3  Nkbl=1  erefs: 0.17977+309
===============================================================================
</basis_specs>

atom: Called for Si                    (Z =  14)

read_vps: Pseudopotential generation method:
read_vps: ATM4.2.7  Troullier-Martins                       
Valence charge for ps generation:    4.00000

xc_check: Exchange-correlation functional:
xc_check: GGA Perdew, Burke & Ernzerhof 1996
V l=0 = -2*Zval/r beyond r=  2.7826
V l=1 = -2*Zval/r beyond r=  2.7826
V l=2 = -2*Zval/r beyond r=  2.9253
V l=3 = -2*Zval/r beyond r=  2.7826
All V_l potentials equal beyond r=  2.8530
This should be close to max(r_c) in ps generation
All pots = -2*Zval/r beyond r=  2.9253

VLOCAL1: 99.0% of the norm of Vloc inside      5.333 Ry
VLOCAL1: 99.9% of the norm of Vloc inside     12.154 Ry
atom: Maximum radius for 4*pi*r*r*local-pseudopot. charge    3.39869
atom: Maximum radius for r*vlocal+2*Zval:    2.96205
GHOST: No ghost state for L =  0
GHOST: No ghost state for L =  1
GHOST: No ghost state for L =  2
GHOST: No ghost state for L =  3

KBgen: Kleinman-Bylander projectors: 
   l= 0   rc=  3.075247   el= -0.794092   Ekb=  5.879390   kbcos=  0.167461
   l= 1   rc=  3.153101   el= -0.300068   Ekb=  2.642817   kbcos=  0.058301
   l= 2   rc=  3.273594   el=  0.001958   Ekb= -1.185135   kbcos= -0.104411
   l= 3   rc=  3.232927   el=  0.003046   Ekb= -0.497174   kbcos= -0.015889

KBgen: Total number of Kleinman-Bylander projectors:   16
atom: -------------------------------------------------------------------------

atom: SANKEY-TYPE ORBITALS:
atom: Selected multiple-zeta basis: split     

SPLIT: Orbitals with angular momentum L= 0

SPLIT: Basis orbitals for state 3s

SPLIT: PAO cut-off radius determined from an
SPLIT: energy shift=  0.002000 Ry

   izeta = 1
                 lambda =    1.000000
                     rc =    6.429618
                 energy =   -0.792283
                kinetic =    0.525293
    potential(screened) =   -1.317576
       potential(ionic) =   -3.744923

   izeta = 2
                 rmatch =    3.998416
              splitnorm =    0.280000
                 energy =   -0.583081
                kinetic =    1.069570
    potential(screened) =   -1.652651
       potential(ionic) =   -4.235185

SPLIT: Orbitals with angular momentum L= 1

SPLIT: Basis orbitals for state 3p

SPLIT: PAO cut-off radius determined from an
SPLIT: energy shift=  0.002000 Ry

   izeta = 1
                 lambda =    1.000000
                     rc =    8.464845
                 energy =   -0.298236
                kinetic =    0.785360
    potential(screened) =   -1.083596
       potential(ionic) =   -3.273779

   izeta = 2
                 rmatch =    4.587816
              splitnorm =    0.280000
                 energy =   -0.131871
                kinetic =    1.403687
    potential(screened) =   -1.535557
       potential(ionic) =   -4.015310

POLgen: Perturbative polarization orbital with L=  2

POLgen: Polarization orbital for state 3p

   izeta = 1
                     rc =    8.464845
                 energy =    0.321949
                kinetic =    1.055677
    potential(screened) =   -0.733728
       potential(ionic) =   -2.672950
atom: Total number of Sankey-type orbitals: 13

atm_pop: Valence configuration (for local Pseudopot. screening):
 3s( 2.00)                                                            
 3p( 2.00)                                                            
Vna: chval, zval:    4.00000   4.00000

Vna:  Cut-off radius for the neutral-atom potential:   8.464845

atom: _________________________________________________________________________

<basis_specs>
===============================================================================
O                    Z=   8    Mass=  16.000        Charge= 0.17977+309
Lmxo=1 Lmxkb= 3    BasisType=split      Semic=F
L=0  Nsemic=0  Cnfigmx=2
          i=1  nzeta=2  polorb=0  (2s)
            splnorm:   0.28000    
               vcte:    0.0000    
               rinn:    0.0000    
               qcoe:    0.0000    
               qyuk:    0.0000    
               qwid:   0.10000E-01
                rcs:    0.0000      0.0000    
            lambdas:    1.0000      1.0000    
L=1  Nsemic=0  Cnfigmx=2
          i=1  nzeta=2  polorb=1  (2p)
            splnorm:   0.28000    
               vcte:    0.0000    
               rinn:    0.0000    
               qcoe:    0.0000    
               qyuk:    0.0000    
               qwid:   0.10000E-01
                rcs:    0.0000      0.0000    
            lambdas:    1.0000      1.0000    
-------------------------------------------------------------------------------
L=0  Nkbl=1  erefs: 0.17977+309
L=1  Nkbl=1  erefs: 0.17977+309
L=2  Nkbl=1  erefs: 0.17977+309
L=3  Nkbl=1  erefs: 0.17977+309
===============================================================================
</basis_specs>

atom: Called for O                     (Z =   8)

read_vps: Pseudopotential generation method:
read_vps: ATM4.2.7  Troullier-Martins                       
Valence charge for ps generation:    6.00000

xc_check: Exchange-correlation functional:
xc_check: GGA Perdew, Burke & Ernzerhof 1996
V l=0 = -2*Zval/r beyond r=  1.1000
V l=1 = -2*Zval/r beyond r=  1.1000
V l=2 = -2*Zval/r beyond r=  2.2154
V l=3 = -2*Zval/r beyond r=  1.1000
All V_l potentials equal beyond r=  2.2154
This should be close to max(r_c) in ps generation
All pots = -2*Zval/r beyond r=  2.2154

VLOCAL1: 99.0% of the norm of Vloc inside      8.845 Ry
VLOCAL1: 99.9% of the norm of Vloc inside     20.157 Ry
atom: Maximum radius for 4*pi*r*r*local-pseudopot. charge    2.67231
atom: Maximum radius for r*vlocal+2*Zval:    2.32897
GHOST: No ghost state for L =  0
GHOST: No ghost state for L =  1
GHOST: No ghost state for L =  2
GHOST: No ghost state for L =  3

KBgen: Kleinman-Bylander projectors: 
   l= 0   rc=  2.243238   el= -1.759686   Ekb=**********   kbcos= -0.171774
   l= 1   rc=  2.328968   el= -0.663873   Ekb=-14.506792   kbcos= -0.519897
   l= 2   rc=  2.573941   el=  0.002031   Ekb= -1.137373   kbcos= -0.019581
   l= 3   rc=  2.606321   el=  0.003153   Ekb= -1.013546   kbcos= -0.003122

KBgen: Total number of Kleinman-Bylander projectors:   16
atom: -------------------------------------------------------------------------

atom: SANKEY-TYPE ORBITALS:
atom: Selected multiple-zeta basis: split     

SPLIT: Orbitals with angular momentum L= 0

SPLIT: Basis orbitals for state 2s

SPLIT: PAO cut-off radius determined from an
SPLIT: energy shift=  0.002000 Ry

   izeta = 1
                 lambda =    1.000000
                     rc =    4.243912
                 energy =   -1.758270
                kinetic =    3.286084
    potential(screened) =   -5.044353
       potential(ionic) =  -12.921184

   izeta = 2
                 rmatch =    2.187845
              splitnorm =    0.280000
                 energy =   -0.885018
                kinetic =    8.134434
    potential(screened) =   -9.019452
       potential(ionic) =  -17.710645

SPLIT: Orbitals with angular momentum L= 1

SPLIT: Basis orbitals for state 2p

SPLIT: PAO cut-off radius determined from an
SPLIT: energy shift=  0.002000 Ry

   izeta = 1
                 lambda =    1.000000
                     rc =    5.314825
                 energy =   -0.661986
                kinetic =    4.917472
    potential(screened) =   -5.579458
       potential(ionic) =  -13.236259

   izeta = 2
                 rmatch =    2.160663
              splitnorm =    0.280000
                 energy =   -0.068760
                kinetic =    9.183374
    potential(screened) =   -9.252135
       potential(ionic) =  -18.274251

POLgen: Perturbative polarization orbital with L=  2

POLgen: Polarization orbital for state 2p

   izeta = 1
                     rc =    5.314825
                 energy =    1.970580
                kinetic =    3.886128
    potential(screened) =   -1.915547
       potential(ionic) =   -7.749584
atom: Total number of Sankey-type orbitals: 13

atm_pop: Valence configuration (for local Pseudopot. screening):
 2s( 2.00)                                                            
 2p( 4.00)                                                            
Vna: chval, zval:    6.00000   6.00000

Vna:  Cut-off radius for the neutral-atom potential:   5.314825

atom: _________________________________________________________________________

prinput: Basis input ----------------------------------------------------------

PAO.BasisType split     

%block ChemicalSpeciesLabel
    1    1 H                       # Species index, atomic number, species label
    2    7 N                       # Species index, atomic number, species label
    3   14 Si                      # Species index, atomic number, species label
    4    8 O                       # Species index, atomic number, species label
%endblock ChemicalSpeciesLabel

%block PAO.Basis                 # Define Basis set
H                     1                    # Species label, number of l-shells
 n=1   0   2 P   1                   # n, l, Nzeta, Polarization, NzetaPol
   6.518      2.141   
   1.000      1.000   
N                     2                    # Species label, number of l-shells
 n=2   0   2                         # n, l, Nzeta 
   4.730      2.532   
   1.000      1.000   
 n=2   1   2 P   1                   # n, l, Nzeta, Polarization, NzetaPol
   5.924      2.532   
   1.000      1.000   
Si                    2                    # Species label, number of l-shells
 n=3   0   2                         # n, l, Nzeta 
   6.430      3.998   
   1.000      1.000   
 n=3   1   2 P   1                   # n, l, Nzeta, Polarization, NzetaPol
   8.465      4.588   
   1.000      1.000   
O                     2                    # Species label, number of l-shells
 n=2   0   2                         # n, l, Nzeta 
   4.244      2.188   
   1.000      1.000   
 n=2   1   2 P   1                   # n, l, Nzeta, Polarization, NzetaPol
   5.315      2.161   
   1.000      1.000   
%endblock PAO.Basis

prinput: ----------------------------------------------------------------------

Dumping basis to NetCDF file H.ion.nc
Dumping basis to NetCDF file N.ion.nc
Dumping basis to NetCDF file Si.ion.nc
Dumping basis to NetCDF file O.ion.nc
coor:   Atomic-coordinates input format  =     Cartesian coordinates
coor:                                          (in Angstroms)

siesta: Atomic coordinates (Bohr) and species
siesta:     -1.24657  11.56278   0.00000  1        1
siesta:     -2.58164  10.06983   0.00000  2        2
siesta:     -5.85141  10.90389   0.00000  3        3
siesta:     -6.14579  13.71957   0.00000  1        4
siesta:     -8.73007   7.95798   0.00000  3        5
siesta:    -11.53289   8.41686   0.00000  1        6
siesta:     -6.46544   4.34241   0.00000  3        7
siesta:     -7.91302   1.44599   0.00000  2        8
siesta:     -6.79761  -0.36288   0.00000  1        9
siesta:     -9.90030   1.29395   0.00000  1       10
siesta:     -3.22229   4.44667   0.00000  2       11
siesta:     -1.19079   6.96065   0.00000  3       12
siesta:      1.84916   6.92511   0.00000  4       13
siesta:     10.61355 -14.07759   0.00000  1       14
siesta:      8.65886 -13.66658   0.00000  2       15
siesta:      6.22979 -16.04876   0.00000  3       16
siesta:      7.18318 -18.71532  -0.00000  1       17
siesta:      3.13570 -15.14356   0.00000  2       18
siesta:      3.17659 -11.72506  -0.00000  3       19
siesta:      1.03072  -8.10005   0.00000  3       20
siesta:     -1.95457  -7.45403   0.00000  4       21
siesta:      3.27352  -5.43711   0.00000  2       22
siesta:      2.28576  -3.64645  -0.00000  1       23
siesta:      6.63017  -5.24735   0.00000  3       24
siesta:      7.81751  -2.22872   0.00000  2       25
siesta:      6.69523  -0.49602   0.00000  1       26
siesta:      9.79567  -1.98858  -0.00000  1       27
siesta:      8.75489  -7.70105  -0.00000  2       28
siesta:      7.16982 -10.55666   0.00000  3       29

siesta: System type = molecule  

initatomlists: Number of atoms, orbitals, and projectors:     29   297   394

siesta: ******************** Simulation parameters ****************************
siesta:
siesta: The following are some of the parameters of the simulation.
siesta: A complete list of the parameters used, including default values,
siesta: can be found in file out.fdf
siesta:
redata: Spin configuration                          = spin-orbit
redata: Number of spin components                   = 8
redata: Time-Reversal Symmetry                      = F
redata: Spin spiral                                 = F
############################################################
This spin-orbit implementation uses a local approximation.
From 4.2 and onwards the full non-local approximation is implemented
You are strongly advised to use >=4.2 versions!
############################################################
redata: Long output                                 =   F
redata: Number of Atomic Species                    =        4
redata: Charge density info will appear in .RHO file
redata: Write Mulliken Pop.                         = NO
redata: Matel table size (NRTAB)                    =     1024
redata: Mesh Cutoff                                 =   340.0000 Ry
redata: Net charge of the system                    =     0.0000 |e|
redata: Min. number of SCF Iter                     =        1
redata: Max. number of SCF Iter                     =      200
redata: SCF mix quantity                            = Hamiltonian
redata: Mix DM or H after convergence               =   F
redata: Recompute H after scf cycle                 =   F
redata: Mix DM in first SCF step                    =   T
redata: Write Pulay info on disk                    =   F
redata: New DM Occupancy tolerance                  = 0.000000000001
redata: No kicks to SCF
redata: DM Mixing Weight for Kicks                  =     0.5000
redata: Require Harris convergence for SCF          =   F
redata: Harris energy tolerance for SCF             =     0.000100 eV
redata: Require DM convergence for SCF              =   T
redata: DM tolerance for SCF                        =     0.000008
redata: Require EDM convergence for SCF             =   F
redata: EDM tolerance for SCF                       =     0.001000 eV
redata: Require H convergence for SCF               =   T
redata: Hamiltonian tolerance for SCF               =     0.000001 eV
redata: Require (free) Energy convergence for SCF   =   F
redata: (free) Energy tolerance for SCF             =     0.000100 eV
redata: Using Saved Data (generic)                  =   F
redata: Use continuation files for DM               =   T
redata: Neglect nonoverlap interactions             =   F
redata: Method of Calculation                       = Diagonalization
redata: Electronic Temperature                      =   299.9978 K
redata: Fix the spin of the system                  =   F
redata: Dynamics option                             = Verlet MD run
redata: Initial MD time step                        =        1
redata:   Final MD time step                        =        1
redata: Length of MD time step                      =     0.5000 fs
redata: Initial Temperature of MD run               =     0.0000 K
redata: Perform a MD quench                         =   F
mix.SCF: Pulay mixing                            = Pulay
mix.SCF:    Variant                              = stable
mix.SCF:    History steps                        = 6
mix.SCF:    Linear mixing weight                 =     0.250000
mix.SCF:    Mixing weight                        =     0.250000
mix.SCF:    SVD condition                        = 0.1000E-07
mix.SCF:    Restart steps                        = 24
mix.SCF:    Restart save steps                   = 3
mix.SCF: Spin-component mixing                   all
redata: Save all siesta data in one NC              =   F
redata: ***********************************************************************

%block SCF.Mixers
  Pulay
%endblock SCF.Mixers

%block SCF.Mixer.Pulay
  # Mixing method
  method pulay
  variant stable

  # Mixing options
  weight 0.2500
  weight.linear 0.2500
  history 6
  restart 24
  restart.save 3
%endblock SCF.Mixer.Pulay

Size of DM history Fstack: 3
Total number of electrons:    98.000000
Total ionic charge:    98.000000

* ProcessorY, Blocksize:    2  24


* Orbital distribution balance (max,min):    48    24


Time-reversal symmetry not used.

siesta: k-grid: Number of k-points =     1
siesta: k-grid: Cutoff (effective) =     5.000 Ang
siesta: k-grid: Supercell and displacements
siesta: k-grid:    1   0   0      0.000
siesta: k-grid:    0   1   0      0.000
siesta: k-grid:    0   0   1      0.000

diag: Algorithm                                     = ELPA-1stage
diag: Parallel over k                               =   F
diag: Use parallel 2D distribution                  =   T
diag: Parallel block-size                           = 24
diag: Parallel distribution                         =     2 x     4
diag: Used triangular part                          = Lower
diag: Absolute tolerance                            =  0.100E-15
diag: Orthogonalization factor                      =  0.100E-05
diag: Memory factor                                 =  1.0000


ts: **************************************************************
ts: Save H and S matrices                           =    F
ts: Save DM and EDM matrices                        =    F
ts: Only save the overlap matrix S                  =    F
ts: **************************************************************

************************ Begin: TS CHECKS AND WARNINGS ************************
************************ End: TS CHECKS AND WARNINGS **************************


                     ====================================
                        Begin MD step =      1
                     ====================================

outcoor: Atomic coordinates (Ang):                          
   -0.65965727    6.11875956    0.00000000   1       1  H
   -1.36614400    5.32872338    0.00000000   2       2  N
   -3.09643091    5.77008729    0.00000000   3       3  Si
   -3.25221059    7.26007955    0.00000000   1       4  H
   -4.61975253    4.21117977    0.00000000   3       5  Si
   -6.10294016    4.45401013    0.00000000   1       6  H
   -3.42136167    2.29790361    0.00000000   3       7  Si
   -4.18738713    0.76518687    0.00000000   2       8  N
   -3.59714058   -0.19202616    0.00000000   1       9  H
   -5.23900945    0.68472664    0.00000000   1      10  H
   -1.70516161    2.35307792    0.00000000   2      11  N
   -0.63013899    3.68341676    0.00000000   3      12  Si
    0.97853433    3.66460650    0.00000000   4      13  O
    5.61644830   -7.44953905    0.00000000   1      14  H
    4.58206954   -7.23203760    0.00000000   2      15  N
    3.29666389   -8.49263600    0.00000000   3      16  Si
    3.80117524   -9.90371886    0.00000000   1      17  H
    1.65934232   -8.01362137    0.00000000   2      18  N
    1.68097912   -6.20463398    0.00000000   3      19  Si
    0.54543521   -4.28636135    0.00000000   3      20  Si
   -1.03431493   -3.94450034    0.00000000   4      21  O
    1.73226934   -2.87719605    0.00000000   2      22  N
    1.20957366   -1.92961761    0.00000000   1      23  H
    3.50853448   -2.77677601    0.00000000   3      24  Si
    4.13684451   -1.17938608    0.00000000   2      25  N
    3.54296161   -0.26248101    0.00000000   1      26  H
    5.18364407   -1.05231197    0.00000000   1      27  H
    4.63288658   -4.07521596    0.00000000   2      28  N
    3.79410501   -5.58634043    0.00000000   3      29  Si

outcell: Unit cell vectors (Ang):
       30.000000    0.000000    0.000000
        0.000000   45.000000    0.000000
        0.000000    0.000000   10.000000

outcell: Cell vector modules (Ang)   :   30.000000   45.000000   10.000000
outcell: Cell angles (23,13,12) (deg):     90.0000     90.0000     90.0000
outcell: Cell volume (Ang**3)        :  13500.0000
<dSpData1D:S at geom step 1
  <sparsity:sparsity for geom step 1
    nrows_g=297 nrows=48 sparsity=.0873 nnzs=7699, refcount: 8>
  <dData1D:(new from dSpData1D) n=7699, refcount: 1>
refcount: 1>
new_DM -- step:     1
Initializing Density Matrix...

Attempting to read DM from file... Failed...
DM filled with atomic data:
<dSpData2D:DM initialized from atoms
  <sparsity:sparsity for geom step 1
    nrows_g=297 nrows=48 sparsity=.0873 nnzs=7699, refcount: 9>
  <dData2D:DM n=7699 m=8, refcount: 1>
refcount: 1>
     spin moment: S , {S} =   56.00000   0.00000   0.00000  56.00000
No. of atoms with KB's overlaping orbs in proc 0. Max # of overlaps:      26     142

Initializing spin-orbit part of the Hamiltonian
  Adding spin-orbit effects for H 
  Adding spin-orbit effects for N 
  Adding spin-orbit effects for Si
  Adding spin-orbit effects for O 


New grid distribution:   1
           1       1:  180    1:  125    1:   15
           2       1:  180    1:  125   16:   30
           3       1:  180    1:  125   31:   45
           4       1:  180    1:  125   46:   60
           5       1:  180  126:  250    1:   15
           6       1:  180  126:  250   16:   30
           7       1:  180  126:  250   31:   45
           8       1:  180  126:  250   46:   60

InitMesh: MESH =   360 x   500 x   120 =    21600000
InitMesh: (bp) =   180 x   250 x    60 =     2700000
InitMesh: Mesh cutoff (required, used) =   340.000   341.206 Ry
ExtMesh (bp) on 0 =   288 x   225 x   123 =     7970400
New grid distribution:   2
           1       1:  157   30:  207    1:   60
           2     158:  180   23:  207    1:   60
           3       1:   21  226:  250    1:   60
           4     158:  180    1:   22    1:   60
           5       1:  157    1:   29    1:   60
           6      22:  180  227:  250    1:   60
           7      22:  180  208:  226    1:   60
           8       1:   21  208:  225    1:   60
New grid distribution:   3
           1       1:  145   25:  191    1:   60
           2       1:  145    1:   24    1:   60
           3       1:   32  221:  250    1:   60
           4     146:  180    1:   26    1:   60
           5     146:  180   27:  191    1:   60
           6      33:  180  192:  228    1:   60
           7      33:  180  229:  250    1:   60
           8       1:   32  192:  220    1:   60
Setting up quadratic distribution...
ExtMesh (bp) on 0 =   265 x   278 x   168 =    12376560
PhiOnMesh: Number of (b)points on node 0 =              1676760
PhiOnMesh: nlist on node 0 =              1699429

stepf: Fermi-Dirac step function

siesta: Program's energy decomposition (eV):
siesta: Ebs     =      -595.702435
siesta: Eions   =      3585.165840
siesta: Ena     =       381.828380
siesta: Ekin    =      3369.101854
siesta: Enl     =     -3297.455081
siesta: Eso     =        -0.003410
siesta: Edftu   =         0.000000
siesta: DEna    =       153.556227
siesta: DUscf   =        81.815295
siesta: DUext   =         0.000000
siesta: Exc     =     -1204.088018
siesta: eta*DQ  =         0.000000
siesta: Emadel  =         0.000000
siesta: Emeta   =         0.000000
siesta: Emolmec =         0.000000
siesta: Ekinion =         0.000000
siesta: Eharris =     -4020.751913
siesta: Etot    =     -4100.410592
siesta: FreeEng =     -4100.411628

        iscf     Eharris(eV)        E_KS(eV)     FreeEng(eV)     dDmax    Ef(eV) dHmax(eV)
   scf:    1    -4020.751913    -4100.410592    -4100.411628  0.965675 -4.903622 22.240935
     spin moment: S , {S} =    2.00583   0.00000  -0.00000   2.00583
timer: Routine,Calls,Time,% = IterSCF        1      18.842  26.92
   scf:    2    -4145.555995    -4135.420793    -4135.421920  0.455079 -4.155761 12.055297
     spin moment: S , {S} =    1.99439  -0.00000  -0.00000   1.99439
   scf:    3    -4095.383506    -4130.015179    -4130.044352  0.428963 -4.311987 14.121206
     spin moment: S , {S} =    2.44621   0.00000   0.00000   2.44621
   scf:    4    -4150.620369    -4144.868779    -4144.868780  0.327373 -3.840095  7.152879
     spin moment: S , {S} =    0.00010   0.00000   0.00000   0.00010
   scf:    5    -4146.335587    -4145.721112    -4145.721112  0.040563 -3.581283  4.681492
     spin moment: S , {S} =    0.00006   0.00000   0.00000   0.00006
   scf:    6    -4146.473537    -4146.103928    -4146.103928  0.024107 -3.435096  2.403856
     spin moment: S , {S} =    0.00003   0.00000  -0.00000   0.00003
   scf:    7    -4146.476552    -4146.286867    -4146.286867  0.022452 -3.648593  0.920405
     spin moment: S , {S} =    0.00001   0.00000   0.00000   0.00001
   scf:    8    -4146.399794    -4146.341839    -4146.341839  0.012152 -3.583637  0.566875
     spin moment: S , {S} =    0.00000  -0.00000   0.00000   0.00000
   scf:    9    -4146.383472    -4146.361956    -4146.361956  0.007276 -3.696995  0.455808
     spin moment: S , {S} =    0.00000  -0.00000  -0.00000   0.00000
   scf:   10    -4146.417388    -4146.381152    -4146.381152  0.024648 -3.691121  0.270651
     spin moment: S , {S} =    0.00000   0.00000  -0.00000  -0.00000
   scf:   11    -4146.386011    -4146.383660    -4146.383660  0.005702 -3.677671  0.084877
     spin moment: S , {S} =    0.00000   0.00000  -0.00000  -0.00000
   scf:   12    -4146.385984    -4146.384832    -4146.384832  0.001653 -3.671338  0.038147
     spin moment: S , {S} =    0.00000   0.00000  -0.00000  -0.00000
   scf:   13    -4146.385569    -4146.385197    -4146.385197  0.001020 -3.668192  0.024663
     spin moment: S , {S} =    0.00000   0.00000  -0.00000  -0.00000
   scf:   14    -4146.385590    -4146.385386    -4146.385386  0.000778 -3.666598  0.014876
     spin moment: S , {S} =    0.00000   0.00000  -0.00000  -0.00000
   scf:   15    -4146.385562    -4146.385468    -4146.385468  0.000694 -3.665979  0.008816
     spin moment: S , {S} =    0.00000   0.00000  -0.00000  -0.00000
   scf:   16    -4146.385540    -4146.385502    -4146.385502  0.000537 -3.666077  0.004420
     spin moment: S , {S} =    0.00000   0.00000  -0.00000  -0.00000
   scf:   17    -4146.385525    -4146.385512    -4146.385512  0.000349 -3.666161  0.003458
     spin moment: S , {S} =    0.00000   0.00000  -0.00000   0.00000
   scf:   18    -4146.385519    -4146.385516    -4146.385516  0.000194 -3.666339  0.002324
     spin moment: S , {S} =    0.00000   0.00000  -0.00000   0.00000
   scf:   19    -4146.385520    -4146.385517    -4146.385517  0.000172 -3.666550  0.001508
     spin moment: S , {S} =    0.00000   0.00000  -0.00000   0.00000
   scf:   20    -4146.385518    -4146.385518    -4146.385518  0.000084 -3.666591  0.001134
     spin moment: S , {S} =    0.00000   0.00000  -0.00000   0.00000
   scf:   21    -4146.385519    -4146.385518    -4146.385518  0.000103 -3.666608  0.000746
     spin moment: S , {S} =    0.00000   0.00000  -0.00000   0.00000
   scf:   22    -4146.385519    -4146.385519    -4146.385519  0.000092 -3.666582  0.000345
     spin moment: S , {S} =    0.00000   0.00000  -0.00000   0.00000
   scf:   23    -4146.385519    -4146.385519    -4146.385519  0.000052 -3.666565  0.000188
     spin moment: S , {S} =    0.00000   0.00000  -0.00000   0.00000
   scf:   24    -4146.385519    -4146.385519    -4146.385519  0.000017 -3.666566  0.000116
     spin moment: S , {S} =    0.00000   0.00000  -0.00000   0.00000
mix: Pulay -- resetting history
   scf:   25    -4146.385519    -4146.385519    -4146.385519  0.000016 -3.666566  0.000071
     spin moment: S , {S} =    0.00000   0.00000  -0.00000   0.00000
   scf:   26    -4146.385519    -4146.385519    -4146.385519  0.000009 -3.666567  0.000039
     spin moment: S , {S} =    0.00000   0.00000  -0.00000   0.00000
   scf:   27    -4146.385519    -4146.385519    -4146.385519  0.000007 -3.666565  0.000019
     spin moment: S , {S} =    0.00000   0.00000  -0.00000   0.00000
   scf:   28    -4146.385519    -4146.385519    -4146.385519  0.000003 -3.666565  0.000012
     spin moment: S , {S} =    0.00000   0.00000  -0.00000  -0.00000
   scf:   29    -4146.385519    -4146.385519    -4146.385519  0.000001 -3.666565  0.000008
     spin moment: S , {S} =    0.00000   0.00000  -0.00000  -0.00000
   scf:   30    -4146.385519    -4146.385519    -4146.385519  0.000001 -3.666565  0.000003
     spin moment: S , {S} =    0.00000   0.00000  -0.00000  -0.00000
   scf:   31    -4146.385519    -4146.385519    -4146.385519  0.000000 -3.666565  0.000001
     spin moment: S , {S} =    0.00000   0.00000  -0.00000  -0.00000
   scf:   32    -4146.385519    -4146.385519    -4146.385519  0.000000 -3.666565  0.000001
     spin moment: S , {S} =    0.00000   0.00000  -0.00000  -0.00000
   scf:   33    -4146.385519    -4146.385519    -4146.385519  0.000000 -3.666565  0.000001
     spin moment: S , {S} =    0.00000   0.00000  -0.00000  -0.00000

SCF Convergence by DM+H criterion
max |DM_out - DM_in|         :     0.0000001436
max |H_out - H_in|      (eV) :     0.0000007511
SCF cycle converged after 33 iterations

Using DM_out to compute the final energy and forces
No. of atoms with KB's overlaping orbs in proc 0. Max # of overlaps:      26     142

siesta: E_KS(eV) =            -4146.3855

siesta: E_KS - E_eggbox =     -4146.3855
     spin moment: S , {S} =    0.00000   0.00000  -0.00000  -0.00000

siesta: Atomic forces (eV/Ang):
     1   -0.119230   -0.001633    0.000000
     2   -0.518426    0.307176    0.000000
     3    0.414022   -0.034754    0.000000
     4   -0.090995    0.179179   -0.000000
     5   -0.204568   -0.209814    0.000000
     6    0.030672    0.052641   -0.000000
     7    1.177140    0.991816   -0.000000
     8    0.794471   -2.288054    0.000000
     9   -1.207878    1.871766    0.000000
    10    0.115025   -0.251871   -0.000000
    11   -0.998990   -0.308444   -0.000000
    12    1.201956   -0.243492    0.000000
    13    1.992411    3.487262   -0.000000
    14   -0.014721   -0.033375    0.000000
    15    0.112863    0.032516    0.000000
    16    0.012713   -0.019566    0.000000
    17   -0.001910    0.047233   -0.000000
    18   -0.039624    0.045459   -0.000000
    19    0.256155    0.026520    0.000000
    20   -1.352300   -0.174147   -0.000000
    21    1.238334   -3.854017    0.000000
    22    0.336556    0.762313    0.000000
    23    0.213373   -0.587002   -0.000000
    24   -0.327160   -0.942657   -0.000000
    25   -0.483129    1.546365    0.000000
    26    0.834813   -1.193036    0.000000
    27   -0.141647    0.098364   -0.000000
    28    0.045487    0.702683    0.000000
    29   -0.307175   -0.405223    0.000000
----------------------------------------
   Tot    2.968238   -0.395793    0.000000
----------------------------------------
   Max    3.854017
   Res    0.820888    sqrt( Sum f_i^2 / 3N )
----------------------------------------
   Max    3.854017    constrained

Stress tensor Voigt[x,y,z,yz,xz,xy] (kbar):        0.52        0.18       -0.04        0.00        0.00       -0.49
(Free)E + p*V (eV/cell)    -4148.2483
Target enthalpy (eV/cell)    -4146.3855

siesta: Stress tensor (static) (eV/Ang**3):
         0.000325   -0.000307   -0.000000
        -0.000307    0.000115    0.000000
         0.000000    0.000000   -0.000026

siesta: Pressure (static):         -0.22107478  kBar

siesta: Stress tensor (total) (eV/Ang**3):
         0.000325   -0.000307   -0.000000
        -0.000307    0.000115    0.000000
         0.000000    0.000000   -0.000026

siesta: Pressure (total):         -0.22107478  kBar

siesta: Temp_ion =       0.000 K

siesta: Eigenvalues (eV):
ik =     1
  -21.7485  -21.7485  -21.7369  -21.7369  -21.4940  -21.4940  -21.4329  -21.4329  -21.1040  -21.1040
  -20.9689  -20.9689  -20.7137  -20.7137  -19.6911  -19.6911  -19.3076  -19.3076  -19.2272  -19.2272
  -14.6840  -14.6840  -13.7665  -13.7665  -13.2592  -13.2592  -13.0518  -13.0518  -12.9408  -12.9408
  -12.7954  -12.7954  -12.7386  -12.7386  -12.3508  -12.3508  -12.3416  -12.3416  -11.9634  -11.9634
  -11.3000  -11.3000  -10.7378  -10.7378  -10.6347  -10.6347  -10.6088  -10.6088  -10.0123  -10.0123
   -9.4875   -9.4875   -9.1389   -9.1389   -8.7195   -8.7195   -8.6077   -8.6077   -8.5683   -8.5683
   -8.5121   -8.5121   -8.3334   -8.3334   -8.0546   -8.0546   -7.7598   -7.7598   -7.5289   -7.5289
   -7.4924   -7.4924   -7.1954   -7.1954   -7.1534   -7.1534   -6.7580   -6.7580   -6.6728   -6.6728
   -6.4105   -6.4105   -6.3825   -6.3825   -6.0283   -6.0283   -5.9822   -5.9822   -5.9711   -5.9711
   -5.6689   -5.6689   -5.4780   -5.4780   -5.3888   -5.3888   -4.1733   -4.1733   -3.1595   -3.1595
   -2.2320   -2.2320   -2.1831   -2.1831   -2.1606   -2.1606   -1.7840   -1.7840   -1.7758   -1.7758
   -1.7207   -1.7207   -1.7170   -1.7170   -1.5202   -1.5202   -1.4336   -1.4336   -0.9009   -0.9009
   -0.8033   -0.8033   -0.6749   -0.6749   -0.2805   -0.2805   -0.0903   -0.0903    0.1182    0.1182
    0.4735    0.4735    0.5408    0.5408    0.6829    0.6829    0.7755    0.7755    0.9169    0.9169
    1.0388    1.0388    1.3696    1.3696    1.3945    1.3945    1.5008    1.5008    1.5123    1.5123
    1.8502    1.8502    1.9044    1.9044    1.9923    1.9923    2.4443    2.4443    2.8551    2.8551
    2.8665    2.8665    2.8855    2.8855    3.1078    3.1078    3.2289    3.2289    3.4081    3.4081
    3.5125    3.5125    3.8650    3.8650    3.9454    3.9454    4.1682    4.1682    4.3867    4.3867
    4.4991    4.4991    4.5040    4.5040    4.6541    4.6541    4.7216    4.7216    4.9239    4.9239
    4.9963    4.9963    5.1040    5.1040    5.3635    5.3635    5.5743    5.5743    5.8098    5.8098
    5.8377    5.8377    5.8897    5.8897    5.9893    5.9893    6.0548    6.0548    6.1052    6.1052
    6.2535    6.2535    6.4870    6.4870    6.6990    6.6990    6.8139    6.8139    6.9069    6.9069
    7.1132    7.1132    7.2990    7.2990    7.5480    7.5480    7.6450    7.6450    7.8471    7.8471
    7.9075    7.9075    8.0352    8.0352    8.1703    8.1703    8.3610    8.3610    8.3895    8.3895
    8.6307    8.6307    8.8385    8.8385    8.9824    8.9824    8.9906    8.9906    9.2485    9.2485
    9.3159    9.3159    9.3269    9.3269    9.7976    9.7976    9.9116    9.9116    9.9645    9.9645
   10.1723   10.1723   10.2407   10.2407   10.5678   10.5678   10.8662   10.8662   10.9183   10.9183
   11.0851   11.0851   11.0939   11.0939   11.2448   11.2448   11.7488   11.7488   11.8505   11.8505
   11.9082   11.9082   11.9862   11.9862   12.1957   12.1957   12.4970   12.4970   12.7907   12.7907
   12.8019   12.8019   12.9171   12.9171   13.4024   13.4024   13.5447   13.5447   13.7634   13.7634
   13.8752   13.8752   14.1830   14.1830   14.3867   14.3867   14.7551   14.7551   14.8678   14.8678
   14.9430   14.9430   15.4244   15.4244   16.1262   16.1262   16.5763   16.5763   16.7750   16.7750
   17.0403   17.0403   17.4043   17.4043   17.6816   17.6816   18.2867   18.2867   18.5336   18.5336
   18.7270   18.7270   19.2760   19.2760   19.4667   19.4667   20.0122   20.0122   20.3466   20.3466
   21.0509   21.0509   21.3187   21.3187   22.0546   22.0546   22.3157   22.3157   22.4601   22.4601
   22.9708   22.9708   23.3466   23.3466   23.8219   23.8219   23.9227   23.9227   23.9806   23.9806
   24.9318   24.9318   25.4522   25.4522   26.0433   26.0433   26.8201   26.8201   27.5274   27.5274
   28.3802   28.3802   29.0761   29.0761   29.2291   29.2291   29.5184   29.5184   29.7326   29.7326
   30.0823   30.0823   30.1998   30.1998   30.2944   30.2944   30.8151   30.8151   30.9600   30.9600
   31.1330   31.1330   31.2771   31.2771   31.6058   31.6058   31.6991   31.6991   32.2124   32.2124
   32.6613   32.6613   33.9243   33.9243   34.7160   34.7160   34.7237   34.7237   35.0171   35.0171
   35.1253   35.1253   35.1386   35.1386   35.6324   35.6324   35.7335   35.7335   35.9702   35.9702
   36.8366   36.8366   36.9475   36.9475   37.1235   37.1235   37.3811   37.3811   37.6584   37.6584
   38.3059   38.3059   38.4715   38.4715   39.4167   39.4167   39.4793   39.4793   39.8294   39.8294
   40.4998   40.4998   40.6106   40.6106   40.6851   40.6851   40.7521   40.7521   41.0216   41.0216
   41.0672   41.0672   41.3689   41.3689   42.5524   42.5524   42.9569   42.9569   42.9698   42.9698
   43.4438   43.4438   43.8392   43.8392   44.0078   44.0078   44.1097   44.1097   44.4088   44.4088
   44.7716   44.7716   44.7805   44.7805   45.1933   45.1933   45.5394   45.5394   46.1029   46.1029
   46.3867   46.3867   47.1102   47.1102   47.4468   47.4468   48.9245   48.9245   49.1691   49.1691
   49.5567   49.5567   50.4386   50.4386   50.5262   50.5262   51.0530   51.0530   51.1663   51.1663
   51.7012   51.7012   51.7111   51.7111   52.8195   52.8195   52.8663   52.8663   54.2463   54.2463
   54.4024   54.4024   54.5929   54.5929   54.8198   54.8198   55.7741   55.7741   55.8360   55.8360
   55.8638   55.8638   56.1416   56.1416   56.4631   56.4631   58.1459   58.1459   58.4568   58.4568
   58.7211   58.7211   60.2402   60.2402   60.3305   60.3305   60.6441   60.6441   61.1583   61.1583
   61.9107   61.9107   62.0594   62.0594   62.2435   62.2435   64.8403   64.8403   66.6171   66.6171
   66.8874   66.8874   67.2818   67.2818   68.1294   68.1294   68.6181   68.6181   70.9727   70.9727
   73.8862   73.8862   80.2743   80.2743   91.1871   91.1871   92.1146   92.1146   93.3319   93.3319
   98.3706   98.3706   98.6402   98.6402   99.5862   99.5862  103.1337  103.1337  103.7259  103.7259
  110.1790  110.1790  111.6497  111.6497  124.1422  124.1422  126.3019  126.3019  129.2544  129.2544
  135.2255  135.2255  138.3617  138.3617
siesta: Fermi energy =      -3.666565 eV

siesta: Program's energy decomposition (eV):
siesta: Ebs     =     -1124.153410
siesta: Eions   =      3585.165840
siesta: Ena     =       381.828380
siesta: Ekin    =      2902.714064
siesta: Enl     =     -2787.344650
siesta: Eso     =        -0.004276
siesta: Edftu   =         0.000000
siesta: DEna    =        46.888044
siesta: DUscf   =        14.329323
siesta: DUext   =         0.000000
siesta: Exc     =     -1119.630565
siesta: eta*DQ  =         0.000000
siesta: Emadel  =         0.000000
siesta: Emeta   =         0.000000
siesta: Emolmec =         0.000000
siesta: Ekinion =         0.000000
siesta: Eharris =     -4146.385519
siesta: Etot    =     -4146.385519
siesta: FreeEng =     -4146.385519

siesta: Final energy (eV):
siesta:  Band Struct. =   -1124.153410
siesta:       Kinetic =    2902.714064
siesta:       Hartree =   13571.413549
siesta:       Edftu   =       0.000000
siesta:       Eso     =      -0.004276
siesta:    Ext. field =       0.000000
siesta:   Exch.-corr. =   -1119.630565
siesta:  Ion-electron =  -29716.295295
siesta:       Ion-ion =   10215.417005
siesta:       Ekinion =       0.000000
siesta:         Total =   -4146.385519
siesta:         Fermi =      -3.666565

siesta: Atomic forces (eV/Ang):
siesta:      1   -0.119230   -0.001633    0.000000
siesta:      2   -0.518426    0.307176    0.000000
siesta:      3    0.414022   -0.034754    0.000000
siesta:      4   -0.090995    0.179179   -0.000000
siesta:      5   -0.204568   -0.209814    0.000000
siesta:      6    0.030672    0.052641   -0.000000
siesta:      7    1.177140    0.991816   -0.000000
siesta:      8    0.794471   -2.288054    0.000000
siesta:      9   -1.207878    1.871766    0.000000
siesta:     10    0.115025   -0.251871   -0.000000
siesta:     11   -0.998990   -0.308444   -0.000000
siesta:     12    1.201956   -0.243492    0.000000
siesta:     13    1.992411    3.487262   -0.000000
siesta:     14   -0.014721   -0.033375    0.000000
siesta:     15    0.112863    0.032516    0.000000
siesta:     16    0.012713   -0.019566    0.000000
siesta:     17   -0.001910    0.047233   -0.000000
siesta:     18   -0.039624    0.045459   -0.000000
siesta:     19    0.256155    0.026520    0.000000
siesta:     20   -1.352300   -0.174147   -0.000000
siesta:     21    1.238334   -3.854017    0.000000
siesta:     22    0.336556    0.762313    0.000000
siesta:     23    0.213373   -0.587002   -0.000000
siesta:     24   -0.327160   -0.942657   -0.000000
siesta:     25   -0.483129    1.546365    0.000000
siesta:     26    0.834813   -1.193036    0.000000
siesta:     27   -0.141647    0.098364   -0.000000
siesta:     28    0.045487    0.702683    0.000000
siesta:     29   -0.307175   -0.405223    0.000000
siesta: ----------------------------------------
siesta:    Tot    2.968238   -0.395793    0.000000

siesta: Stress tensor (static) (eV/Ang**3):
siesta:     0.000325   -0.000307   -0.000000
siesta:    -0.000307    0.000115    0.000000
siesta:     0.000000    0.000000   -0.000026

siesta: Cell volume =      13500.000000 Ang**3

siesta: Pressure (static):
siesta:                Solid            Molecule  Units
siesta:          -0.00000150         -0.00000791  Ry/Bohr**3
siesta:          -0.00013798         -0.00072584  eV/Ang**3
siesta:          -0.22107478         -1.16294423  kBar
(Free)E+ p_basis*V_orbitals  =       -4126.535101
(Free)Eharris+ p_basis*V_orbitals  =       -4126.535101
     spin moment: S , {S} =    0.00000   0.00000  -0.00000  -0.00000

siesta: Electric dipole (a.u.)  =    0.020994    1.473013    0.000000
siesta: Electric dipole (Debye) =    0.053362    3.744028    0.000000

cite: Please see "GC.bib" for an exhaustive BiBTeX file.
cite: Please clearly indicate Siesta version in published work: v4.1.5-1-g384057250
cite: This calculation has made use of the following articles
cite: which are encouraged to be cited in a published work.
        Primary SIESTA paper
          DOI: www.doi.org/10.1088/0953-8984/14/11/302
        Spin-orbit coupling (on-site approximation)
          DOI: www.doi.org/10.1088/0953-8984/19/19/489001


WARNING: alloc-realloc-dealloc name mismatch
         Name: atomlist isa
         Size:              -116. Bytes
         Node:     0
         Subsequent mismatches will not be reported
>> End of run:   1-FEB-2024  22:58:12
Job completed
