Siesta Version  : v4.1.5-1-g384057250
Architecture    : gcc
Compiler version: GNU Fortran (Ubuntu 11.3.0-1ubuntu1~22.04) 11.3.0
Compiler flags  : mpifort -O2 -fPIC -ftree-vectorize -fallow-argument-mismatch
PP flags        : -DFC_HAVE_ABORT -DMPI -DSIESTA__FLOOK -DSIESTA__METIS -DSIESTA__MUMPS -DCDF -DNCDF -DNCDF_4 -DNCDF_PARALLEL -DSIESTA__MRRR -DSIESTA__ELPA
Libraries       : libncdf.a libfdict.a  -lflookall -ldl -lnetcdff -lnetcdf -lhdf5_hl -lhdf5 -lhdf5_fortran -lz -lscalapack-openmpi -lopenblas -lmetis -lzmumps -lcmumps -ldmumps -lmumps_common -lpord -lsmumps -lesmumps -lscotch -lscotcherr -fopenmp -lelpa
PARALLEL version
NetCDF support
NetCDF-4 support
NetCDF-4 MPI-IO support
METIS ordering support
Lua support

* Running on 4 nodes in parallel
>> Start of run:   4-JUL-2023  11:01:54

                           ***********************       
                           *  WELCOME TO SIESTA  *       
                           ***********************       

reinit: Reading from standard input
reinit: Dumped input in INPUT_TMP.41081
************************** Dump of input data file ****************************
SystemLabel      GC
NumberOfAtoms    29
NumberOfSpecies  4
%block ChemicalSpeciesLabel
    1    8  O
    2    7  N
    3   14  Si
    4    1  H
%endblock ChemicalSpeciesLabel
# Single point calculation
MD.TypeOfRun                CG
MD.Steps                    0
SCF.MustConverge            F # In case it does not. There can be 2 very close atoms
AtomicCoordinatesFormat NotScaledCartesianAng
%block AtomicCoordinatesAndAtomicSpecies
0.958671510    3.803529300    0.000000000       1
-3.038688210   0.998073330    0.000000000       2
2.066567750    1.099065770    0.000000000       2
1.029569860    -1.834680850   0.000000000       2
-2.108567660   -1.881798240   0.000000000       2
3.912411070    -1.180894430   0.000000000       2
-1.235636790   1.044983000    0.000000000       3
-0.501909240   -1.031832280   0.000000000       3
0.629463280    2.232755840    0.000000000       3
2.280054370    -0.658293540   0.000000000       3
-3.424812990   -0.662324160   0.000000000       3
2.965974160    1.682263990    0.000000000       4
-4.796229390   -1.238728480   0.000000000       4
4.096559410    -2.214148760   0.000000000       4
4.792108680    -0.529147250   0.000000000       4
-2.266861300   -2.922393730   0.000000000       4
5.043720639    5.280658296    0.000000000       3
6.969198389    6.472287626    0.000000000       3
6.504391999    2.546103926    0.000000000       3
8.575571919    4.993150516    0.000000000       3
5.146005179    3.571303606    0.000000000       2
3.464342549    5.950887786    0.000000000       2
8.157461899    3.261267606    0.000000000       2
7.277689209    7.936948986    0.000000000       4
10.067244829   5.193129976    0.000000000       4
3.279716109    6.985761516    0.000000000       4
2.572250759    5.279599056    0.000000000       4
6.494261399    0.947875406    0.000000000       1
8.934060279    2.539437406    0.000000000       4
%endblock AtomicCoordinatesAndAtomicSpecies
%include ../../../Defaults.fdf
************************** End of input data file *****************************

reinit: -----------------------------------------------------------------------
reinit: System Name: 
reinit: -----------------------------------------------------------------------
reinit: System Label: GC
reinit: -----------------------------------------------------------------------

initatom: Reading input for the pseudopotentials and atomic orbitals ----------
Species number:   1 Atomic number:    8 Label: O
Species number:   2 Atomic number:    7 Label: N
Species number:   3 Atomic number:   14 Label: Si
Species number:   4 Atomic number:    1 Label: H

Ground state valence configuration:   2s02  2p04
Reading pseudopotential information in formatted form from O.psf

Pseudopotential generated from a relativistic atomic calculation

Valence configuration for pseudopotential generation:
2s( 2.00) rc: 0.45
2p( 4.00) rc: 0.92
3d( 0.00) rc: 2.24
4f( 0.00) rc: 0.25
Ground state valence configuration:   2s02  2p03
Reading pseudopotential information in formatted form from N.psf

Pseudopotential generated from a relativistic atomic calculation

Valence configuration for pseudopotential generation:
2s( 2.00) rc: 0.94
2p( 3.00) rc: 0.59
3d( 0.00) rc: 3.46
4f( 0.00) rc: 2.47
Ground state valence configuration:   3s02  3p02
Reading pseudopotential information in formatted form from Si.psf

Pseudopotential generated from a relativistic atomic calculation

Valence configuration for pseudopotential generation:
3s( 2.00) rc: 1.67
3p( 2.00) rc: 2.04
3d( 0.00) rc: 2.89
4f( 0.00) rc: 2.49
Ground state valence configuration:   1s01
Reading pseudopotential information in formatted form from H.psf

Pseudopotential generated from a relativistic atomic calculation

Valence configuration for pseudopotential generation:
1s( 1.00) rc: 0.01
2p( 0.00) rc: 0.60
3d( 0.00) rc: 1.99
4f( 0.00) rc: 2.49
For O, standard SIESTA heuristics set lmxkb to 3
 (one more than the basis l, including polarization orbitals).
Use PS.lmax or PS.KBprojectors blocks to override.
For N, standard SIESTA heuristics set lmxkb to 3
 (one more than the basis l, including polarization orbitals).
Use PS.lmax or PS.KBprojectors blocks to override.
For Si, standard SIESTA heuristics set lmxkb to 3
 (one more than the basis l, including polarization orbitals).
Use PS.lmax or PS.KBprojectors blocks to override.
For H, standard SIESTA heuristics set lmxkb to 2
 (one more than the basis l, including polarization orbitals).
Use PS.lmax or PS.KBprojectors blocks to override.

<basis_specs>
===============================================================================
O                    Z=   8    Mass=  16.000        Charge= 0.17977+309
Lmxo=1 Lmxkb= 3    BasisType=split      Semic=F
L=0  Nsemic=0  Cnfigmx=2
          i=1  nzeta=2  polorb=0  (2s)
            splnorm:   0.28000    
               vcte:    0.0000    
               rinn:    0.0000    
               qcoe:    0.0000    
               qyuk:    0.0000    
               qwid:   0.10000E-01
                rcs:    0.0000      0.0000    
            lambdas:    1.0000      1.0000    
L=1  Nsemic=0  Cnfigmx=2
          i=1  nzeta=2  polorb=1  (2p)
            splnorm:   0.28000    
               vcte:    0.0000    
               rinn:    0.0000    
               qcoe:    0.0000    
               qyuk:    0.0000    
               qwid:   0.10000E-01
                rcs:    0.0000      0.0000    
            lambdas:    1.0000      1.0000    
-------------------------------------------------------------------------------
L=0  Nkbl=1  erefs: 0.17977+309
L=1  Nkbl=1  erefs: 0.17977+309
L=2  Nkbl=1  erefs: 0.17977+309
L=3  Nkbl=1  erefs: 0.17977+309
===============================================================================
</basis_specs>

atom: Called for O                     (Z =   8)

read_vps: Pseudopotential generation method:
read_vps: ATM4.2.7  Troullier-Martins                       
Valence charge for ps generation:    6.00000

xc_check: Exchange-correlation functional:
xc_check: GGA Perdew, Burke & Ernzerhof 1996
V l=0 = -2*Zval/r beyond r=  1.1000
V l=1 = -2*Zval/r beyond r=  1.1000
V l=2 = -2*Zval/r beyond r=  2.2154
V l=3 = -2*Zval/r beyond r=  1.1000
All V_l potentials equal beyond r=  2.2154
This should be close to max(r_c) in ps generation
All pots = -2*Zval/r beyond r=  2.2154

VLOCAL1: 99.0% of the norm of Vloc inside      8.845 Ry
VLOCAL1: 99.9% of the norm of Vloc inside     20.157 Ry
atom: Maximum radius for 4*pi*r*r*local-pseudopot. charge    2.67231
atom: Maximum radius for r*vlocal+2*Zval:    2.32897
GHOST: No ghost state for L =  0
GHOST: No ghost state for L =  1
GHOST: No ghost state for L =  2
GHOST: No ghost state for L =  3

KBgen: Kleinman-Bylander projectors: 
   l= 0   rc=  2.243238   el= -1.759686   Ekb=**********   kbcos= -0.171774
   l= 1   rc=  2.328968   el= -0.663873   Ekb=-14.506792   kbcos= -0.519897
   l= 2   rc=  2.573941   el=  0.002031   Ekb= -1.137373   kbcos= -0.019581
   l= 3   rc=  2.606321   el=  0.003153   Ekb= -1.013546   kbcos= -0.003122

KBgen: Total number of Kleinman-Bylander projectors:   16
atom: -------------------------------------------------------------------------

atom: SANKEY-TYPE ORBITALS:
atom: Selected multiple-zeta basis: split     

SPLIT: Orbitals with angular momentum L= 0

SPLIT: Basis orbitals for state 2s

SPLIT: PAO cut-off radius determined from an
SPLIT: energy shift=  0.002000 Ry

   izeta = 1
                 lambda =    1.000000
                     rc =    4.243912
                 energy =   -1.758270
                kinetic =    3.286084
    potential(screened) =   -5.044353
       potential(ionic) =  -12.921184

   izeta = 2
                 rmatch =    2.187845
              splitnorm =    0.280000
                 energy =   -0.885018
                kinetic =    8.134434
    potential(screened) =   -9.019452
       potential(ionic) =  -17.710645

SPLIT: Orbitals with angular momentum L= 1

SPLIT: Basis orbitals for state 2p

SPLIT: PAO cut-off radius determined from an
SPLIT: energy shift=  0.002000 Ry

   izeta = 1
                 lambda =    1.000000
                     rc =    5.314825
                 energy =   -0.661986
                kinetic =    4.917472
    potential(screened) =   -5.579458
       potential(ionic) =  -13.236259

   izeta = 2
                 rmatch =    2.160663
              splitnorm =    0.280000
                 energy =   -0.068760
                kinetic =    9.183374
    potential(screened) =   -9.252135
       potential(ionic) =  -18.274251

POLgen: Perturbative polarization orbital with L=  2

POLgen: Polarization orbital for state 2p

   izeta = 1
                     rc =    5.314825
                 energy =    1.970580
                kinetic =    3.886128
    potential(screened) =   -1.915547
       potential(ionic) =   -7.749584
atom: Total number of Sankey-type orbitals: 13

atm_pop: Valence configuration (for local Pseudopot. screening):
 2s( 2.00)                                                            
 2p( 4.00)                                                            
Vna: chval, zval:    6.00000   6.00000

Vna:  Cut-off radius for the neutral-atom potential:   5.314825

atom: _________________________________________________________________________

<basis_specs>
===============================================================================
N                    Z=   7    Mass=  14.010        Charge= 0.17977+309
Lmxo=1 Lmxkb= 3    BasisType=split      Semic=F
L=0  Nsemic=0  Cnfigmx=2
          i=1  nzeta=2  polorb=0  (2s)
            splnorm:   0.28000    
               vcte:    0.0000    
               rinn:    0.0000    
               qcoe:    0.0000    
               qyuk:    0.0000    
               qwid:   0.10000E-01
                rcs:    0.0000      0.0000    
            lambdas:    1.0000      1.0000    
L=1  Nsemic=0  Cnfigmx=2
          i=1  nzeta=2  polorb=1  (2p)
            splnorm:   0.28000    
               vcte:    0.0000    
               rinn:    0.0000    
               qcoe:    0.0000    
               qyuk:    0.0000    
               qwid:   0.10000E-01
                rcs:    0.0000      0.0000    
            lambdas:    1.0000      1.0000    
-------------------------------------------------------------------------------
L=0  Nkbl=1  erefs: 0.17977+309
L=1  Nkbl=1  erefs: 0.17977+309
L=2  Nkbl=1  erefs: 0.17977+309
L=3  Nkbl=1  erefs: 0.17977+309
===============================================================================
</basis_specs>

atom: Called for N                     (Z =   7)

read_vps: Pseudopotential generation method:
read_vps: ATM4.2.7  Troullier-Martins                       
Valence charge for ps generation:    5.00000

xc_check: Exchange-correlation functional:
xc_check: GGA Perdew, Burke & Ernzerhof 1996
V l=0 = -2*Zval/r beyond r=  1.2889
V l=1 = -2*Zval/r beyond r=  1.2889
V l=2 = -2*Zval/r beyond r=  3.4178
V l=3 = -2*Zval/r beyond r=  2.4084
All V_l potentials equal beyond r=  3.3753
This should be close to max(r_c) in ps generation
All pots = -2*Zval/r beyond r=  3.4178

VLOCAL1: 99.0% of the norm of Vloc inside      3.810 Ry
VLOCAL1: 99.9% of the norm of Vloc inside      8.683 Ry
atom: Maximum radius for 4*pi*r*r*local-pseudopot. charge    4.02088
atom: Maximum radius for r*vlocal+2*Zval:    3.54838
GHOST: No ghost state for L =  0
GHOST: No ghost state for L =  1
GHOST: No ghost state for L =  2
GHOST: No ghost state for L =  3

KBgen: Kleinman-Bylander projectors: 
   l= 0   rc=  3.417763   el= -1.365098   Ekb= -4.433130   kbcos= -0.707855
   l= 1   rc=  3.375302   el= -0.521201   Ekb=-13.264039   kbcos= -0.535594
   l= 2   rc=  3.872880   el=  0.001991   Ekb= -0.641094   kbcos= -0.062456
   l= 3   rc=  3.970931   el=  0.003093   Ekb= -0.474517   kbcos= -0.018236

KBgen: Total number of Kleinman-Bylander projectors:   16
atom: -------------------------------------------------------------------------

atom: SANKEY-TYPE ORBITALS:
atom: Selected multiple-zeta basis: split     

SPLIT: Orbitals with angular momentum L= 0

SPLIT: Basis orbitals for state 2s

SPLIT: PAO cut-off radius determined from an
SPLIT: energy shift=  0.002000 Ry

   izeta = 1
                 lambda =    1.000000
                     rc =    4.730425
                 energy =   -1.363399
                kinetic =    1.245246
    potential(screened) =   -2.608645
       potential(ionic) =   -8.121105

   izeta = 2
                 rmatch =    2.531849
              splitnorm =    0.280000
                 energy =   -0.959908
                kinetic =    2.409435
    potential(screened) =   -3.369343
       potential(ionic) =   -9.427975

SPLIT: Orbitals with angular momentum L= 1

SPLIT: Basis orbitals for state 2p

SPLIT: PAO cut-off radius determined from an
SPLIT: energy shift=  0.002000 Ry

   izeta = 1
                 lambda =    1.000000
                     rc =    5.924108
                 energy =   -0.519262
                kinetic =    3.672940
    potential(screened) =   -4.192202
       potential(ionic) =   -9.518354

   izeta = 2
                 rmatch =    2.531849
              splitnorm =    0.280000
                 energy =   -0.104258
                kinetic =    6.807538
    potential(screened) =   -6.911796
       potential(ionic) =  -13.149920

POLgen: Perturbative polarization orbital with L=  2

POLgen: Polarization orbital for state 2p

   izeta = 1
                     rc =    5.924108
                 energy =    1.427508
                kinetic =    2.872379
    potential(screened) =   -1.444871
       potential(ionic) =   -5.563644
atom: Total number of Sankey-type orbitals: 13

atm_pop: Valence configuration (for local Pseudopot. screening):
 2s( 2.00)                                                            
 2p( 3.00)                                                            
Vna: chval, zval:    5.00000   5.00000

Vna:  Cut-off radius for the neutral-atom potential:   5.924108

atom: _________________________________________________________________________

<basis_specs>
===============================================================================
Si                   Z=  14    Mass=  28.090        Charge= 0.17977+309
Lmxo=1 Lmxkb= 3    BasisType=split      Semic=F
L=0  Nsemic=0  Cnfigmx=3
          i=1  nzeta=2  polorb=0  (3s)
            splnorm:   0.28000    
               vcte:    0.0000    
               rinn:    0.0000    
               qcoe:    0.0000    
               qyuk:    0.0000    
               qwid:   0.10000E-01
                rcs:    0.0000      0.0000    
            lambdas:    1.0000      1.0000    
L=1  Nsemic=0  Cnfigmx=3
          i=1  nzeta=2  polorb=1  (3p)
            splnorm:   0.28000    
               vcte:    0.0000    
               rinn:    0.0000    
               qcoe:    0.0000    
               qyuk:    0.0000    
               qwid:   0.10000E-01
                rcs:    0.0000      0.0000    
            lambdas:    1.0000      1.0000    
-------------------------------------------------------------------------------
L=0  Nkbl=1  erefs: 0.17977+309
L=1  Nkbl=1  erefs: 0.17977+309
L=2  Nkbl=1  erefs: 0.17977+309
L=3  Nkbl=1  erefs: 0.17977+309
===============================================================================
</basis_specs>

atom: Called for Si                    (Z =  14)

read_vps: Pseudopotential generation method:
read_vps: ATM4.2.7  Troullier-Martins                       
Valence charge for ps generation:    4.00000

xc_check: Exchange-correlation functional:
xc_check: GGA Perdew, Burke & Ernzerhof 1996
V l=0 = -2*Zval/r beyond r=  2.7826
V l=1 = -2*Zval/r beyond r=  2.7826
V l=2 = -2*Zval/r beyond r=  2.9253
V l=3 = -2*Zval/r beyond r=  2.7826
All V_l potentials equal beyond r=  2.8530
This should be close to max(r_c) in ps generation
All pots = -2*Zval/r beyond r=  2.9253

VLOCAL1: 99.0% of the norm of Vloc inside      5.333 Ry
VLOCAL1: 99.9% of the norm of Vloc inside     12.154 Ry
atom: Maximum radius for 4*pi*r*r*local-pseudopot. charge    3.39869
atom: Maximum radius for r*vlocal+2*Zval:    2.96205
GHOST: No ghost state for L =  0
GHOST: No ghost state for L =  1
GHOST: No ghost state for L =  2
GHOST: No ghost state for L =  3

KBgen: Kleinman-Bylander projectors: 
   l= 0   rc=  3.075247   el= -0.794092   Ekb=  5.879390   kbcos=  0.167461
   l= 1   rc=  3.153101   el= -0.300068   Ekb=  2.642817   kbcos=  0.058301
   l= 2   rc=  3.273594   el=  0.001958   Ekb= -1.185135   kbcos= -0.104411
   l= 3   rc=  3.232927   el=  0.003046   Ekb= -0.497174   kbcos= -0.015889

KBgen: Total number of Kleinman-Bylander projectors:   16
atom: -------------------------------------------------------------------------

atom: SANKEY-TYPE ORBITALS:
atom: Selected multiple-zeta basis: split     

SPLIT: Orbitals with angular momentum L= 0

SPLIT: Basis orbitals for state 3s

SPLIT: PAO cut-off radius determined from an
SPLIT: energy shift=  0.002000 Ry

   izeta = 1
                 lambda =    1.000000
                     rc =    6.429618
                 energy =   -0.792283
                kinetic =    0.525293
    potential(screened) =   -1.317576
       potential(ionic) =   -3.744923

   izeta = 2
                 rmatch =    3.998416
              splitnorm =    0.280000
                 energy =   -0.583081
                kinetic =    1.069570
    potential(screened) =   -1.652651
       potential(ionic) =   -4.235185

SPLIT: Orbitals with angular momentum L= 1

SPLIT: Basis orbitals for state 3p

SPLIT: PAO cut-off radius determined from an
SPLIT: energy shift=  0.002000 Ry

   izeta = 1
                 lambda =    1.000000
                     rc =    8.464845
                 energy =   -0.298236
                kinetic =    0.785360
    potential(screened) =   -1.083596
       potential(ionic) =   -3.273779

   izeta = 2
                 rmatch =    4.587816
              splitnorm =    0.280000
                 energy =   -0.131871
                kinetic =    1.403687
    potential(screened) =   -1.535557
       potential(ionic) =   -4.015310

POLgen: Perturbative polarization orbital with L=  2

POLgen: Polarization orbital for state 3p

   izeta = 1
                     rc =    8.464845
                 energy =    0.321949
                kinetic =    1.055677
    potential(screened) =   -0.733728
       potential(ionic) =   -2.672950
atom: Total number of Sankey-type orbitals: 13

atm_pop: Valence configuration (for local Pseudopot. screening):
 3s( 2.00)                                                            
 3p( 2.00)                                                            
Vna: chval, zval:    4.00000   4.00000

Vna:  Cut-off radius for the neutral-atom potential:   8.464845

atom: _________________________________________________________________________

<basis_specs>
===============================================================================
H                    Z=   1    Mass=  1.0100        Charge= 0.17977+309
Lmxo=0 Lmxkb= 2    BasisType=split      Semic=F
L=0  Nsemic=0  Cnfigmx=1
          i=1  nzeta=2  polorb=1  (1s)
            splnorm:   0.62000    
               vcte:    0.0000    
               rinn:    0.0000    
               qcoe:    0.0000    
               qyuk:    0.0000    
               qwid:   0.10000E-01
                rcs:    0.0000      0.0000    
            lambdas:    1.0000      1.0000    
-------------------------------------------------------------------------------
L=0  Nkbl=1  erefs: 0.17977+309
L=1  Nkbl=1  erefs: 0.17977+309
L=2  Nkbl=1  erefs: 0.17977+309
===============================================================================
</basis_specs>

atom: Called for H                     (Z =   1)

read_vps: Pseudopotential generation method:
read_vps: ATM4.2.7  Troullier-Martins                       
Valence charge for ps generation:    1.00000

xc_check: Exchange-correlation functional:
xc_check: GGA Perdew, Burke & Ernzerhof 1996
V l=0 = -2*Zval/r beyond r=  0.0098
V l=1 = -2*Zval/r beyond r=  0.5817
V l=2 = -2*Zval/r beyond r=  1.9372
All V_l potentials equal beyond r=  1.9372
This should be close to max(r_c) in ps generation
All pots = -2*Zval/r beyond r=  1.9372

VLOCAL1: 99.0% of the norm of Vloc inside     11.567 Ry
VLOCAL1: 99.9% of the norm of Vloc inside     26.362 Ry
atom: Maximum radius for 4*pi*r*r*local-pseudopot. charge    2.25106
atom: Maximum radius for r*vlocal+2*Zval:    1.91306
GHOST: No ghost state for L =  0
GHOST: No ghost state for L =  1
GHOST: No ghost state for L =  2

KBgen: Kleinman-Bylander projectors: 
   l= 0   rc=  2.036604   el= -0.477180   Ekb= -6.081590   kbcos= -0.277285
   l= 1   rc=  2.195416   el=  0.001076   Ekb= -0.926943   kbcos= -0.034643
   l= 2   rc=  2.251056   el=  0.002010   Ekb= -0.130941   kbcos= -0.009788

KBgen: Total number of Kleinman-Bylander projectors:    9
atom: -------------------------------------------------------------------------

atom: SANKEY-TYPE ORBITALS:
atom: Selected multiple-zeta basis: split     

SPLIT: Orbitals with angular momentum L= 0

SPLIT: Basis orbitals for state 1s

SPLIT: PAO cut-off radius determined from an
SPLIT: energy shift=  0.002000 Ry

   izeta = 1
                 lambda =    1.000000
                     rc =    6.518340
                 energy =   -0.475305
                kinetic =    0.912139
    potential(screened) =   -1.387444
       potential(ionic) =   -1.907295

   izeta = 2
                 rmatch =    2.141150
              splitnorm =    0.620000
                 energy =    0.566467
                kinetic =    3.772856
    potential(screened) =   -3.206389
       potential(ionic) =   -3.759093

POLgen: Perturbative polarization orbital with L=  1

POLgen: Polarization orbital for state 1s

   izeta = 1
                     rc =    6.518340
                 energy =    0.533861
                kinetic =    1.121086
    potential(screened) =   -0.587225
       potential(ionic) =   -1.053027
atom: Total number of Sankey-type orbitals:  5

atm_pop: Valence configuration (for local Pseudopot. screening):
 1s( 1.00)                                                            
Vna: chval, zval:    1.00000   1.00000

Vna:  Cut-off radius for the neutral-atom potential:   6.518340

atom: _________________________________________________________________________

prinput: Basis input ----------------------------------------------------------

PAO.BasisType split     

%block ChemicalSpeciesLabel
    1    8 O                       # Species index, atomic number, species label
    2    7 N                       # Species index, atomic number, species label
    3   14 Si                      # Species index, atomic number, species label
    4    1 H                       # Species index, atomic number, species label
%endblock ChemicalSpeciesLabel

%block PAO.Basis                 # Define Basis set
O                     2                    # Species label, number of l-shells
 n=2   0   2                         # n, l, Nzeta 
   4.244      2.188   
   1.000      1.000   
 n=2   1   2 P   1                   # n, l, Nzeta, Polarization, NzetaPol
   5.315      2.161   
   1.000      1.000   
N                     2                    # Species label, number of l-shells
 n=2   0   2                         # n, l, Nzeta 
   4.730      2.532   
   1.000      1.000   
 n=2   1   2 P   1                   # n, l, Nzeta, Polarization, NzetaPol
   5.924      2.532   
   1.000      1.000   
Si                    2                    # Species label, number of l-shells
 n=3   0   2                         # n, l, Nzeta 
   6.430      3.998   
   1.000      1.000   
 n=3   1   2 P   1                   # n, l, Nzeta, Polarization, NzetaPol
   8.465      4.588   
   1.000      1.000   
H                     1                    # Species label, number of l-shells
 n=1   0   2 P   1                   # n, l, Nzeta, Polarization, NzetaPol
   6.518      2.141   
   1.000      1.000   
%endblock PAO.Basis

prinput: ----------------------------------------------------------------------

Dumping basis to NetCDF file O.ion.nc
Dumping basis to NetCDF file N.ion.nc
Dumping basis to NetCDF file Si.ion.nc
Dumping basis to NetCDF file H.ion.nc
coor:   Atomic-coordinates input format  =     Cartesian coordinates
coor:                                          (in Angstroms)

siesta: Atomic coordinates (Bohr) and species
siesta:      1.81163   7.18763   0.00000  1        1
siesta:     -5.74229   1.88609   0.00000  2        2
siesta:      3.90525   2.07693   0.00000  2        3
siesta:      1.94561  -3.46705   0.00000  2        4
siesta:     -3.98462  -3.55608   0.00000  2        5
siesta:      7.39339  -2.23157   0.00000  2        6
siesta:     -2.33502   1.97473   0.00000  3        7
siesta:     -0.94847  -1.94988   0.00000  3        8
siesta:      1.18951   4.21930   0.00000  3        9
siesta:      4.30868  -1.24399   0.00000  3       10
siesta:     -6.47196  -1.25161   0.00000  3       11
siesta:      5.60488   3.17902   0.00000  4       12
siesta:     -9.06356  -2.34086   0.00000  4       13
siesta:      7.74138  -4.18414   0.00000  4       14
siesta:      9.05578  -0.99994   0.00000  4       15
siesta:     -4.28375  -5.52253   0.00000  4       16
siesta:      9.53125   9.97900   0.00000  3       17
siesta:     13.16988  12.23086   0.00000  3       18
siesta:     12.29152   4.81144   0.00000  3       19
siesta:     16.20549   9.43569   0.00000  3       20
siesta:      9.72454   6.74879   0.00000  2       21
siesta:      6.54666  11.24555   0.00000  2       22
siesta:     15.41538   6.16291   0.00000  2       23
siesta:     13.75284  14.99867   0.00000  4       24
siesta:     19.02434   9.81360   0.00000  4       25
siesta:      6.19777  13.20118   0.00000  4       26
siesta:      4.86085   9.97700   0.00000  4       27
siesta:     12.27238   1.79123   0.00000  1       28
siesta:     16.88293   4.79884   0.00000  4       29

siesta: Automatic unit cell vectors (Ang):
siesta:   23.938404    0.000000    0.000000
siesta:    0.000000   19.533860    0.000000
siesta:    0.000000    0.000000    9.854683

siesta: System type = molecule  

initatomlists: Number of atoms, orbitals, and projectors:     29   297   394

siesta: ******************** Simulation parameters ****************************
siesta:
siesta: The following are some of the parameters of the simulation.
siesta: A complete list of the parameters used, including default values,
siesta: can be found in file out.fdf
siesta:
redata: Spin configuration                          = spin-orbit
redata: Number of spin components                   = 8
redata: Time-Reversal Symmetry                      = F
redata: Spin spiral                                 = F
############################################################
This spin-orbit implementation uses a local approximation.
From 4.2 and onwards the full non-local approximation is implemented
You are strongly advised to use >=4.2 versions!
############################################################
redata: Long output                                 =   F
redata: Number of Atomic Species                    =        4
redata: Charge density info will appear in .RHO file
redata: Write Mulliken Pop.                         = Atomic and Orbital charges
redata: Matel table size (NRTAB)                    =     1024
redata: Mesh Cutoff                                 =   340.0000 Ry
redata: Net charge of the system                    =     0.0000 |e|
redata: Min. number of SCF Iter                     =        1
redata: Max. number of SCF Iter                     =      200
redata: SCF mix quantity                            = Hamiltonian
redata: Mix DM or H after convergence               =   F
redata: Recompute H after scf cycle                 =   F
redata: Mix DM in first SCF step                    =   T
redata: Write Pulay info on disk                    =   F
redata: New DM Occupancy tolerance                  = 0.000000000001
redata: No kicks to SCF
redata: DM Mixing Weight for Kicks                  =     0.5000
redata: Require Harris convergence for SCF          =   F
redata: Harris energy tolerance for SCF             =     0.000100 eV
redata: Require DM convergence for SCF              =   T
redata: DM tolerance for SCF                        =     0.000008
redata: Require EDM convergence for SCF             =   F
redata: EDM tolerance for SCF                       =     0.001000 eV
redata: Require H convergence for SCF               =   T
redata: Hamiltonian tolerance for SCF               =     0.000001 eV
redata: Require (free) Energy convergence for SCF   =   F
redata: (free) Energy tolerance for SCF             =     0.000100 eV
redata: Using Saved Data (generic)                  =   F
redata: Use continuation files for DM               =   F
redata: Neglect nonoverlap interactions             =   F
redata: Method of Calculation                       = Diagonalization
redata: Electronic Temperature                      =   299.9978 K
redata: Fix the spin of the system                  =   F
redata: Dynamics option                             = Single-point calculation
mix.SCF: Pulay mixing                            = Pulay
mix.SCF:    Variant                              = stable
mix.SCF:    History steps                        = 6
mix.SCF:    Linear mixing weight                 =     0.250000
mix.SCF:    Mixing weight                        =     0.250000
mix.SCF:    SVD condition                        = 0.1000E-07
mix.SCF:    Restart steps                        = 24
mix.SCF:    Restart save steps                   = 3
mix.SCF: Spin-component mixing                   all
redata: Save all siesta data in one NC              =   F
redata: ***********************************************************************

%block SCF.Mixers
  Pulay
%endblock SCF.Mixers

%block SCF.Mixer.Pulay
  # Mixing method
  method pulay
  variant stable

  # Mixing options
  weight 0.2500
  weight.linear 0.2500
  history 6
  restart 24
  restart.save 3
%endblock SCF.Mixer.Pulay

DM_history_depth set to one: no extrapolation allowed by default for geometry relaxation
Size of DM history Fstack: 1
Total number of electrons:    98.000000
Total ionic charge:    98.000000

* ProcessorY, Blocksize:    2  24


* Orbital distribution balance (max,min):    81    72


Time-reversal symmetry not used.

siesta: k-grid: Number of k-points =     1
siesta: k-grid: Cutoff (effective) =     4.927 Ang
siesta: k-grid: Supercell and displacements
siesta: k-grid:    1   0   0      0.000
siesta: k-grid:    0   1   0      0.000
siesta: k-grid:    0   0   1      0.000

diag: Algorithm                                     = ELPA-1stage
diag: Parallel over k                               =   F
diag: Use parallel 2D distribution                  =   T
diag: Parallel block-size                           = 24
diag: Parallel distribution                         =     2 x     2
diag: Used triangular part                          = Lower
diag: Absolute tolerance                            =  0.100E-15
diag: Orthogonalization factor                      =  0.100E-05
diag: Memory factor                                 =  1.0000


ts: **************************************************************
ts: Save H and S matrices                           =    F
ts: Save DM and EDM matrices                        =    F
ts: Only save the overlap matrix S                  =    F
ts: **************************************************************

************************ Begin: TS CHECKS AND WARNINGS ************************
************************ End: TS CHECKS AND WARNINGS **************************


                     ====================================
                        Single-point calculation
                     ====================================

outcoor: Atomic coordinates (Ang):                          
    0.95867151    3.80352930    0.00000000   1       1  O
   -3.03868821    0.99807333    0.00000000   2       2  N
    2.06656775    1.09906577    0.00000000   2       3  N
    1.02956986   -1.83468085    0.00000000   2       4  N
   -2.10856766   -1.88179824    0.00000000   2       5  N
    3.91241107   -1.18089443    0.00000000   2       6  N
   -1.23563679    1.04498300    0.00000000   3       7  Si
   -0.50190924   -1.03183228    0.00000000   3       8  Si
    0.62946328    2.23275584    0.00000000   3       9  Si
    2.28005437   -0.65829354    0.00000000   3      10  Si
   -3.42481299   -0.66232416    0.00000000   3      11  Si
    2.96597416    1.68226399    0.00000000   4      12  H
   -4.79622939   -1.23872848    0.00000000   4      13  H
    4.09655941   -2.21414876    0.00000000   4      14  H
    4.79210868   -0.52914725    0.00000000   4      15  H
   -2.26686130   -2.92239373    0.00000000   4      16  H
    5.04372064    5.28065830    0.00000000   3      17  Si
    6.96919839    6.47228763    0.00000000   3      18  Si
    6.50439200    2.54610393    0.00000000   3      19  Si
    8.57557192    4.99315052    0.00000000   3      20  Si
    5.14600518    3.57130361    0.00000000   2      21  N
    3.46434255    5.95088779    0.00000000   2      22  N
    8.15746190    3.26126761    0.00000000   2      23  N
    7.27768921    7.93694899    0.00000000   4      24  H
   10.06724483    5.19312998    0.00000000   4      25  H
    3.27971611    6.98576152    0.00000000   4      26  H
    2.57225076    5.27959906    0.00000000   4      27  H
    6.49426140    0.94787541    0.00000000   1      28  O
    8.93406028    2.53943741    0.00000000   4      29  H

outcell: Unit cell vectors (Ang):
       23.938404    0.000000    0.000000
        0.000000   19.533860    0.000000
        0.000000    0.000000    9.854683

outcell: Cell vector modules (Ang)   :   23.938404   19.533860    9.854683
outcell: Cell angles (23,13,12) (deg):     90.0000     90.0000     90.0000
outcell: Cell volume (Ang**3)        :   4608.1429
<dSpData1D:S at geom step 0
  <sparsity:sparsity for geom step 0
    nrows_g=297 nrows=81 sparsity=.2164 nnzs=19089, refcount: 8>
  <dData1D:(new from dSpData1D) n=19089, refcount: 1>
refcount: 1>
new_DM -- step:     1
Initializing Density Matrix...
DM filled with atomic data:
<dSpData2D:DM initialized from atoms
  <sparsity:sparsity for geom step 0
    nrows_g=297 nrows=81 sparsity=.2164 nnzs=19089, refcount: 9>
  <dData2D:DM n=19089 m=8, refcount: 1>
refcount: 1>
     spin moment: S , {S} =   56.00000   0.00000   0.00000  56.00000
No. of atoms with KB's overlaping orbs in proc 0. Max # of overlaps:      29     189

Initializing spin-orbit part of the Hamiltonian
  Adding spin-orbit effects for O 
  Adding spin-orbit effects for N 
  Adding spin-orbit effects for Si
  Adding spin-orbit effects for H 


New grid distribution:   1
           1       1:  135    1:   60    1:   30
           2       1:  135    1:   60   31:   60
           3       1:  135   61:  120    1:   30
           4       1:  135   61:  120   31:   60

InitMesh: MESH =   270 x   240 x   120 =     7776000
InitMesh: (bp) =   135 x   120 x    60 =      972000
InitMesh: Mesh cutoff (required, used) =   340.000   351.592 Ry
ExtMesh (bp) on 0 =   239 x   172 x   142 =     5837336
New grid distribution:   2
           1      35:  135    1:   29    1:   60
           2       1:   34    1:   27    1:   60
           3      35:  135   30:  120    1:   60
           4       1:   34   28:  120    1:   60
New grid distribution:   3
           1      44:  135    1:   36    1:   60
           2       1:   43    1:   41    1:   60
           3      44:  135   37:  120    1:   60
           4       1:   43   42:  120    1:   60
Setting up quadratic distribution...
ExtMesh (bp) on 0 =   205 x   141 x   172 =     4971660
PhiOnMesh: Number of (b)points on node 0 =               175740
PhiOnMesh: nlist on node 0 =              2726547

stepf: Fermi-Dirac step function

siesta: Program's energy decomposition (eV):
siesta: Ebs     =      -613.560731
siesta: Eions   =      3585.165840
siesta: Ena     =       383.061647
siesta: Ekin    =      3367.485199
siesta: Enl     =     -3297.015808
siesta: Eso     =        -0.003450
siesta: Edftu   =         0.000000
siesta: DEna    =       153.179602
siesta: DUscf   =        79.114870
siesta: DUext   =         0.000000
siesta: Exc     =     -1204.005413
siesta: eta*DQ  =         0.000000
siesta: Emadel  =         0.000000
siesta: Emeta   =         0.000000
siesta: Emolmec =         0.000000
siesta: Ekinion =         0.000000
siesta: Eharris =     -4027.806273
siesta: Etot    =     -4103.349192
siesta: FreeEng =     -4103.350880

        iscf     Eharris(eV)        E_KS(eV)     FreeEng(eV)     dDmax    Ef(eV) dHmax(eV)
   scf:    1    -4027.806273    -4103.349192    -4103.350880  0.960250 -4.901250 21.023409
     spin moment: S , {S} =    2.01039  -0.00000  -0.00000   2.01039
timer: Routine,Calls,Time,% = IterSCF        1      12.863  17.46
   scf:    2    -4149.764922    -4137.955089    -4137.956753  0.452339 -4.208709 11.012235
     spin moment: S , {S} =    1.99012  -0.00000   0.00000   1.99012
   scf:    3    -4111.084218    -4135.269724    -4135.283871  0.421236 -4.271560 11.438863
     spin moment: S , {S} =    2.00014  -0.00000  -0.00000   2.00014
   scf:    4    -4150.878377    -4146.142080    -4146.142080  0.309449 -3.883857  6.081829
     spin moment: S , {S} =    0.00009  -0.00000  -0.00000   0.00009
   scf:    5    -4147.281384    -4146.798397    -4146.798397  0.036706 -3.687326  4.200813
     spin moment: S , {S} =    0.00006  -0.00000  -0.00000   0.00006
   scf:    6    -4147.556047    -4147.182011    -4147.182011  0.025351 -3.690422  1.993862
     spin moment: S , {S} =    0.00003   0.00000  -0.00000   0.00003
   scf:    7    -4147.518345    -4147.347741    -4147.347741  0.021281 -3.758841  0.888655
     spin moment: S , {S} =    0.00001   0.00000  -0.00000   0.00001
   scf:    8    -4147.465929    -4147.405145    -4147.405145  0.012223 -3.782194  0.471837
     spin moment: S , {S} =    0.00000   0.00000   0.00000   0.00000
   scf:    9    -4147.442472    -4147.423202    -4147.423202  0.006417 -3.769979  0.332525
     spin moment: S , {S} =    0.00000   0.00000  -0.00000   0.00000
   scf:   10    -4147.472168    -4147.443311    -4147.443311  0.018684 -3.792727  0.151710
     spin moment: S , {S} =    0.00000  -0.00000   0.00000  -0.00000
   scf:   11    -4147.446081    -4147.444657    -4147.444657  0.004704 -3.784970  0.047410
     spin moment: S , {S} =    0.00000  -0.00000  -0.00000  -0.00000
   scf:   12    -4147.445349    -4147.445008    -4147.445008  0.001602 -3.780492  0.026818
     spin moment: S , {S} =    0.00000  -0.00000  -0.00000   0.00000
   scf:   13    -4147.445418    -4147.445204    -4147.445204  0.001604 -3.778682  0.020351
     spin moment: S , {S} =    0.00000  -0.00000  -0.00000   0.00000
   scf:   14    -4147.445484    -4147.445334    -4147.445334  0.001566 -3.777994  0.015979
     spin moment: S , {S} =    0.00000  -0.00000  -0.00000   0.00000
   scf:   15    -4147.445552    -4147.445430    -4147.445430  0.001720 -3.777676  0.010531
     spin moment: S , {S} =    0.00000  -0.00000  -0.00000   0.00000
   scf:   16    -4147.445562    -4147.445484    -4147.445484  0.001692 -3.777876  0.005335
     spin moment: S , {S} =    0.00000  -0.00000  -0.00000   0.00000
   scf:   17    -4147.445514    -4147.445496    -4147.445496  0.000843 -3.777944  0.002808
     spin moment: S , {S} =    0.00000  -0.00000  -0.00000   0.00000
   scf:   18    -4147.445502    -4147.445498    -4147.445498  0.000398 -3.778086  0.001178
     spin moment: S , {S} =    0.00000  -0.00000  -0.00000   0.00000
   scf:   19    -4147.445500    -4147.445499    -4147.445499  0.000150 -3.778109  0.000577
     spin moment: S , {S} =    0.00000  -0.00000  -0.00000   0.00000
   scf:   20    -4147.445499    -4147.445499    -4147.445499  0.000046 -3.778085  0.000348
     spin moment: S , {S} =    0.00000  -0.00000  -0.00000   0.00000
   scf:   21    -4147.445499    -4147.445499    -4147.445499  0.000036 -3.778064  0.000207
     spin moment: S , {S} =    0.00000  -0.00000  -0.00000  -0.00000
   scf:   22    -4147.445499    -4147.445499    -4147.445499  0.000016 -3.778048  0.000093
     spin moment: S , {S} =    0.00000  -0.00000  -0.00000  -0.00000
   scf:   23    -4147.445499    -4147.445499    -4147.445499  0.000006 -3.778050  0.000052
     spin moment: S , {S} =    0.00000  -0.00000  -0.00000  -0.00000
   scf:   24    -4147.445499    -4147.445499    -4147.445499  0.000002 -3.778048  0.000041
     spin moment: S , {S} =    0.00000  -0.00000  -0.00000  -0.00000
mix: Pulay -- resetting history
   scf:   25    -4147.445499    -4147.445499    -4147.445499  0.000004 -3.778044  0.000023
     spin moment: S , {S} =    0.00000  -0.00000  -0.00000  -0.00000
   scf:   26    -4147.445499    -4147.445499    -4147.445499  0.000003 -3.778040  0.000008
     spin moment: S , {S} =    0.00000  -0.00000  -0.00000  -0.00000
   scf:   27    -4147.445499    -4147.445499    -4147.445499  0.000001 -3.778039  0.000005
     spin moment: S , {S} =    0.00000  -0.00000  -0.00000  -0.00000
   scf:   28    -4147.445499    -4147.445499    -4147.445499  0.000000 -3.778039  0.000003
     spin moment: S , {S} =    0.00000  -0.00000  -0.00000  -0.00000
   scf:   29    -4147.445499    -4147.445499    -4147.445499  0.000000 -3.778038  0.000002
     spin moment: S , {S} =    0.00000  -0.00000  -0.00000  -0.00000
   scf:   30    -4147.445499    -4147.445499    -4147.445499  0.000000 -3.778038  0.000001
     spin moment: S , {S} =    0.00000  -0.00000  -0.00000  -0.00000
   scf:   31    -4147.445499    -4147.445499    -4147.445499  0.000000 -3.778038  0.000000
     spin moment: S , {S} =    0.00000  -0.00000  -0.00000  -0.00000

SCF Convergence by DM+H criterion
max |DM_out - DM_in|         :     0.0000001174
max |H_out - H_in|      (eV) :     0.0000004272
SCF cycle converged after 31 iterations

Using DM_out to compute the final energy and forces
No. of atoms with KB's overlaping orbs in proc 0. Max # of overlaps:      29     189

siesta: E_KS(eV) =            -4147.4455

siesta: E_KS - E_eggbox =     -4147.4455
     spin moment: S , {S} =    0.00000  -0.00000  -0.00000  -0.00000

siesta: Atomic forces (eV/Ang):
     1    3.430253    1.950877    0.000000
     2    0.000760   -0.009800   -0.000000
     3    0.395941   -0.142619    0.000000
     4    0.362133   -0.011187   -0.000000
     5    0.041213   -0.052313    0.000000
     6    1.120541    0.623200    0.000000
     7    0.017744   -0.123856   -0.000000
     8   -0.196876    0.144564    0.000000
     9   -0.062071    0.631733   -0.000000
    10   -0.479303    0.220332   -0.000000
    11   -0.007448   -0.011601    0.000000
    12   -0.046816   -0.050626    0.000000
    13   -0.104503    0.073281    0.000000
    14    0.093928   -0.032299   -0.000000
    15   -0.706148   -0.479288    0.000000
    16   -0.084123   -0.186633   -0.000000
    17    0.507232   -0.572181   -0.000000
    18   -0.109855    0.094487   -0.000000
    19   -0.121415   -0.559031    0.000000
    20   -0.017792   -0.202394   -0.000000
    21   -0.141030    0.449240    0.000000
    22   -1.395330   -0.759375   -0.000000
    23    0.148874    0.305189    0.000000
    24   -0.045408    0.112947    0.000000
    25    0.002291    0.066173    0.000000
    26   -0.129470    0.097993   -0.000000
    27    0.890486    0.857623   -0.000000
    28   -4.092784    0.884896   -0.000000
    29    0.036136   -0.025677    0.000000
----------------------------------------
   Tot   -0.692841    3.293654    0.000000
----------------------------------------
   Max    4.092784
   Res    0.695074    sqrt( Sum f_i^2 / 3N )
----------------------------------------
   Max    4.092784    constrained

Stress tensor Voigt[x,y,z,yz,xz,xy] (kbar):        0.53        0.24       -0.10        0.00       -0.00        1.16
(Free)E + p*V (eV/cell)    -4148.0848
Target enthalpy (eV/cell)    -4147.4455

mulliken: Atomic and Orbital Populations:

Species: O                   

Atom      Orb        Charge      Spin       Svec
----------------------------------------------------------------
    1  1 2s         1.74191   0.00000      0.000   0.000  -0.000
    1  2 2s         0.06286   0.00000     -0.000  -0.000  -0.000
    1  3 2py        1.41423   0.00000      0.000  -0.000   0.000
    1  4 2pz        1.57788   0.00000      0.000   0.000  -0.000
    1  5 2px        1.64473   0.00000     -0.000   0.000  -0.000
    1  6 2py        0.05214   0.00000     -0.000   0.000   0.000
    1  7 2pz       -0.01222   0.00000      0.000   0.000   0.000
    1  8 2px       -0.00052   0.00000      0.000  -0.000  -0.000
    1  9 3Pdxy      0.00637   0.00000      0.000   0.000   0.000
    1 10 3Pdyz      0.00848   0.00000     -0.000  -0.000   0.000
    1 11 3Pdz2      0.00128   0.00000     -0.000   0.000   0.000
    1 12 3Pdxz      0.00006   0.00000      0.000  -0.000   0.000
    1 13 3Pdx2-y2   0.00625   0.00000     -0.000   0.000   0.000
    1     Total     6.50343   0.00000      0.000   0.000  -0.000

   28  1 2s         1.74461   0.00000     -0.000   0.000   0.000
   28  2 2s         0.06213   0.00000      0.000  -0.000  -0.000
   28  3 2py        1.40973   0.00000      0.000   0.000   0.000
   28  4 2pz        1.57517   0.00000      0.000   0.000   0.000
   28  5 2px        1.65378   0.00000      0.000   0.000   0.000
   28  6 2py        0.05052   0.00000     -0.000  -0.000  -0.000
   28  7 2pz       -0.01050   0.00000     -0.000   0.000  -0.000
   28  8 2px        0.00261   0.00000      0.000   0.000  -0.000
   28  9 3Pdxy      0.00620   0.00000     -0.000  -0.000  -0.000
   28 10 3Pdyz      0.00914   0.00000      0.000  -0.000   0.000
   28 11 3Pdz2      0.00093   0.00000      0.000   0.000  -0.000
   28 12 3Pdxz     -0.00018   0.00000      0.000  -0.000  -0.000
   28 13 3Pdx2-y2   0.00716   0.00000      0.000   0.000  -0.000
   28     Total     6.51130   0.00000      0.000   0.000   0.000

----------------------------------------------------------------
Total              13.01474   0.00000      0.000   0.000   0.000


Species: N                   

Atom      Orb        Charge      Spin       Svec
----------------------------------------------------------------
    2  1 2s         1.55511   0.00000      0.000  -0.000  -0.000
    2  2 2s         0.08330   0.00000     -0.000   0.000  -0.000
    2  3 2py        1.04214   0.00000     -0.000   0.000  -0.000
    2  4 2pz        1.22444   0.00000     -0.000   0.000  -0.000
    2  5 2px        0.98591   0.00000     -0.000   0.000  -0.000
    2  6 2py        0.18859   0.00000      0.000  -0.000   0.000
    2  7 2pz        0.05629   0.00000      0.000  -0.000   0.000
    2  8 2px        0.19556   0.00000      0.000  -0.000   0.000
    2  9 3Pdxy      0.00858   0.00000      0.000   0.000   0.000
    2 10 3Pdyz      0.01123   0.00000     -0.000   0.000   0.000
    2 11 3Pdz2      0.00196   0.00000     -0.000   0.000   0.000
    2 12 3Pdxz      0.00766   0.00000     -0.000  -0.000   0.000
    2 13 3Pdx2-y2   0.00928   0.00000      0.000   0.000  -0.000
    2     Total     5.37005   0.00000     -0.000   0.000  -0.000

    3  1 2s         1.38523   0.00000     -0.000  -0.000  -0.000
    3  2 2s         0.12324   0.00000      0.000   0.000   0.000
    3  3 2py        0.94228   0.00000      0.000  -0.000   0.000
    3  4 2pz        1.54437   0.00000     -0.000   0.000  -0.000
    3  5 2px        1.08080   0.00000      0.000  -0.000   0.000
    3  6 2py        0.25180   0.00000     -0.000   0.000   0.000
    3  7 2pz        0.00558   0.00000      0.000  -0.000  -0.000
    3  8 2px        0.18279   0.00000     -0.000   0.000   0.000
    3  9 3Pdxy      0.00391   0.00000     -0.000   0.000   0.000
    3 10 3Pdyz      0.00393   0.00000     -0.000  -0.000  -0.000
    3 11 3Pdz2      0.00063   0.00000     -0.000   0.000  -0.000
    3 12 3Pdxz      0.00279   0.00000      0.000   0.000  -0.000
    3 13 3Pdx2-y2   0.00251   0.00000      0.000   0.000  -0.000
    3     Total     5.52985   0.00000     -0.000  -0.000   0.000

    4  1 2s         1.46190   0.00000      0.000  -0.000   0.000
    4  2 2s         0.11830   0.00000     -0.000   0.000   0.000
    4  3 2py        1.13252   0.00000      0.000   0.000   0.000
    4  4 2pz        1.29563   0.00000      0.000   0.000   0.000
    4  5 2px        0.82456   0.00000     -0.000   0.000   0.000
    4  6 2py        0.14982   0.00000     -0.000  -0.000   0.000
    4  7 2pz        0.05360   0.00000      0.000  -0.000   0.000
    4  8 2px        0.29119   0.00000      0.000  -0.000   0.000
    4  9 3Pdxy      0.00878   0.00000      0.000   0.000   0.000
    4 10 3Pdyz      0.01043   0.00000     -0.000   0.000  -0.000
    4 11 3Pdz2      0.00129   0.00000     -0.000   0.000   0.000
    4 12 3Pdxz      0.00485   0.00000     -0.000   0.000   0.000
    4 13 3Pdx2-y2   0.00798   0.00000     -0.000  -0.000   0.000
    4     Total     5.36084   0.00000      0.000  -0.000   0.000

    5  1 2s         1.37239   0.00000     -0.000   0.000  -0.000
    5  2 2s         0.12943   0.00000      0.000  -0.000   0.000
    5  3 2py        1.02798   0.00000     -0.000  -0.000  -0.000
    5  4 2pz        1.49810   0.00000     -0.000   0.000  -0.000
    5  5 2px        1.05692   0.00000      0.000  -0.000  -0.000
    5  6 2py        0.20560   0.00000      0.000   0.000   0.000
    5  7 2pz        0.01386   0.00000      0.000  -0.000   0.000
    5  8 2px        0.20479   0.00000     -0.000  -0.000   0.000
    5  9 3Pdxy      0.00391   0.00000      0.000   0.000  -0.000
    5 10 3Pdyz      0.00240   0.00000      0.000   0.000   0.000
    5 11 3Pdz2      0.00142   0.00000      0.000  -0.000   0.000
    5 12 3Pdxz      0.00689   0.00000     -0.000   0.000   0.000
    5 13 3Pdx2-y2   0.00552   0.00000      0.000   0.000   0.000
    5     Total     5.52921   0.00000     -0.000   0.000  -0.000

    6  1 2s         1.26256   0.00000     -0.000  -0.000  -0.000
    6  2 2s         0.18254   0.00000      0.000   0.000   0.000
    6  3 2py        1.08035   0.00000     -0.000   0.000   0.000
    6  4 2pz        1.55098   0.00000      0.000   0.000  -0.000
    6  5 2px        0.96755   0.00000     -0.000  -0.000  -0.000
    6  6 2py        0.18879   0.00000      0.000  -0.000   0.000
    6  7 2pz        0.03134   0.00000     -0.000  -0.000   0.000
    6  8 2px        0.25543   0.00000      0.000  -0.000   0.000
    6  9 3Pdxy      0.00247   0.00000      0.000  -0.000  -0.000
    6 10 3Pdyz      0.00004   0.00000     -0.000  -0.000  -0.000
    6 11 3Pdz2      0.00167   0.00000     -0.000   0.000   0.000
    6 12 3Pdxz      0.00358   0.00000      0.000  -0.000  -0.000
    6 13 3Pdx2-y2   0.00401   0.00000     -0.000   0.000  -0.000
    6     Total     5.53130   0.00000     -0.000  -0.000  -0.000

   21  1 2s         1.41341   0.00000     -0.000   0.000   0.000
   21  2 2s         0.13122   0.00000      0.000   0.000  -0.000
   21  3 2py        0.88283   0.00000     -0.000   0.000   0.000
   21  4 2pz        1.30669   0.00000     -0.000   0.000   0.000
   21  5 2px        1.15120   0.00000     -0.000  -0.000   0.000
   21  6 2py        0.27474   0.00000     -0.000  -0.000   0.000
   21  7 2pz        0.04674   0.00000     -0.000  -0.000   0.000
   21  8 2px        0.16527   0.00000      0.000   0.000   0.000
   21  9 3Pdxy      0.00586   0.00000     -0.000   0.000   0.000
   21 10 3Pdyz      0.00478   0.00000     -0.000   0.000  -0.000
   21 11 3Pdz2     -0.00013   0.00000      0.000   0.000  -0.000
   21 12 3Pdxz      0.00580   0.00000      0.000  -0.000  -0.000
   21 13 3Pdx2-y2   0.00596   0.00000     -0.000  -0.000   0.000
   21     Total     5.39437   0.00000     -0.000   0.000   0.000

   22  1 2s         1.28247   0.00000      0.000   0.000   0.000
   22  2 2s         0.17409   0.00000     -0.000  -0.000  -0.000
   22  3 2py        1.07072   0.00000     -0.000   0.000   0.000
   22  4 2pz        1.52407   0.00000      0.000   0.000  -0.000
   22  5 2px        0.99762   0.00000      0.000  -0.000  -0.000
   22  6 2py        0.19385   0.00000      0.000  -0.000   0.000
   22  7 2pz        0.03056   0.00000      0.000   0.000   0.000
   22  8 2px        0.23588   0.00000      0.000   0.000   0.000
   22  9 3Pdxy      0.00340   0.00000     -0.000  -0.000  -0.000
   22 10 3Pdyz      0.00014   0.00000      0.000   0.000   0.000
   22 11 3Pdz2      0.00237   0.00000     -0.000  -0.000   0.000
   22 12 3Pdxz      0.00361   0.00000      0.000   0.000   0.000
   22 13 3Pdx2-y2   0.00435   0.00000      0.000   0.000  -0.000
   22     Total     5.52312   0.00000      0.000   0.000  -0.000

   23  1 2s         1.37894   0.00000     -0.000  -0.000   0.000
   23  2 2s         0.12625   0.00000      0.000   0.000  -0.000
   23  3 2py        1.00848   0.00000     -0.000  -0.000  -0.000
   23  4 2pz        1.52925   0.00000      0.000   0.000  -0.000
   23  5 2px        1.05669   0.00000     -0.000   0.000   0.000
   23  6 2py        0.21598   0.00000     -0.000   0.000   0.000
   23  7 2pz        0.00463   0.00000     -0.000  -0.000  -0.000
   23  8 2px        0.20175   0.00000      0.000  -0.000  -0.000
   23  9 3Pdxy      0.00510   0.00000      0.000  -0.000   0.000
   23 10 3Pdyz      0.00454   0.00000      0.000   0.000  -0.000
   23 11 3Pdz2      0.00062   0.00000      0.000  -0.000   0.000
   23 12 3Pdxz      0.00245   0.00000      0.000  -0.000  -0.000
   23 13 3Pdx2-y2   0.00147   0.00000     -0.000  -0.000  -0.000
   23     Total     5.53616   0.00000     -0.000  -0.000  -0.000

----------------------------------------------------------------
Total              56.78963   0.00000      0.000   0.000  -0.000


Species: Si                  

Atom      Orb        Charge      Spin       Svec
----------------------------------------------------------------
    7  1 3s         0.64392   0.00000      0.000  -0.000   0.000
    7  2 3s         0.37506   0.00000     -0.000   0.000   0.000
    7  3 3py        0.47459   0.00000     -0.000   0.000   0.000
    7  4 3pz        0.68175   0.00000     -0.000   0.000  -0.000
    7  5 3px        0.10791   0.00000      0.000  -0.000   0.000
    7  6 3py        0.27829   0.00000      0.000  -0.000  -0.000
    7  7 3pz        0.26538   0.00000     -0.000  -0.000   0.000
    7  8 3px        0.45299   0.00000     -0.000   0.000   0.000
    7  9 3Pdxy      0.25184   0.00000     -0.000   0.000   0.000
    7 10 3Pdyz      0.02923   0.00000     -0.000   0.000   0.000
    7 11 3Pdz2      0.01075   0.00000     -0.000   0.000   0.000
    7 12 3Pdxz      0.15170   0.00000      0.000  -0.000  -0.000
    7 13 3Pdx2-y2   0.11124   0.00000      0.000  -0.000   0.000
    7     Total     3.83467   0.00000     -0.000   0.000   0.000

    8  1 3s         0.65563   0.00000      0.000  -0.000   0.000
    8  2 3s         0.36900   0.00000     -0.000   0.000   0.000
    8  3 3py        0.39373   0.00000      0.000  -0.000   0.000
    8  4 3pz        0.51481   0.00000     -0.000   0.000   0.000
    8  5 3px       -0.02376   0.00000      0.000   0.000   0.000
    8  6 3py        0.30636   0.00000     -0.000   0.000   0.000
    8  7 3pz        0.20480   0.00000     -0.000   0.000   0.000
    8  8 3px        0.51230   0.00000     -0.000   0.000   0.000
    8  9 3Pdxy      0.24750   0.00000      0.000  -0.000   0.000
    8 10 3Pdyz      0.11222   0.00000      0.000  -0.000   0.000
    8 11 3Pdz2      0.01439   0.00000     -0.000  -0.000   0.000
    8 12 3Pdxz      0.15539   0.00000     -0.000  -0.000   0.000
    8 13 3Pdx2-y2   0.20049   0.00000      0.000  -0.000   0.000
    8     Total     3.66287   0.00000      0.000  -0.000   0.000

    9  1 3s         0.58040   0.00000     -0.000  -0.000   0.000
    9  2 3s         0.37751   0.00000     -0.000   0.000  -0.000
    9  3 3py        0.08650   0.00000     -0.000   0.000  -0.000
    9  4 3pz        0.47399   0.00000      0.000   0.000  -0.000
    9  5 3px        0.36496   0.00000      0.000  -0.000  -0.000
    9  6 3py        0.43703   0.00000      0.000  -0.000   0.000
    9  7 3pz        0.19214   0.00000      0.000   0.000  -0.000
    9  8 3px        0.28296   0.00000     -0.000   0.000   0.000
    9  9 3Pdxy      0.31163   0.00000     -0.000   0.000   0.000
    9 10 3Pdyz      0.19510   0.00000      0.000   0.000  -0.000
    9 11 3Pdz2      0.01402   0.00000      0.000  -0.000  -0.000
    9 12 3Pdxz      0.10200   0.00000      0.000  -0.000  -0.000
    9 13 3Pdx2-y2   0.17420   0.00000      0.000  -0.000  -0.000
    9     Total     3.59243   0.00000      0.000   0.000  -0.000

   10  1 3s         0.47925   0.00000     -0.000   0.000  -0.000
   10  2 3s         0.37832   0.00000      0.000  -0.000   0.000
   10  3 3py        0.24637   0.00000     -0.000   0.000   0.000
   10  4 3pz        0.40991   0.00000     -0.000  -0.000  -0.000
   10  5 3px        0.09135   0.00000     -0.000  -0.000  -0.000
   10  6 3py        0.32008   0.00000      0.000  -0.000   0.000
   10  7 3pz        0.22176   0.00000      0.000   0.000  -0.000
   10  8 3px        0.44222   0.00000      0.000   0.000   0.000
   10  9 3Pdxy      0.17058   0.00000      0.000  -0.000   0.000
   10 10 3Pdyz      0.13424   0.00000     -0.000  -0.000   0.000
   10 11 3Pdz2      0.00945   0.00000     -0.000   0.000  -0.000
   10 12 3Pdxz      0.18033   0.00000     -0.000  -0.000  -0.000
   10 13 3Pdx2-y2   0.30785   0.00000      0.000   0.000  -0.000
   10     Total     3.39171   0.00000     -0.000  -0.000  -0.000

   11  1 3s         0.55059   0.00000      0.000   0.000   0.000
   11  2 3s         0.38649   0.00000     -0.000  -0.000   0.000
   11  3 3py        0.30929   0.00000      0.000   0.000   0.000
   11  4 3pz        0.53336   0.00000      0.000  -0.000   0.000
   11  5 3px        0.13092   0.00000      0.000  -0.000   0.000
   11  6 3py        0.29943   0.00000     -0.000  -0.000   0.000
   11  7 3pz        0.17929   0.00000     -0.000  -0.000   0.000
   11  8 3px        0.44241   0.00000     -0.000   0.000   0.000
   11  9 3Pdxy      0.23568   0.00000     -0.000  -0.000   0.000
   11 10 3Pdyz      0.12926   0.00000      0.000   0.000   0.000
   11 11 3Pdz2      0.00996   0.00000      0.000   0.000   0.000
   11 12 3Pdxz      0.05438   0.00000      0.000  -0.000   0.000
   11 13 3Pdx2-y2   0.19773   0.00000     -0.000  -0.000   0.000
   11     Total     3.45880   0.00000      0.000  -0.000   0.000

   17  1 3s         0.64338   0.00000      0.000  -0.000   0.000
   17  2 3s         0.35722   0.00000     -0.000   0.000  -0.000
   17  3 3py        0.24212   0.00000      0.000  -0.000  -0.000
   17  4 3pz        0.41962   0.00000     -0.000  -0.000   0.000
   17  5 3px        0.22721   0.00000      0.000  -0.000  -0.000
   17  6 3py        0.36538   0.00000     -0.000   0.000   0.000
   17  7 3pz        0.21514   0.00000      0.000   0.000   0.000
   17  8 3px        0.38448   0.00000     -0.000   0.000   0.000
   17  9 3Pdxy      0.28774   0.00000      0.000  -0.000  -0.000
   17 10 3Pdyz      0.13384   0.00000      0.000   0.000   0.000
   17 11 3Pdz2      0.00829   0.00000      0.000  -0.000   0.000
   17 12 3Pdxz      0.15021   0.00000      0.000   0.000   0.000
   17 13 3Pdx2-y2   0.17221   0.00000      0.000   0.000  -0.000
   17     Total     3.60685   0.00000      0.000  -0.000   0.000

   18  1 3s         0.75309   0.00000     -0.000  -0.000   0.000
   18  2 3s         0.33743   0.00000      0.000  -0.000   0.000
   18  3 3py        0.09249   0.00000      0.000   0.000   0.000
   18  4 3pz        0.81458   0.00000      0.000   0.000   0.000
   18  5 3px        0.53180   0.00000     -0.000   0.000  -0.000
   18  6 3py        0.51067   0.00000     -0.000   0.000   0.000
   18  7 3pz        0.19819   0.00000     -0.000  -0.000   0.000
   18  8 3px        0.26316   0.00000      0.000  -0.000   0.000
   18  9 3Pdxy      0.10778   0.00000      0.000   0.000  -0.000
   18 10 3Pdyz      0.02629   0.00000      0.000   0.000  -0.000
   18 11 3Pdz2      0.00916   0.00000     -0.000   0.000  -0.000
   18 12 3Pdxz      0.03104   0.00000      0.000  -0.000   0.000
   18 13 3Pdx2-y2   0.10672   0.00000     -0.000   0.000  -0.000
   18     Total     3.78241   0.00000     -0.000   0.000   0.000

   19  1 3s         0.45142   0.00000      0.000  -0.000   0.000
   19  2 3s         0.36676   0.00000     -0.000   0.000  -0.000
   19  3 3py        0.09100   0.00000     -0.000  -0.000  -0.000
   19  4 3pz        0.41731   0.00000     -0.000  -0.000  -0.000
   19  5 3px        0.32359   0.00000      0.000  -0.000   0.000
   19  6 3py        0.45797   0.00000      0.000  -0.000  -0.000
   19  7 3pz        0.18808   0.00000     -0.000   0.000  -0.000
   19  8 3px        0.26381   0.00000     -0.000   0.000   0.000
   19  9 3Pdxy      0.33660   0.00000     -0.000  -0.000  -0.000
   19 10 3Pdyz      0.18857   0.00000     -0.000   0.000  -0.000
   19 11 3Pdz2      0.01417   0.00000     -0.000  -0.000  -0.000
   19 12 3Pdxz      0.09566   0.00000     -0.000   0.000  -0.000
   19 13 3Pdx2-y2   0.24864   0.00000      0.000  -0.000  -0.000
   19     Total     3.44357   0.00000     -0.000  -0.000  -0.000

   20  1 3s         0.67716   0.00000     -0.000  -0.000   0.000
   20  2 3s         0.37745   0.00000      0.000   0.000  -0.000
   20  3 3py        0.33451   0.00000     -0.000  -0.000   0.000
   20  4 3pz        0.59913   0.00000     -0.000  -0.000  -0.000
   20  5 3px        0.13450   0.00000      0.000   0.000   0.000
   20  6 3py        0.28621   0.00000      0.000  -0.000   0.000
   20  7 3pz        0.16201   0.00000      0.000  -0.000   0.000
   20  8 3px        0.50386   0.00000     -0.000  -0.000   0.000
   20  9 3Pdxy      0.09962   0.00000     -0.000   0.000  -0.000
   20 10 3Pdyz      0.13141   0.00000      0.000  -0.000  -0.000
   20 11 3Pdz2      0.00694   0.00000     -0.000  -0.000  -0.000
   20 12 3Pdxz      0.02727   0.00000     -0.000   0.000   0.000
   20 13 3Pdx2-y2   0.17233   0.00000      0.000  -0.000   0.000
   20     Total     3.51240   0.00000     -0.000  -0.000   0.000

----------------------------------------------------------------
Total              89.07535   0.00000     -0.000  -0.000   0.000


Species: H                   

Atom      Orb        Charge      Spin       Svec
----------------------------------------------------------------
   12  1 1s         0.47882   0.00000      0.000   0.000  -0.000
   12  2 1s         0.18510   0.00000     -0.000   0.000   0.000
   12  3 2Ppy       0.03011   0.00000      0.000  -0.000   0.000
   12  4 2Ppz       0.03092   0.00000      0.000   0.000  -0.000
   12  5 2Ppx       0.02881   0.00000      0.000   0.000  -0.000
   12     Total     0.75375   0.00000      0.000   0.000  -0.000

   13  1 1s         1.01835   0.00000     -0.000  -0.000  -0.000
   13  2 1s         0.09724   0.00000      0.000   0.000   0.000
   13  3 2Ppy       0.01917   0.00000      0.000   0.000  -0.000
   13  4 2Ppz       0.02028   0.00000      0.000  -0.000   0.000
   13  5 2Ppx       0.03327   0.00000     -0.000  -0.000   0.000
   13     Total     1.18830   0.00000     -0.000  -0.000  -0.000

   14  1 1s         0.47230   0.00000      0.000  -0.000  -0.000
   14  2 1s         0.19867   0.00000     -0.000   0.000  -0.000
   14  3 2Ppy       0.01865   0.00000      0.000  -0.000   0.000
   14  4 2Ppz       0.04711   0.00000     -0.000  -0.000  -0.000
   14  5 2Ppx       0.01890   0.00000     -0.000   0.000   0.000
   14     Total     0.75563   0.00000      0.000  -0.000  -0.000

   15  1 1s         0.47095   0.00000     -0.000   0.000  -0.000
   15  2 1s         0.17925   0.00000     -0.000   0.000  -0.000
   15  3 2Ppy       0.01767   0.00000     -0.000  -0.000   0.000
   15  4 2Ppz       0.03763   0.00000     -0.000  -0.000  -0.000
   15  5 2Ppx       0.04671   0.00000     -0.000   0.000  -0.000
   15     Total     0.75221   0.00000     -0.000   0.000  -0.000

   16  1 1s         0.50482   0.00000     -0.000  -0.000  -0.000
   16  2 1s         0.19041   0.00000      0.000   0.000  -0.000
   16  3 2Ppy       0.02899   0.00000     -0.000  -0.000   0.000
   16  4 2Ppz       0.03985   0.00000      0.000   0.000  -0.000
   16  5 2Ppx       0.02434   0.00000     -0.000  -0.000  -0.000
   16     Total     0.78841   0.00000     -0.000  -0.000  -0.000

   24  1 1s         1.05802   0.00000     -0.000   0.000  -0.000
   24  2 1s         0.07634   0.00000      0.000  -0.000   0.000
   24  3 2Ppy       0.03056   0.00000     -0.000  -0.000   0.000
   24  4 2Ppz       0.03057   0.00000      0.000  -0.000  -0.000
   24  5 2Ppx       0.01776   0.00000      0.000  -0.000  -0.000
   24     Total     1.21325   0.00000     -0.000   0.000  -0.000

   25  1 1s         1.04605   0.00000      0.000   0.000  -0.000
   25  2 1s         0.08496   0.00000      0.000  -0.000  -0.000
   25  3 2Ppy       0.01145   0.00000     -0.000  -0.000  -0.000
   25  4 2Ppz       0.01868   0.00000      0.000   0.000  -0.000
   25  5 2Ppx       0.03598   0.00000      0.000   0.000   0.000
   25     Total     1.19713   0.00000      0.000   0.000  -0.000

   26  1 1s         0.48032   0.00000      0.000  -0.000  -0.000
   26  2 1s         0.19691   0.00000      0.000   0.000  -0.000
   26  3 2Ppy       0.02075   0.00000      0.000  -0.000   0.000
   26  4 2Ppz       0.04870   0.00000      0.000   0.000   0.000
   26  5 2Ppx       0.01772   0.00000      0.000  -0.000  -0.000
   26     Total     0.76439   0.00000      0.000   0.000  -0.000

   27  1 1s         0.47601   0.00000      0.000   0.000  -0.000
   27  2 1s         0.17208   0.00000     -0.000  -0.000  -0.000
   27  3 2Ppy       0.02157   0.00000     -0.000   0.000  -0.000
   27  4 2Ppz       0.03325   0.00000     -0.000  -0.000  -0.000
   27  5 2Ppx       0.04870   0.00000      0.000  -0.000  -0.000
   27     Total     0.75162   0.00000     -0.000  -0.000  -0.000

   29  1 1s         0.48664   0.00000      0.000  -0.000  -0.000
   29  2 1s         0.18839   0.00000      0.000  -0.000  -0.000
   29  3 2Ppy       0.02474   0.00000      0.000  -0.000  -0.000
   29  4 2Ppz       0.03453   0.00000     -0.000  -0.000   0.000
   29  5 2Ppx       0.02565   0.00000      0.000   0.000  -0.000
   29     Total     0.75996   0.00000      0.000  -0.000  -0.000

----------------------------------------------------------------
Total              98.00000   0.00000     -0.000  -0.000  -0.000


siesta: Eigenvalues (eV):
ik =     1
  -22.2744  -22.2744  -21.8661  -21.8661  -21.3604  -21.3604  -21.2635  -21.2635  -21.2302  -21.2302
  -21.1816  -21.1816  -20.5810  -20.5810  -19.6493  -19.6493  -19.5329  -19.5329  -19.4020  -19.4020
  -14.7560  -14.7560  -13.8303  -13.8303  -13.3132  -13.3132  -13.0953  -13.0953  -12.8799  -12.8799
  -12.8162  -12.8162  -12.5772  -12.5772  -12.2018  -12.2018  -12.0481  -12.0481  -11.9288  -11.9288
  -11.1868  -11.1868  -10.8187  -10.8187  -10.6412  -10.6412  -10.5532  -10.5532  -10.1377  -10.1377
   -9.5991   -9.5991   -9.1185   -9.1185   -8.8311   -8.8311   -8.7682   -8.7682   -8.6481   -8.6481
   -8.5342   -8.5342   -8.4771   -8.4771   -8.0723   -8.0723   -8.0686   -8.0686   -7.7063   -7.7063
   -7.6965   -7.6965   -7.3795   -7.3795   -7.1499   -7.1499   -6.9281   -6.9281   -6.7228   -6.7228
   -6.6639   -6.6639   -6.4412   -6.4412   -6.2734   -6.2734   -6.2486   -6.2486   -6.1763   -6.1763
   -6.1643   -6.1643   -5.8345   -5.8345   -5.5287   -5.5287   -4.2905   -4.2905   -3.2653   -3.2653
   -2.3014   -2.3014   -2.2986   -2.2986   -2.1715   -2.1715   -1.8806   -1.8806   -1.8134   -1.8134
   -1.7857   -1.7857   -1.7073   -1.7073   -1.6091   -1.6091   -1.2894   -1.2894   -1.0360   -1.0360
   -0.8640   -0.8640   -0.5811   -0.5811   -0.3207   -0.3207   -0.2992   -0.2992    0.2907    0.2907
    0.5161    0.5161    0.5429    0.5429    0.6872    0.6872    0.9876    0.9876    1.1652    1.1652
    1.2591    1.2591    1.3262    1.3262    1.4104    1.4104    1.5085    1.5085    1.8657    1.8657
    1.9002    1.9002    2.0741    2.0741    2.5820    2.5820    2.5943    2.5943    2.7572    2.7572
    2.8368    2.8368    2.8718    2.8718    2.9199    2.9199    3.4557    3.4557    3.4775    3.4775
    3.7913    3.7913    4.0609    4.0609    4.1305    4.1305    4.2007    4.2007    4.3064    4.3064
    4.6881    4.6881    4.7132    4.7132    4.7406    4.7406    4.8248    4.8248    4.9945    4.9945
    5.0545    5.0545    5.2550    5.2550    5.2954    5.2954    5.6774    5.6774    5.7180    5.7180
    5.9625    5.9625    6.0510    6.0510    6.1088    6.1088    6.3553    6.3553    6.4056    6.4056
    6.4912    6.4912    6.6166    6.6166    6.7126    6.7126    6.7754    6.7754    7.0892    7.0892
    7.1429    7.1429    7.2502    7.2502    7.6207    7.6207    7.8425    7.8425    7.8951    7.8951
    8.0460    8.0460    8.0576    8.0576    8.1477    8.1477    8.4147    8.4147    8.6384    8.6384
    8.8415    8.8415    8.9028    8.9028    8.9184    8.9184    9.0141    9.0141    9.4035    9.4035
    9.4141    9.4141    9.7332    9.7332    9.7812    9.7812    9.9661    9.9661   10.1179   10.1179
   10.2734   10.2734   10.4199   10.4199   10.7007   10.7007   11.0839   11.0839   11.2265   11.2265
   11.3034   11.3034   11.3290   11.3290   11.8968   11.8968   12.0443   12.0443   12.0699   12.0699
   12.2480   12.2480   12.4388   12.4388   12.5418   12.5418   12.6293   12.6293   12.9157   12.9157
   13.0718   13.0718   13.2941   13.2941   13.5666   13.5666   13.7566   13.7566   13.9490   13.9490
   14.0409   14.0409   14.1928   14.1928   14.7060   14.7060   14.9819   14.9819   15.0531   15.0531
   15.4421   15.4421   15.8978   15.8978   16.4540   16.4540   16.7504   16.7504   17.0261   17.0261
   17.1250   17.1250   17.5448   17.5448   17.7638   17.7638   18.8011   18.8011   18.8698   18.8698
   19.2209   19.2209   19.4232   19.4232   20.2219   20.2219   20.3650   20.3650   20.4459   20.4459
   21.1955   21.1955   21.5499   21.5499   22.2714   22.2714   22.7537   22.7537   22.9551   22.9551
   23.3977   23.3977   23.7834   23.7834   23.9553   23.9553   24.1020   24.1020   24.8405   24.8405
   25.1471   25.1471   25.8803   25.8803   26.2926   26.2926   27.3982   27.3982   28.3597   28.3597
   28.9957   28.9957   29.2246   29.2246   29.9168   29.9168   30.0338   30.0338   30.1891   30.1891
   30.6173   30.6173   30.6807   30.6807   30.9069   30.9069   31.0713   31.0713   31.2507   31.2507
   31.4348   31.4348   31.7635   31.7635   32.1352   32.1352   32.9748   32.9748   33.4552   33.4552
   34.1885   34.1885   34.3254   34.3254   34.5975   34.5975   34.6724   34.6724   35.2788   35.2788
   35.7334   35.7334   35.8851   35.8851   35.9691   35.9691   37.0952   37.0952   37.4256   37.4256
   37.7972   37.7972   38.3800   38.3800   38.5255   38.5255   38.7259   38.7259   39.2810   39.2810
   39.4435   39.4435   39.7259   39.7259   40.7330   40.7330   40.9082   40.9082   40.9140   40.9140
   41.2756   41.2756   41.3393   41.3393   41.3660   41.3660   41.6457   41.6457   42.0847   42.0847
   43.2846   43.2846   43.2895   43.2895   43.4099   43.4099   43.6773   43.6773   44.0708   44.0708
   44.2055   44.2055   44.3964   44.3964   44.9555   44.9555   45.0862   45.0862   45.0960   45.0960
   45.6150   45.6150   46.4623   46.4623   46.7157   46.7157   47.6078   47.6078   47.6599   47.6599
   48.0444   48.0444   49.3143   49.3143   49.9892   49.9892   50.2043   50.2043   50.4544   50.4544
   50.6311   50.6311   51.3724   51.3724   51.5914   51.5914   51.8212   51.8212   52.3528   52.3528
   52.8917   52.8917   52.9438   52.9438   54.0926   54.0926   55.2779   55.2779   55.6321   55.6321
   55.6666   55.6666   56.1844   56.1844   56.3981   56.3981   57.4973   57.4973   57.5154   57.5154
   57.7206   57.7206   58.6589   58.6589   58.7273   58.7273   59.8921   59.8921   60.5786   60.5786
   61.4765   61.4765   61.7170   61.7170   61.7475   61.7475   62.0641   62.0641   63.7470   63.7470
   64.8910   64.8910   65.2763   65.2763   65.8408   65.8408   66.2019   66.2019   67.6174   67.6174
   68.0676   68.0676   68.7914   68.7914   70.0041   70.0041   71.8735   71.8735   72.0129   72.0129
   75.0051   75.0051   85.2348   85.2348   92.5593   92.5593   93.0179   93.0179   94.2351   94.2351
   98.7482   98.7482   99.9472   99.9472  102.1458  102.1458  103.9414  103.9414  104.9364  104.9364
  113.0812  113.0812  115.0092  115.0092  125.4053  125.4053  127.1343  127.1343  134.0091  134.0091
  140.3055  140.3055  142.4652  142.4652
siesta: Fermi energy =      -3.778038 eV

siesta: Program's energy decomposition (eV):
siesta: Ebs     =     -1132.894780
siesta: Eions   =      3585.165840
siesta: Ena     =       383.061647
siesta: Ekin    =      2907.561319
siesta: Enl     =     -2793.121053
siesta: Eso     =        -0.004312
siesta: Edftu   =         0.000000
siesta: DEna    =        47.473179
siesta: DUscf   =        14.022187
siesta: DUext   =         0.000000
siesta: Exc     =     -1121.272627
siesta: eta*DQ  =         0.000000
siesta: Emadel  =         0.000000
siesta: Emeta   =         0.000000
siesta: Emolmec =         0.000000
siesta: Ekinion =         0.000000
siesta: Eharris =     -4147.445499
siesta: Etot    =     -4147.445499
siesta: FreeEng =     -4147.445499

siesta: Final energy (eV):
siesta:  Band Struct. =   -1132.894780
siesta:       Kinetic =    2907.561319
siesta:       Hartree =    8768.085896
siesta:       Edftu   =       0.000000
siesta:       Eso     =      -0.004312
siesta:    Ext. field =       0.000000
siesta:   Exch.-corr. =   -1121.272627
siesta:  Ion-electron =  -20121.044310
siesta:       Ion-ion =    5419.228535
siesta:       Ekinion =       0.000000
siesta:         Total =   -4147.445499
siesta:         Fermi =      -3.778038

siesta: Atomic forces (eV/Ang):
siesta:      1    3.430253    1.950877    0.000000
siesta:      2    0.000760   -0.009800   -0.000000
siesta:      3    0.395941   -0.142619    0.000000
siesta:      4    0.362133   -0.011187   -0.000000
siesta:      5    0.041213   -0.052313    0.000000
siesta:      6    1.120541    0.623200    0.000000
siesta:      7    0.017744   -0.123856   -0.000000
siesta:      8   -0.196876    0.144564    0.000000
siesta:      9   -0.062071    0.631733   -0.000000
siesta:     10   -0.479303    0.220332   -0.000000
siesta:     11   -0.007448   -0.011601    0.000000
siesta:     12   -0.046816   -0.050626    0.000000
siesta:     13   -0.104503    0.073281    0.000000
siesta:     14    0.093928   -0.032299   -0.000000
siesta:     15   -0.706148   -0.479288    0.000000
siesta:     16   -0.084123   -0.186633   -0.000000
siesta:     17    0.507232   -0.572181   -0.000000
siesta:     18   -0.109855    0.094487   -0.000000
siesta:     19   -0.121415   -0.559031    0.000000
siesta:     20   -0.017792   -0.202394   -0.000000
siesta:     21   -0.141030    0.449240    0.000000
siesta:     22   -1.395330   -0.759375   -0.000000
siesta:     23    0.148874    0.305189    0.000000
siesta:     24   -0.045408    0.112947    0.000000
siesta:     25    0.002291    0.066173    0.000000
siesta:     26   -0.129470    0.097993   -0.000000
siesta:     27    0.890486    0.857623   -0.000000
siesta:     28   -4.092784    0.884896   -0.000000
siesta:     29    0.036136   -0.025677    0.000000
siesta: ----------------------------------------
siesta:    Tot   -0.692841    3.293654    0.000000

siesta: Stress tensor (static) (eV/Ang**3):
siesta:     0.000329    0.000722    0.000000
siesta:     0.000722    0.000150    0.000000
siesta:    -0.000000    0.000000   -0.000062

siesta: Cell volume =       4608.142887 Ang**3

siesta: Pressure (static):
siesta:                Solid            Molecule  Units
siesta:          -0.00000151          0.00001311  Ry/Bohr**3
siesta:          -0.00013874          0.00120352  eV/Ang**3
siesta:          -0.22228632          1.92827151  kBar
(Free)E+ p_basis*V_orbitals  =       -4127.595082
(Free)Eharris+ p_basis*V_orbitals  =       -4127.595082
     spin moment: S , {S} =    0.00000  -0.00000  -0.00000  -0.00000

siesta: Electric dipole (a.u.)  =    1.671782    0.147385   -0.000000
siesta: Electric dipole (Debye) =    4.249249    0.374616   -0.000000

cite: Please see "GC.bib" for an exhaustive BiBTeX file.
cite: Please clearly indicate Siesta version in published work: v4.1.5-1-g384057250
cite: This calculation has made use of the following articles
cite: which are encouraged to be cited in a published work.
        Primary SIESTA paper
          DOI: www.doi.org/10.1088/0953-8984/14/11/302
        Spin-orbit coupling (on-site approximation)
          DOI: www.doi.org/10.1088/0953-8984/19/19/489001


WARNING: alloc-realloc-dealloc name mismatch
         Name: atomlist isa
         Size:              -116. Bytes
         Node:     0
         Subsequent mismatches will not be reported
>> End of run:   4-JUL-2023  11:06:44
Job completed
