<?xml version="1.0" encoding="UTF-8" ?>
<psml version="1.1" energy_unit="hartree" length_unit="bohr"
 uuid="c3c4a6d0-3f16-11ef-6bd0-4252fffdcaf3"
 xmlns="http://esl.cecam.org/PSML/ns/1.1">
<provenance creator="ATM4.2.7" date="11-JUL-24">
<annotation action="semilocal-pseudopotential-generation" />
<input-file name="INP">
<![CDATA[   pe        Silicon
        tm2    3.000
   Si   vwr 00000000
       0.0
    3    3
    3    0     1.000     1.000
    3    1     2.000     0.000
    3    2     0.000     0.000
   0.20067   0.36749   2.05831   0.00000   1.00000   0.00000
]]>
</input-file>
</provenance>
<pseudo-atom-spec atomic-label="Si" atomic-number="14" z-pseudo="4"
 flavor="Troullier-Martins" relativity="dirac" spin-dft="no"
 core-corrections="yes">
<annotation pseudo-energy="-9.10767629490" />
<exchange-correlation>
<annotation atom-xc-code="vw" siesta-xc-type="VDW" siesta-xc-authors="DRSLL" />
<libxc-info number-of-functionals="2">
<functional name="XC_GGA_X_OPTB88_VDW" type="XC_EXCHANGE" id="139" />
<functional name="XC_NOT_IMPL" type="XC_EXCHANGE_CORRELATION" id="-1" />
</libxc-info>
</exchange-correlation>
<valence-configuration total-valence-charge="4">
<shell n="3" l="s" occupation="2" />
<shell n="3" l="p" occupation="2" />
</valence-configuration>
</pseudo-atom-spec>
<grid npts="376">
<annotation type="sampled-log-atom"
 recipe="r(i:1..N) = a*(exp(b*(i-1))-1); resampled"
 recipe-cont="a: scale; b: step" scale="0.177053726905E-03"
 step="0.125000000000E-01" delta="0.500000000000E-02" rmax="20" />
<grid-data>
  0.000000000000E+00  5.062298916504E-03  1.011320763748E-02  1.517421232168E-02
  2.028757462025E-02  2.545126523066E-02  3.073659984152E-02  3.573948755673E-02
  4.103364701456E-02  4.652078806808E-02  5.208120548357E-02  5.757725458177E-02
  6.285843931485E-02  6.862254753887E-02  7.398094606465E-02  7.975667890972E-02
  8.491196174541E-02  9.039973175815E-02  9.624143252852E-02  1.024598906292E-01
  1.077221992951E-01  1.132543122957E-01  1.190700627951E-01  1.251839931988E-01
  1.316113915176E-01  1.366472912027E-01  1.418756226718E-01  1.473037391278E-01
  1.529392747540E-01  1.587901554511E-01  1.648646099843E-01  1.711711815565E-01
  1.777187398231E-01  1.845164933671E-01  1.915740026497E-01  1.989011934564E-01
  2.039408832776E-01  2.091081534541E-01  2.144062336978E-01  2.198384354815E-01
  2.254081541081E-01  2.311188708329E-01  2.369741550400E-01  2.429776664724E-01
  2.491331575204E-01  2.554444755661E-01  2.619155653888E-01  2.685504716302E-01
  2.753533413229E-01  2.823284264817E-01  2.894800867620E-01  2.968127921842E-01
  3.043311259280E-01  3.120397871966E-01  3.199435941544E-01  3.280474869379E-01
  3.363565307439E-01  3.448759189953E-01  3.536109765870E-01  3.625671632145E-01
  3.717500767859E-01  3.811654569212E-01  3.908191885393E-01  4.007173055369E-01
  4.057599358078E-01  4.108659945592E-01  4.160362796232E-01  4.212715988673E-01
  4.265727703208E-01  4.319406223026E-01  4.373759935504E-01  4.428797333520E-01
  4.484527016780E-01  4.540957693161E-01  4.598098180070E-01  4.655957405824E-01
  4.714544411046E-01  4.773868350073E-01  4.833938492393E-01  4.894764224088E-01
  4.956355049300E-01  5.018720591723E-01  5.081870596100E-01  5.145814929746E-01
  5.210563584094E-01  5.276126676253E-01  5.342514450590E-01  5.409737280329E-01
  5.477805669174E-01  5.546730252950E-01  5.616521801263E-01  5.687191219184E-01
  5.758749548954E-01  5.831207971708E-01  5.904577809221E-01  5.978870525679E-01
  6.054097729471E-01  6.130271175001E-01  6.207402764524E-01  6.285504550008E-01
  6.364588735016E-01  6.444667676612E-01  6.525753887295E-01  6.607860036950E-01
  6.690998954829E-01  6.775183631558E-01  6.860427221164E-01  6.946743043131E-01
  7.034144584481E-01  7.122645501884E-01  7.212259623788E-01  7.303000952582E-01
  7.394883666782E-01  7.487922123251E-01  7.582130859435E-01  7.677524595643E-01
  7.774118237338E-01  7.871926877475E-01  7.970965798852E-01  8.071250476502E-01
  8.172796580110E-01  8.275619976462E-01  8.379736731922E-01  8.485163114945E-01
  8.591915598618E-01  8.700010863233E-01  8.809465798897E-01  8.920297508164E-01
  9.032523308716E-01  9.146160736062E-01  9.261227546280E-01  9.377741718795E-01
  9.495721459183E-01  9.615185202018E-01  9.736151613753E-01  9.858639595636E-01
  9.982668286664E-01  1.010825706657E+00  1.023542555886E+00  1.036419363387E+00
  1.049458141187E+00  1.062660926621E+00  1.076029782653E+00  1.089566798192E+00
  1.103274088425E+00  1.117153795144E+00  1.131208087081E+00  1.145439160249E+00
  1.159849238280E+00  1.174440572780E+00  1.189215443674E+00  1.204176159565E+00
  1.219325058096E+00  1.234664506314E+00  1.250196901037E+00  1.265924669235E+00
  1.281850268402E+00  1.297976186948E+00  1.314304944578E+00  1.330839092694E+00
  1.347581214792E+00  1.364533926861E+00  1.381699877797E+00  1.399081749816E+00
  1.416682258869E+00  1.434504155072E+00  1.452550223133E+00  1.470823282787E+00
  1.489326189236E+00  1.508061833597E+00  1.527033143353E+00  1.546243082810E+00
  1.565694653559E+00  1.585390894947E+00  1.605334884554E+00  1.625529738668E+00
  1.645978612775E+00  1.666684702055E+00  1.687651241875E+00  1.708881508300E+00
  1.730378818602E+00  1.752146531781E+00  1.774188049085E+00  1.796506814546E+00
  1.819106315517E+00  1.841990083215E+00  1.865161693277E+00  1.888624766313E+00
  1.912382968477E+00  1.936440012034E+00  1.960799655949E+00  1.985465706464E+00
  2.010442017700E+00  2.035732492256E+00  2.061341081822E+00  2.087271787790E+00
  2.113528661886E+00  2.140115806801E+00  2.167037376830E+00  2.194297578523E+00
  2.221900671342E+00  2.249850968327E+00  2.278152836767E+00  2.306810698888E+00
  2.335829032539E+00  2.365212371894E+00  2.394965308159E+00  2.425092490291E+00
  2.455598625723E+00  2.486488481102E+00  2.517766883029E+00  2.549438718820E+00
  2.581508937262E+00  2.613982549393E+00  2.646864629280E+00  2.680160314816E+00
  2.713874808519E+00  2.748013378347E+00  2.782581358521E+00  2.817584150359E+00
  2.853027223118E+00  2.888916114849E+00  2.925256433267E+00  2.962053856618E+00
  2.999314134576E+00  3.037043089135E+00  3.075246615520E+00  3.113930683110E+00
  3.153101336371E+00  3.192764695795E+00  3.232926958863E+00  3.273594401011E+00
  3.314773376610E+00  3.356470319957E+00  3.398691746286E+00  3.441444252780E+00
  3.484734519605E+00  3.528569310954E+00  3.572955476101E+00  3.617899950476E+00
  3.663409756744E+00  3.709492005904E+00  3.756153898402E+00  3.803402725254E+00
  3.851245869185E+00  3.899690805783E+00  3.948745104669E+00  3.998416430676E+00
  4.048712545051E+00  4.099641306662E+00  4.151210673234E+00  4.203428702584E+00
  4.256303553885E+00  4.309843488942E+00  4.364056873477E+00  4.418952178442E+00
  4.474537981341E+00  4.530822967568E+00  4.587815931766E+00  4.645525779203E+00
  4.703961527159E+00  4.763132306339E+00  4.823047362298E+00  4.883716056884E+00
  4.945147869706E+00  5.007352399608E+00  5.070339366175E+00  5.134118611249E+00
  5.198700100466E+00  5.264093924816E+00  5.330310302216E+00  5.397359579111E+00
  5.465252232086E+00  5.533998869506E+00  5.603610233174E+00  5.674097200006E+00
  5.745470783735E+00  5.817742136628E+00  5.890922551231E+00  5.965023462133E+00
  6.040056447752E+00  6.116033232145E+00  6.192965686838E+00  6.270865832684E+00
  6.349745841740E+00  6.429618039168E+00  6.510494905160E+00  6.592389076892E+00
  6.675313350494E+00  6.759280683053E+00  6.844304194636E+00  6.930397170340E+00
  7.017573062366E+00  7.105845492126E+00  7.195228252365E+00  7.285735309323E+00
  7.377380804911E+00  7.470179058924E+00  7.564144571278E+00  7.659292024276E+00
  7.755636284901E+00  7.853192407139E+00  7.951975634333E+00  8.052001401564E+00
  8.153285338060E+00  8.255843269644E+00  8.359691221200E+00  8.464845419182E+00
  8.571322294148E+00  8.679138483326E+00  8.788310833214E+00  8.898856402216E+00
  9.010792463300E+00  9.124136506704E+00  9.238906242665E+00  9.355119604189E+00
  9.472794749849E+00  9.591950066626E+00  9.712604172781E+00  9.834775920763E+00
  9.958484400157E+00  1.008374894066E+01  1.021058911512E+01  1.033902474257E+01
  1.046907589134E+01  1.060076288217E+01  1.073410629144E+01  1.086912695432E+01
  1.100584596807E+01  1.114428469530E+01  1.128446476736E+01  1.142640808766E+01
  1.157013683513E+01  1.171567346769E+01  1.186304072574E+01  1.201226163569E+01
  1.216335951363E+01  1.231635796891E+01  1.247128090784E+01  1.262815253745E+01
  1.278699736925E+01  1.294784022307E+01  1.311070623093E+01  1.327562084098E+01
  1.344260982147E+01  1.361169926475E+01  1.378291559140E+01  1.395628555431E+01
  1.413183624291E+01  1.430959508733E+01  1.448958986276E+01  1.467184869376E+01
  1.485640005863E+01  1.504327279389E+01  1.523249609880E+01  1.542409953989E+01
  1.561811305557E+01  1.581456696086E+01  1.601349195207E+01  1.621491911165E+01
  1.641887991299E+01  1.662540622539E+01  1.683453031900E+01  1.704628486989E+01
  1.726070296514E+01  1.747781810800E+01  1.769766422317E+01  1.792027566205E+01
  1.814568720812E+01  1.837393408240E+01  1.860505194893E+01  1.883907692034E+01
  1.907604556351E+01  1.931599490528E+01  1.955896243822E+01  1.980498612650E+01
</grid-data>
</grid>
<valence-charge total-charge="4" is-unscreening-charge="yes"
 rescaled-to-z-pseudo="no">
<radfunc>
<data>
  1.158058892261E-01  1.158172003427E-01  1.158510321045E-01  1.159075202403E-01
  1.159875569718E-01  1.160918069248E-01  1.162228928879E-01  1.163696975906E-01
  1.165491192368E-01  1.167612045367E-01  1.170032516876E-01  1.172693380876E-01
  1.175501666800E-01  1.178848066093E-01  1.182222324728E-01  1.186143656541E-01
  1.189892908085E-01  1.194142275923E-01  1.198958486928E-01  1.204417183797E-01
  1.209303984347E-01  1.214705760551E-01  1.220676825189E-01  1.227277233141E-01
  1.234573391744E-01  1.240545988356E-01  1.246984907344E-01  1.253926616094E-01
  1.261410444784E-01  1.269478812923E-01  1.278177474106E-01  1.287555780470E-01
  1.297666968502E-01  1.308568467949E-01  1.320322235758E-01  1.332995117133E-01
  1.341989710345E-01  1.351447495594E-01  1.361392416947E-01  1.371849665749E-01
  1.382845746473E-01  1.394408546109E-01  1.406567407277E-01  1.419353205261E-01
  1.432798429170E-01  1.446937267431E-01  1.461805697846E-01  1.477441582418E-01
  1.493884767190E-01  1.511177187312E-01  1.529362977575E-01  1.548488588626E-01
  1.568602909079E-01  1.589757393723E-01  1.612006197992E-01  1.635406318839E-01
  1.660017742113E-01  1.685903596454E-01  1.713130313669E-01  1.741767795416E-01
  1.771889585914E-01  1.803573050191E-01  1.836899557193E-01  1.871954666771E-01
  1.890158377549E-01  1.908828319222E-01  1.927976450009E-01  1.947615025637E-01
  1.967756605173E-01  1.988414056745E-01  2.009600563148E-01  2.031329627286E-01
  2.053615077410E-01  2.076471072118E-01  2.099912105051E-01  2.123953009248E-01
  2.148608961083E-01  2.173895483725E-01  2.199828450036E-01  2.226424084833E-01
  2.253698966399E-01  2.281670027166E-01  2.310354553423E-01  2.339770183940E-01
  2.369934907362E-01  2.400867058200E-01  2.432585311268E-01  2.465108674355E-01
  2.498456478926E-01  2.532648368623E-01  2.567704285304E-01  2.603644452350E-01
  2.640489354916E-01  2.678259716816E-01  2.716976473646E-01  2.756660741776E-01
  2.797333782751E-01  2.839016962655E-01  2.881731705905E-01  2.925499442937E-01
  2.970341551186E-01  3.016279288717E-01  3.063333719818E-01  3.111525631834E-01
  3.160875442427E-01  3.211403096463E-01  3.263127951620E-01  3.316068651797E-01
  3.370242987344E-01  3.425667741102E-01  3.482358519197E-01  3.540329565503E-01
  3.599593558683E-01  3.660161390676E-01  3.722041925551E-01  3.785241737612E-01
  3.849764827741E-01  3.915612316989E-01  3.982782116540E-01  4.051268573310E-01
  4.121062090597E-01  4.192148723429E-01  4.264509748509E-01  4.338121208996E-01
  4.412953434725E-01  4.488970538953E-01  4.566129893223E-01  4.644381582570E-01
  4.723667843987E-01  4.803922491850E-01  4.885070334895E-01  4.967026590292E-01
  5.049696301429E-01  5.132973767154E-01  5.216741991427E-01  5.300872163578E-01
  5.385223180682E-01  5.469641224821E-01  5.553959409287E-01  5.637997508928E-01
  5.721561790929E-01  5.804444963136E-01  5.886426257696E-01  5.967271668006E-01
  6.046734356910E-01  6.124555253395E-01  6.200463853933E-01  6.274179242706E-01
  6.345411342467E-01  6.413862404413E-01  6.479228741314E-01  6.541202703158E-01
  6.599474888784E-01  6.653736580422E-01  6.703682380853E-01  6.749013025214E-01
  6.789438331457E-01  6.824680245448E-01  6.854475928896E-01  6.878580831195E-01
  6.896771680092E-01  6.908849321417E-01  6.914641335274E-01  6.914004355485E-01
  6.906826021215E-01  6.893026494702E-01  6.872559487406E-01  6.845412748574E-01
  6.811607985528E-01  6.771200203732E-01  6.724276476908E-01  6.670954182883E-01
  6.611378769355E-01  6.545721144969E-01  6.474174824930E-01  6.396952996424E-01
  6.314285707351E-01  6.226417421989E-01  6.133605206331E-01  6.036117618299E-01
  5.934233798847E-01  5.828242244367E-01  5.718439603529E-01  5.605129382566E-01
  5.488620560074E-01  5.369226144622E-01  5.247261670333E-01  5.123043642963E-01
  4.996887944049E-01  4.869108202485E-01  4.740014158637E-01  4.609910027153E-01
  4.479092876594E-01  4.347851192753E-01  4.216463973608E-01  4.085200140911E-01
  3.954317823786E-01  3.824063861854E-01  3.694673337085E-01  3.566369154906E-01
  3.439361715098E-01  3.313848666072E-01  3.190014702553E-01  3.068031445277E-01
  2.948057377077E-01  2.830237838411E-01  2.714705044509E-01  2.601578204879E-01
  2.490963896798E-01  2.382956367161E-01  2.277637780569E-01  2.175078579405E-01
  2.075337819526E-01  1.978463511368E-01  1.884492904683E-01  1.793452965287E-01
  1.705361074384E-01  1.620225208270E-01  1.538044510381E-01  1.458809928444E-01
  1.382504829232E-01  1.309105486602E-01  1.238581582772E-01  1.170896695990E-01
  1.106008765051E-01  1.043870552223E-01  9.844301237027E-02  9.276312755377E-02
  8.734139811911E-02  8.217149698854E-02  7.724682794478E-02  7.256056549577E-02
  6.810569232363E-02  6.387503674877E-02  5.986130463823E-02  5.605711218133E-02
  5.245501878471E-02  4.904755226344E-02  4.582723995524E-02  4.278664432400E-02
  3.991839014013E-02  3.721518569208E-02  3.466984106729E-02  3.227528453750E-02
  3.002457704029E-02  2.791092535244E-02  2.592769526072E-02  2.406842123352E-02
  2.232681653250E-02  2.069678483374E-02  1.917242784376E-02  1.774804974214E-02
  1.641815982653E-02  1.517747401146E-02  1.402091541361E-02  1.294361407381E-02
  1.194090603649E-02  1.100833188572E-02  1.014163435897E-02  9.336755440953E-03
  8.589833212162E-03  7.897197957275E-03  7.255367436912E-03  6.661041588170E-03
  6.111096902205E-03  5.602580544877E-03  5.132704309796E-03  4.698838493685E-03
  4.298505702401E-03  3.929374589304E-03  3.589253607820E-03  3.276084761746E-03
  2.987937422467E-03  2.723002231134E-03  2.479585084926E-03  2.256101238556E-03
  2.051069531753E-03  1.863106780119E-03  1.690922344474E-03  1.533312892874E-03
  1.389157343153E-03  1.257412002199E-03  1.137105941523E-03  1.027336561471E-03
  9.272653409998E-04  8.361138308460E-04  7.531598507939E-04  6.777338190518E-04
  6.092153403126E-04  5.470300447242E-04  4.906464566645E-04  4.395730552645E-04
  3.933558038721E-04  3.515755302766E-04  3.138452817308E-04  2.798086552200E-04
  2.491378571636E-04  2.215313529237E-04  1.967118121502E-04  1.744246798994E-04
  1.544361254369E-04  1.365317065879E-04  1.205154970367E-04  1.062083922892E-04
  9.344656869133E-05  8.208019289600E-05  7.197253131468E-05  6.299896037912E-05
  5.504582029158E-05  4.800951869820E-05  4.179568518345E-05  3.631839908403E-05
  3.149960886435E-05  2.726841754509E-05  2.356047789227E-05  2.031759818531E-05
  1.748717024592E-05  1.502173830882E-05  1.287863523202E-05  1.101953491200E-05
  9.410124331910E-06  8.019752320706E-06  6.821099581775E-06  5.789885025585E-06
  4.904575723315E-06  4.146126692552E-06  3.497732938516E-06  2.944603225617E-06
  2.473749981897E-06  2.073796437524E-06  1.734801804367E-06  1.448101438767E-06
  1.206160946501E-06  1.002444114601E-06  8.312947240934E-07  6.878298867504E-07
  5.678442087046E-07  4.677245354723E-07  3.843741812216E-07  3.151456523026E-07
  2.577810781085E-07  2.103596558319E-07  1.712514068668E-07  1.390766123267E-07
  1.126703351933E-07  9.105148026431E-08  7.339589355191E-08  5.901303325966E-08
  4.732583269039E-08  3.785316588297E-08  3.019561597331E-08  2.402014973276E-08
  1.905581233688E-08  1.507216438718E-08  1.188711111362E-08  9.350209252695E-09
  7.335334135837E-09  5.739277369008E-09  4.478352471362E-09  3.484880601220E-09
  2.704274383517E-09  2.092624429684E-09  1.614707240382E-09  1.242345382615E-09
  9.530613624391E-10  7.289756768669E-10  5.559073060789E-10  4.226415630523E-10
  3.203358973311E-10  2.420390819529E-10  1.823033116546E-10  1.368722071221E-10
  1.024306428188E-10  7.640477247572E-11  5.680268449862E-11  4.208783842791E-11
</data>
</radfunc>
</valence-charge>
<pseudocore-charge matching-radius="1.18921544367"
 number-of-continuous-derivatives="2">
<annotation model-core-charge="Three-parameter Martins fit" />
<radfunc>
<data>
  8.494390097327E+01  8.493500078060E+01  8.490838615578E+01  8.486396842059E+01
  8.480107700159E+01  8.471923488111E+01  8.461644624734E+01  8.450149221371E+01
  8.436122720767E+01  8.419575182663E+01  8.400732834605E+01  8.380071771623E+01
  8.358325635579E+01  8.332492294879E+01  8.306531354411E+01  8.276471258309E+01
  8.247840365413E+01  8.215519910129E+01  8.179053725834E+01  8.137934622949E+01
  8.101313276125E+01  8.061040212453E+01  8.016774856050E+01  7.968150002728E+01
  7.914770897107E+01  7.871363222209E+01  7.824854986033E+01  7.775048215471E+01
  7.721736047547E+01  7.664702967986E+01  7.603725189365E+01  7.538571192551E+01
  7.469002457573E+01  7.394774412536E+01  7.315637631534E+01  7.231339314726E+01
  7.172147301417E+01  7.110472876127E+01  7.046241141285E+01  6.979377992294E+01
  6.909810517678E+01  6.837467439831E+01  6.762279598270E+01  6.684180477139E+01
  6.603106778470E+01  6.518999042405E+01  6.431802315209E+01  6.341466865471E+01
  6.247948948281E+01  6.151211616599E+01  6.051225578201E+01  5.947970095745E+01
  5.841433926503E+01  5.731616297139E+01  5.618527907689E+01  5.502191957468E+01
  5.382645184127E+01  5.259938905412E+01  5.134140051442E+01  5.005332173444E+01
  4.873616412990E+01  4.739112413831E+01  4.601959156474E+01  4.462315693794E+01
  4.391615481832E+01  4.320361764226E+01  4.248580316892E+01  4.176298257526E+01
  4.103544050244E+01  4.030347506861E+01  3.956739784614E+01  3.882753380088E+01
  3.808422119156E+01  3.733781142706E+01  3.658866887958E+01  3.583717065171E+01
  3.508370629550E+01  3.432867748172E+01  3.357249761772E+01  3.281559141222E+01
  3.205839438582E+01  3.130135232598E+01  3.054492068550E+01  2.978956392387E+01
  2.903575479090E+01  2.828397355258E+01  2.753470715915E+01  2.678844835602E+01
  2.604569473819E+01  2.530694774940E+01  2.457271162771E+01  2.384349229929E+01
  2.311979622298E+01  2.240212918855E+01  2.169099507175E+01  2.098689455023E+01
  2.029032378430E+01  1.960177306755E+01  1.892172545220E+01  1.825065535515E+01
  1.758902715056E+01  1.693729375565E+01  1.629589521659E+01  1.566525730170E+01
  1.504579010976E+01  1.443788670116E+01  1.384192176017E+01  1.325825029673E+01
  1.268720639606E+01  1.212910202486E+01  1.158422590250E+01  1.105284244573E+01
  1.053519079513E+01  1.003148393146E+01  9.541907889504E+00  9.066621076798E+00
  8.605753703924E+00  8.159407332624E+00  7.727654547183E+00  7.310538753793E+00
  6.908074111786E+00  6.520245599641E+00  6.147009217734E+00  5.788292328718E+00
  5.443994135318E+00  5.113986294211E+00  4.798113663484E+00  4.496195179987E+00
  4.208024861753E+00  3.933372929470E+00  3.671987039914E+00  3.423593623137E+00
  3.187899314254E+00  2.964592469703E+00  2.753344757051E+00  2.553812806698E+00
  2.365639913222E+00  2.188457773657E+00  2.021888249662E+00  1.865545140364E+00
  1.719035952645E+00  1.581963655769E+00  1.453928407519E+00  1.334529239498E+00
  1.223365689782E+00  1.120039371875E+00  1.024155469763E+00  9.353241498237E-01
  8.531618814317E-01  7.772926592333E-01  7.073491213019E-01  6.429692648477E-01
  5.837868349990E-01  5.294487176125E-01  4.796195494239E-01  4.339812557913E-01
  3.922326626114E-01  3.540890378634E-01  3.192816992142E-01  2.875575996507E-01
  2.586788521805E-01  2.324222797999E-01  2.085789070910E-01  1.869534106871E-01
  1.673635701678E-01  1.496396814273E-01  1.336239641076E-01  1.191699613205E-01
  1.061419367666E-01  9.441427586968E-02  8.387089949581E-02  7.440468862723E-02
  6.591692856418E-02  5.831677383145E-02  5.152073257892E-02  4.545217619386E-02
  4.004087034203E-02  3.522252990133E-02  3.093839689026E-02  2.713484087412E-02
  2.376298178473E-02  2.077833408786E-02  1.814047173680E-02  1.581271320808E-02
  1.376182570457E-02  1.195774802269E-02  1.037333098263E-02  8.984094977702E-03
  7.768003484459E-03  6.705252558435E-03  5.778074479057E-03  4.970555627715E-03
  4.268467988164E-03  3.659112820529E-03  3.131176595614E-03  2.674598154380E-03
  2.280446447616E-03  1.940808218544E-03  1.648685186504E-03  1.397899928243E-03
  1.183010039217E-03  9.992299622936E-04  8.423599006238E-04  7.087214966997E-04
  5.950994461776E-04  4.986888939836E-04  4.170480882998E-04  3.480557177120E-04
  2.898727467615E-04  2.409082216361E-04  1.997887354163E-04  1.653312318668E-04
  1.365188443481E-04  1.124794581208E-04  9.246678290933E-05  7.584362317766E-05
  6.206715727280E-05  5.067603491805E-05  4.127905246461E-05  3.354526878345E-05
  2.719539073719E-05  2.199427548885E-05  1.774443102853E-05  1.428039214412E-05
  1.146387015588E-05  9.179579231785E-06  7.331650501457E-06  5.840568146388E-06
  4.640550536363E-06  3.677320185167E-06  2.906211647015E-06  2.290567312093E-06
  1.800383172231E-06  1.411168131427E-06  1.102986605317E-06  8.596564910438E-07
  6.680795545793E-07  5.176843765350E-07  3.999635792717E-07  3.080909687208E-07
  2.366056419021E-07  1.811520018775E-07  1.382665848035E-07  1.052037809722E-07
  7.979381806646E-08  6.032738665499E-08  4.546219908608E-08  3.414759231754E-08
  2.556384987457E-08  1.907354697556E-08  1.418267064841E-08  1.050964427211E-08
  7.760743711440E-09  5.710651371221E-09  4.187129018926E-09  3.058979614005E-09
  2.226625903444E-09  1.614763633245E-09  1.166653778736E-09  8.397042543783E-10
  6.020627153978E-10  4.299990792383E-10  3.059023656390E-10  2.167536776682E-10
  1.529667199611E-10  1.075108949046E-10  7.525076682734E-11  5.245052922666E-11
  3.640378495985E-11  2.515809885941E-11  1.731092425739E-11  1.185905408004E-11
  8.088035366076E-12  5.491294327512E-12  3.711250128104E-12  2.496630829207E-12
  1.671673486103E-12  1.114001214964E-12  7.388064314794E-13  4.875956369574E-13
  3.202182536631E-13  2.092483931735E-13  1.360442626179E-13  8.799789921474E-14
  5.662522561346E-14  3.624635988787E-14  2.307844408551E-14  1.461527186077E-14
  9.205253825016E-15  5.765844169165E-15  3.591349977229E-15  2.224280474433E-15
  1.369704173930E-15  8.385657845403E-16  5.103737698163E-16  3.087783237805E-16
  1.856857111732E-16  1.109811868709E-16  6.592121685476E-17  3.891070242002E-17
  2.282152881670E-17  1.329886138574E-17  7.699079801760E-18  4.427713532140E-18
  2.529278183620E-18  1.434995145765E-18  8.085365548310E-19  4.523796786132E-19
  2.513162395062E-19  1.386151220332E-19  7.589838256683E-20  4.125212449091E-20
  2.225409857874E-20  1.191471888939E-20  6.330354298644E-21  3.337335116697E-21
  1.745662029866E-21  9.058732811230E-22  4.663145582877E-22  2.380973380726E-22
  1.205730106916E-22  6.055128431946E-23  3.015301047223E-23  1.488769505378E-23
  7.287345722611E-24  3.535985672108E-24  1.700611645537E-24  8.105996702687E-25
  3.828838758966E-25  1.792004729657E-25  8.309481455048E-26  3.816998667293E-26
  1.736734381095E-26  7.826319665336E-27  3.492554319007E-27  1.543257130653E-27
  6.751348478267E-28  2.923793751799E-28  1.253294427885E-28  5.316859200088E-29
  2.232018165049E-29  9.270965765485E-30  3.809608457368E-30  1.548483544758E-30
  6.225095812615E-31  2.474797724472E-31  9.728096879648E-32  3.780531020428E-32
  1.452283470143E-32  5.513841389075E-33  2.068811131744E-33  7.669776606928E-34
  2.808417803960E-34  1.016053286253E-34  3.628655119217E-35  1.279791043548E-35
  4.456620163980E-36  1.532066192795E-36  5.198598079202E-37  1.740854546160E-37
  5.752230304546E-38  1.875153668828E-38  6.029660261957E-39  1.912194417669E-39
  5.979730374987E-40  1.843605213584E-40  5.602949795248E-41  1.678235944137E-41
  4.953373762240E-42  1.440404910412E-42  4.125973530265E-43  1.163989053831E-43
  3.233505247110E-44  8.843443525958E-45  2.380744083032E-45  6.307643945916E-46
</data>
</radfunc>
</pseudocore-charge>
<semilocal-potentials set="scalar_relativistic">
<slps n="3" l="s" rc="1.66668470205" flavor="Troullier-Martins">
<radfunc>
<data>
  2.009685572820E+00  2.009645301006E+00  2.009472365001E+00  2.009166253987E+00
  2.008722090551E+00  2.008136092164E+00  2.007393338243E+00  2.006557120235E+00
  2.005531238550E+00  2.004315001706E+00  2.002923694802E+00  2.001391352212E+00
  1.999771683236E+00  1.997839136859E+00  1.995888275644E+00  1.993618816790E+00
  1.991446992696E+00  1.988983476369E+00  1.986189104239E+00  1.983019437882E+00
  1.980179830465E+00  1.977038993828E+00  1.973564960757E+00  1.969722379493E+00
  1.965472166245E+00  1.961991179811E+00  1.958236825250E+00  1.954187697618E+00
  1.949820747537E+00  1.945111163784E+00  1.940032248222E+00  1.934555281653E+00
  1.928649378159E+00  1.922281324033E+00  1.915415395078E+00  1.908013142617E+00
  1.902760021533E+00  1.897237109763E+00  1.891430624241E+00  1.885326013198E+00
  1.878907878955E+00  1.872159883594E+00  1.865064633305E+00  1.857603536447E+00
  1.849756629596E+00  1.841502364952E+00  1.832817351813E+00  1.823676044039E+00
  1.814050364960E+00  1.803909260891E+00  1.793218174456E+00  1.781938429455E+00
  1.770026520085E+00  1.757433299196E+00  1.744103063198E+00  1.729972535540E+00
  1.714969757132E+00  1.699012901315E+00  1.682009044242E+00  1.663852940043E+00
  1.644425875053E+00  1.623594707421E+00  1.601211237035E+00  1.577112093002E+00
  1.564364078030E+00  1.551119366328E+00  1.537353715057E+00  1.523042244170E+00
  1.508159560363E+00  1.492679905848E+00  1.476577332841E+00  1.459825904016E+00
  1.442399918425E+00  1.424274161482E+00  1.405424176584E+00  1.385826554832E+00
  1.365459238135E+00  1.344301829764E+00  1.322336030646E+00  1.299545035280E+00
  1.275913978723E+00  1.251454713920E+00  1.226061542726E+00  1.200458845673E+00
  1.174907050121E+00  1.148841154325E+00  1.122311383660E+00  1.095304523772E+00
  1.067808959420E+00  1.039809359130E+00  1.011283879919E+00  9.822051732703E-01
  9.525405209073E-01  9.222518368988E-01  8.912998999245E-01  8.596277549924E-01
  8.272008604401E-01  7.939511803501E-01  7.587681818750E-01  7.216684032882E-01
  6.834874038382E-01  6.440391102634E-01  6.033478206478E-01  5.613964745053E-01
  5.181763690963E-01  4.736803814063E-01  4.279146335176E-01  3.808554940278E-01
  3.325826340066E-01  2.833726469667E-01  2.330902890317E-01  1.814764541736E-01
  1.285748075143E-01  7.436224688713E-02  1.884071738781E-02 -3.798320175835E-02
 -9.609493455019E-02 -1.554713430401E-01 -2.161396871347E-01 -2.780787599491E-01
 -3.412261869775E-01 -4.055561902770E-01 -4.710190431247E-01 -5.375540621447E-01
 -6.050876820294E-01 -6.735454308673E-01 -7.427832896727E-01 -8.127508025307E-01
 -8.834601063537E-01 -9.548249984268E-01 -1.026749221093E+00 -1.099105939832E+00
 -1.171807469993E+00 -1.244660225746E+00 -1.317530689898E+00 -1.390429387227E+00
 -1.463285391254E+00 -1.535971538524E+00 -1.608356621450E+00 -1.680278370794E+00
 -1.751523140305E+00 -1.822092773782E+00 -1.892019791750E+00 -1.961146304688E+00
 -2.029314396829E+00 -2.096258350425E+00 -2.161737816576E+00 -2.225727166122E+00
 -2.288049367333E+00 -2.348356747469E+00 -2.406103988562E+00 -2.460490506010E+00
 -2.511248673699E+00 -2.558232780839E+00 -2.600945180833E+00 -2.638954723376E+00
 -2.671887177192E+00 -2.699471893168E+00 -2.721527925185E+00 -2.738001290232E+00
 -2.748983640755E+00 -2.754624440059E+00 -2.755133488629E+00 -2.750790599807E+00
 -2.741921128201E+00 -2.728900392667E+00 -2.712127716556E+00 -2.692020477509E+00
 -2.669010549810E+00 -2.643539436122E+00 -2.616053479238E+00 -2.586999441715E+00
 -2.556812417690E+00 -2.525910988318E+00 -2.494686602275E+00 -2.463465900959E+00
 -2.432510888226E+00 -2.401950973873E+00 -2.371784977297E+00 -2.342029104301E+00
 -2.312668730600E+00 -2.283693578079E+00 -2.255109887110E+00 -2.226908665360E+00
 -2.199086577934E+00 -2.171637530447E+00 -2.144555598549E+00 -2.117834881685E+00
 -2.091466746185E+00 -2.065443773051E+00 -2.039755930188E+00 -2.014395564925E+00
 -1.989356778445E+00 -1.964630214025E+00 -1.940213349323E+00 -1.916103000673E+00
 -1.892293430088E+00 -1.868780784274E+00 -1.845561420803E+00 -1.822631679024E+00
 -1.799987774275E+00 -1.777626049566E+00 -1.755542900826E+00 -1.733734835720E+00
 -1.712198270096E+00 -1.690930523925E+00 -1.669927747837E+00 -1.649186333630E+00
 -1.628702946576E+00 -1.608474291619E+00 -1.588497111545E+00 -1.568768196014E+00
 -1.549284363794E+00 -1.530070600556E+00 -1.511089817264E+00 -1.492340128043E+00
 -1.473819434042E+00 -1.455525564735E+00 -1.437456248644E+00 -1.419609189598E+00
 -1.401982054007E+00 -1.384572324482E+00 -1.367377563464E+00 -1.350395328766E+00
 -1.333623173594E+00 -1.317058646786E+00 -1.300699290605E+00 -1.284542698359E+00
 -1.268586444683E+00 -1.252828116940E+00 -1.237265318758E+00 -1.221895671033E+00
 -1.206716818121E+00 -1.191726413473E+00 -1.176922141119E+00 -1.162301708783E+00
 -1.147862849819E+00 -1.133603321157E+00 -1.119520904435E+00 -1.105613409609E+00
 -1.091878671013E+00 -1.078314547462E+00 -1.064918923295E+00 -1.051689708136E+00
 -1.038624836254E+00 -1.025722267464E+00 -1.012979986577E+00 -1.000396003175E+00
 -9.879683513218E-01 -9.756950893419E-01 -9.635742995479E-01 -9.516040879560E-01