Siesta Version  : v4.1.5-1-g384057250
Architecture    : gcc
Compiler version: GNU Fortran (Ubuntu 11.3.0-1ubuntu1~22.04) 11.3.0
Compiler flags  : mpifort -O2 -fPIC -ftree-vectorize -fallow-argument-mismatch
PP flags        : -DFC_HAVE_ABORT -DMPI -DSIESTA__FLOOK -DSIESTA__METIS -DSIESTA__MUMPS -DCDF -DNCDF -DNCDF_4 -DNCDF_PARALLEL -DSIESTA__MRRR -DSIESTA__ELPA
Libraries       : libncdf.a libfdict.a  -lflookall -ldl -lnetcdff -lnetcdf -lhdf5_hl -lhdf5 -lhdf5_fortran -lz -lscalapack-openmpi -lopenblas -lmetis -lzmumps -lcmumps -ldmumps -lmumps_common -lpord -lsmumps -lesmumps -lscotch -lscotcherr -fopenmp -lelpa
PARALLEL version
NetCDF support
NetCDF-4 support
NetCDF-4 MPI-IO support
METIS ordering support
Lua support

* Running on 4 nodes in parallel
>> Start of run:  28-JUN-2023  19:21:15

                           ***********************       
                           *  WELCOME TO SIESTA  *       
                           ***********************       

reinit: Reading from standard input
reinit: Dumped input in INPUT_TMP.32840
************************** Dump of input data file ****************************
SystemLabel      GC
NumberOfAtoms    29
NumberOfSpecies  4
%block ChemicalSpeciesLabel
    1    8  O
    2    7  N
    3   14  Si
    4    1  H
%endblock ChemicalSpeciesLabel
# Single point calculation
MD.TypeOfRun                CG
MD.Steps                    0
SCF.MustConverge            F # In case it does not. There can be 2 very close atoms
AtomicCoordinatesFormat NotScaledCartesianAng
%block AtomicCoordinatesAndAtomicSpecies
1.043624880    3.939228610    0.000000000       1
-3.040641290   1.071078170    0.000000000       2
2.054601450    1.213582070    0.000000000       2
0.999014100    -1.732643800   0.000000000       2
-2.132351640   -1.812968220   0.000000000       2
3.860190550    -1.112298180   0.000000000       2
-1.236183220   1.152964460    0.000000000       3
-0.532924260   -0.939006270   0.000000000       3
0.635660470    2.374516770    0.000000000       3
2.245170240    -0.549967100   0.000000000       3
-3.449816660   -0.583665030   0.000000000       3
2.963714090    1.790992630    0.000000000       4
-4.845591350   -1.123549660   0.000000000       4
4.007020910    -2.152308560   0.000000000       4
4.772194380    -0.502318160   0.000000000       4
-2.265399090   -2.864605110   0.000000000       4
6.035415213    5.649084833    0.000000000       3
7.940299183    6.855723773    0.000000000       3
7.444545043    2.882749863    0.000000000       3
9.522015333    5.351967023    0.000000000       3
6.095037883    3.931657263    0.000000000       2
4.496280153    6.402762143    0.000000000       2
9.096840303    3.612587083    0.000000000       2
8.131643983    8.347877523    0.000000000       4
11.006383313   5.570697843    0.000000000       4
4.384934873    7.451957253    0.000000000       4
3.563722443    5.777847963    0.000000000       4
7.434318213    1.274638743    0.000000000       1
9.872266183    2.885895523    0.000000000       4
%endblock AtomicCoordinatesAndAtomicSpecies
%include ../../../Defaults.fdf
************************** End of input data file *****************************

reinit: -----------------------------------------------------------------------
reinit: System Name: 
reinit: -----------------------------------------------------------------------
reinit: System Label: GC
reinit: -----------------------------------------------------------------------

initatom: Reading input for the pseudopotentials and atomic orbitals ----------
Species number:   1 Atomic number:    8 Label: O
Species number:   2 Atomic number:    7 Label: N
Species number:   3 Atomic number:   14 Label: Si
Species number:   4 Atomic number:    1 Label: H

Ground state valence configuration:   2s02  2p04
Reading pseudopotential information in formatted form from O.psf

Pseudopotential generated from a relativistic atomic calculation

Valence configuration for pseudopotential generation:
2s( 2.00) rc: 0.45
2p( 4.00) rc: 0.92
3d( 0.00) rc: 2.24
4f( 0.00) rc: 0.25
Ground state valence configuration:   2s02  2p03
Reading pseudopotential information in formatted form from N.psf

Pseudopotential generated from a relativistic atomic calculation

Valence configuration for pseudopotential generation:
2s( 2.00) rc: 0.94
2p( 3.00) rc: 0.59
3d( 0.00) rc: 3.46
4f( 0.00) rc: 2.47
Ground state valence configuration:   3s02  3p02
Reading pseudopotential information in formatted form from Si.psf

Pseudopotential generated from a relativistic atomic calculation

Valence configuration for pseudopotential generation:
3s( 2.00) rc: 1.67
3p( 2.00) rc: 2.04
3d( 0.00) rc: 2.89
4f( 0.00) rc: 2.49
Ground state valence configuration:   1s01
Reading pseudopotential information in formatted form from H.psf

Pseudopotential generated from a relativistic atomic calculation

Valence configuration for pseudopotential generation:
1s( 1.00) rc: 0.01
2p( 0.00) rc: 0.60
3d( 0.00) rc: 1.99
4f( 0.00) rc: 2.49
For O, standard SIESTA heuristics set lmxkb to 3
 (one more than the basis l, including polarization orbitals).
Use PS.lmax or PS.KBprojectors blocks to override.
For N, standard SIESTA heuristics set lmxkb to 3
 (one more than the basis l, including polarization orbitals).
Use PS.lmax or PS.KBprojectors blocks to override.
For Si, standard SIESTA heuristics set lmxkb to 3
 (one more than the basis l, including polarization orbitals).
Use PS.lmax or PS.KBprojectors blocks to override.
For H, standard SIESTA heuristics set lmxkb to 2
 (one more than the basis l, including polarization orbitals).
Use PS.lmax or PS.KBprojectors blocks to override.

<basis_specs>
===============================================================================
O                    Z=   8    Mass=  16.000        Charge= 0.17977+309
Lmxo=1 Lmxkb= 3    BasisType=split      Semic=F
L=0  Nsemic=0  Cnfigmx=2
          i=1  nzeta=2  polorb=0  (2s)
            splnorm:   0.28000    
               vcte:    0.0000    
               rinn:    0.0000    
               qcoe:    0.0000    
               qyuk:    0.0000    
               qwid:   0.10000E-01
                rcs:    0.0000      0.0000    
            lambdas:    1.0000      1.0000    
L=1  Nsemic=0  Cnfigmx=2
          i=1  nzeta=2  polorb=1  (2p)
            splnorm:   0.28000    
               vcte:    0.0000    
               rinn:    0.0000    
               qcoe:    0.0000    
               qyuk:    0.0000    
               qwid:   0.10000E-01
                rcs:    0.0000      0.0000    
            lambdas:    1.0000      1.0000    
-------------------------------------------------------------------------------
L=0  Nkbl=1  erefs: 0.17977+309
L=1  Nkbl=1  erefs: 0.17977+309
L=2  Nkbl=1  erefs: 0.17977+309
L=3  Nkbl=1  erefs: 0.17977+309
===============================================================================
</basis_specs>

atom: Called for O                     (Z =   8)

read_vps: Pseudopotential generation method:
read_vps: ATM4.2.7  Troullier-Martins                       
Valence charge for ps generation:    6.00000

xc_check: Exchange-correlation functional:
xc_check: GGA Perdew, Burke & Ernzerhof 1996
V l=0 = -2*Zval/r beyond r=  1.1000
V l=1 = -2*Zval/r beyond r=  1.1000
V l=2 = -2*Zval/r beyond r=  2.2154
V l=3 = -2*Zval/r beyond r=  1.1000
All V_l potentials equal beyond r=  2.2154
This should be close to max(r_c) in ps generation
All pots = -2*Zval/r beyond r=  2.2154

VLOCAL1: 99.0% of the norm of Vloc inside      8.845 Ry
VLOCAL1: 99.9% of the norm of Vloc inside     20.157 Ry
atom: Maximum radius for 4*pi*r*r*local-pseudopot. charge    2.67231
atom: Maximum radius for r*vlocal+2*Zval:    2.32897
GHOST: No ghost state for L =  0
GHOST: No ghost state for L =  1
GHOST: No ghost state for L =  2
GHOST: No ghost state for L =  3

KBgen: Kleinman-Bylander projectors: 
   l= 0   rc=  2.243238   el= -1.759686   Ekb=**********   kbcos= -0.171774
   l= 1   rc=  2.328968   el= -0.663873   Ekb=-14.506792   kbcos= -0.519897
   l= 2   rc=  2.573941   el=  0.002031   Ekb= -1.137373   kbcos= -0.019581
   l= 3   rc=  2.606321   el=  0.003153   Ekb= -1.013546   kbcos= -0.003122

KBgen: Total number of Kleinman-Bylander projectors:   16
atom: -------------------------------------------------------------------------

atom: SANKEY-TYPE ORBITALS:
atom: Selected multiple-zeta basis: split     

SPLIT: Orbitals with angular momentum L= 0

SPLIT: Basis orbitals for state 2s

SPLIT: PAO cut-off radius determined from an
SPLIT: energy shift=  0.002000 Ry

   izeta = 1
                 lambda =    1.000000
                     rc =    4.243912
                 energy =   -1.758270
                kinetic =    3.286084
    potential(screened) =   -5.044353
       potential(ionic) =  -12.921184

   izeta = 2
                 rmatch =    2.187845
              splitnorm =    0.280000
                 energy =   -0.885018
                kinetic =    8.134434
    potential(screened) =   -9.019452
       potential(ionic) =  -17.710645

SPLIT: Orbitals with angular momentum L= 1

SPLIT: Basis orbitals for state 2p

SPLIT: PAO cut-off radius determined from an
SPLIT: energy shift=  0.002000 Ry

   izeta = 1
                 lambda =    1.000000
                     rc =    5.314825
                 energy =   -0.661986
                kinetic =    4.917472
    potential(screened) =   -5.579458
       potential(ionic) =  -13.236259

   izeta = 2
                 rmatch =    2.160663
              splitnorm =    0.280000
                 energy =   -0.068760
                kinetic =    9.183374
    potential(screened) =   -9.252135
       potential(ionic) =  -18.274251

POLgen: Perturbative polarization orbital with L=  2

POLgen: Polarization orbital for state 2p

   izeta = 1
                     rc =    5.314825
                 energy =    1.970580
                kinetic =    3.886128
    potential(screened) =   -1.915547
       potential(ionic) =   -7.749584
atom: Total number of Sankey-type orbitals: 13

atm_pop: Valence configuration (for local Pseudopot. screening):
 2s( 2.00)                                                            
 2p( 4.00)                                                            
Vna: chval, zval:    6.00000   6.00000

Vna:  Cut-off radius for the neutral-atom potential:   5.314825

atom: _________________________________________________________________________

<basis_specs>
===============================================================================
N                    Z=   7    Mass=  14.010        Charge= 0.17977+309
Lmxo=1 Lmxkb= 3    BasisType=split      Semic=F
L=0  Nsemic=0  Cnfigmx=2
          i=1  nzeta=2  polorb=0  (2s)
            splnorm:   0.28000    
               vcte:    0.0000    
               rinn:    0.0000    
               qcoe:    0.0000    
               qyuk:    0.0000    
               qwid:   0.10000E-01
                rcs:    0.0000      0.0000    
            lambdas:    1.0000      1.0000    
L=1  Nsemic=0  Cnfigmx=2
          i=1  nzeta=2  polorb=1  (2p)
            splnorm:   0.28000    
               vcte:    0.0000    
               rinn:    0.0000    
               qcoe:    0.0000    
               qyuk:    0.0000    
               qwid:   0.10000E-01
                rcs:    0.0000      0.0000    
            lambdas:    1.0000      1.0000    
-------------------------------------------------------------------------------
L=0  Nkbl=1  erefs: 0.17977+309
L=1  Nkbl=1  erefs: 0.17977+309
L=2  Nkbl=1  erefs: 0.17977+309
L=3  Nkbl=1  erefs: 0.17977+309
===============================================================================
</basis_specs>

atom: Called for N                     (Z =   7)

read_vps: Pseudopotential generation method:
read_vps: ATM4.2.7  Troullier-Martins                       
Valence charge for ps generation:    5.00000

xc_check: Exchange-correlation functional:
xc_check: GGA Perdew, Burke & Ernzerhof 1996
V l=0 = -2*Zval/r beyond r=  1.2889
V l=1 = -2*Zval/r beyond r=  1.2889
V l=2 = -2*Zval/r beyond r=  3.4178
V l=3 = -2*Zval/r beyond r=  2.4084
All V_l potentials equal beyond r=  3.3753
This should be close to max(r_c) in ps generation
All pots = -2*Zval/r beyond r=  3.4178

VLOCAL1: 99.0% of the norm of Vloc inside      3.810 Ry
VLOCAL1: 99.9% of the norm of Vloc inside      8.683 Ry
atom: Maximum radius for 4*pi*r*r*local-pseudopot. charge    4.02088
atom: Maximum radius for r*vlocal+2*Zval:    3.54838
GHOST: No ghost state for L =  0
GHOST: No ghost state for L =  1
GHOST: No ghost state for L =  2
GHOST: No ghost state for L =  3

KBgen: Kleinman-Bylander projectors: 
   l= 0   rc=  3.417763   el= -1.365098   Ekb= -4.433130   kbcos= -0.707855
   l= 1   rc=  3.375302   el= -0.521201   Ekb=-13.264039   kbcos= -0.535594
   l= 2   rc=  3.872880   el=  0.001991   Ekb= -0.641094   kbcos= -0.062456
   l= 3   rc=  3.970931   el=  0.003093   Ekb= -0.474517   kbcos= -0.018236

KBgen: Total number of Kleinman-Bylander projectors:   16
atom: -------------------------------------------------------------------------

atom: SANKEY-TYPE ORBITALS:
atom: Selected multiple-zeta basis: split     

SPLIT: Orbitals with angular momentum L= 0

SPLIT: Basis orbitals for state 2s

SPLIT: PAO cut-off radius determined from an
SPLIT: energy shift=  0.002000 Ry

   izeta = 1
                 lambda =    1.000000
                     rc =    4.730425
                 energy =   -1.363399
                kinetic =    1.245246
    potential(screened) =   -2.608645
       potential(ionic) =   -8.121105

   izeta = 2
                 rmatch =    2.531849
              splitnorm =    0.280000
                 energy =   -0.959908
                kinetic =    2.409435
    potential(screened) =   -3.369343
       potential(ionic) =   -9.427975

SPLIT: Orbitals with angular momentum L= 1

SPLIT: Basis orbitals for state 2p

SPLIT: PAO cut-off radius determined from an
SPLIT: energy shift=  0.002000 Ry

   izeta = 1
                 lambda =    1.000000
                     rc =    5.924108
                 energy =   -0.519262
                kinetic =    3.672940
    potential(screened) =   -4.192202
       potential(ionic) =   -9.518354

   izeta = 2
                 rmatch =    2.531849
              splitnorm =    0.280000
                 energy =   -0.104258
                kinetic =    6.807538
    potential(screened) =   -6.911796
       potential(ionic) =  -13.149920

POLgen: Perturbative polarization orbital with L=  2

POLgen: Polarization orbital for state 2p

   izeta = 1
                     rc =    5.924108
                 energy =    1.427508
                kinetic =    2.872379
    potential(screened) =   -1.444871
       potential(ionic) =   -5.563644
atom: Total number of Sankey-type orbitals: 13

atm_pop: Valence configuration (for local Pseudopot. screening):
 2s( 2.00)                                                            
 2p( 3.00)                                                            
Vna: chval, zval:    5.00000   5.00000

Vna:  Cut-off radius for the neutral-atom potential:   5.924108

atom: _________________________________________________________________________

<basis_specs>
===============================================================================
Si                   Z=  14    Mass=  28.090        Charge= 0.17977+309
Lmxo=1 Lmxkb= 3    BasisType=split      Semic=F
L=0  Nsemic=0  Cnfigmx=3
          i=1  nzeta=2  polorb=0  (3s)
            splnorm:   0.28000    
               vcte:    0.0000    
               rinn:    0.0000    
               qcoe:    0.0000    
               qyuk:    0.0000    
               qwid:   0.10000E-01
                rcs:    0.0000      0.0000    
            lambdas:    1.0000      1.0000    
L=1  Nsemic=0  Cnfigmx=3
          i=1  nzeta=2  polorb=1  (3p)
            splnorm:   0.28000    
               vcte:    0.0000    
               rinn:    0.0000    
               qcoe:    0.0000    
               qyuk:    0.0000    
               qwid:   0.10000E-01
                rcs:    0.0000      0.0000    
            lambdas:    1.0000      1.0000    
-------------------------------------------------------------------------------
L=0  Nkbl=1  erefs: 0.17977+309
L=1  Nkbl=1  erefs: 0.17977+309
L=2  Nkbl=1  erefs: 0.17977+309
L=3  Nkbl=1  erefs: 0.17977+309
===============================================================================
</basis_specs>

atom: Called for Si                    (Z =  14)

read_vps: Pseudopotential generation method:
read_vps: ATM4.2.7  Troullier-Martins                       
Valence charge for ps generation:    4.00000

xc_check: Exchange-correlation functional:
xc_check: GGA Perdew, Burke & Ernzerhof 1996
V l=0 = -2*Zval/r beyond r=  2.7826
V l=1 = -2*Zval/r beyond r=  2.7826
V l=2 = -2*Zval/r beyond r=  2.9253
V l=3 = -2*Zval/r beyond r=  2.7826
All V_l potentials equal beyond r=  2.8530
This should be close to max(r_c) in ps generation
All pots = -2*Zval/r beyond r=  2.9253

VLOCAL1: 99.0% of the norm of Vloc inside      5.333 Ry
VLOCAL1: 99.9% of the norm of Vloc inside     12.154 Ry
atom: Maximum radius for 4*pi*r*r*local-pseudopot. charge    3.39869
atom: Maximum radius for r*vlocal+2*Zval:    2.96205
GHOST: No ghost state for L =  0
GHOST: No ghost state for L =  1
GHOST: No ghost state for L =  2
GHOST: No ghost state for L =  3

KBgen: Kleinman-Bylander projectors: 
   l= 0   rc=  3.075247   el= -0.794092   Ekb=  5.879390   kbcos=  0.167461
   l= 1   rc=  3.153101   el= -0.300068   Ekb=  2.642817   kbcos=  0.058301
   l= 2   rc=  3.273594   el=  0.001958   Ekb= -1.185135   kbcos= -0.104411
   l= 3   rc=  3.232927   el=  0.003046   Ekb= -0.497174   kbcos= -0.015889

KBgen: Total number of Kleinman-Bylander projectors:   16
atom: -------------------------------------------------------------------------

atom: SANKEY-TYPE ORBITALS:
atom: Selected multiple-zeta basis: split     

SPLIT: Orbitals with angular momentum L= 0

SPLIT: Basis orbitals for state 3s

SPLIT: PAO cut-off radius determined from an
SPLIT: energy shift=  0.002000 Ry

   izeta = 1
                 lambda =    1.000000
                     rc =    6.429618
                 energy =   -0.792283
                kinetic =    0.525293
    potential(screened) =   -1.317576
       potential(ionic) =   -3.744923

   izeta = 2
                 rmatch =    3.998416
              splitnorm =    0.280000
                 energy =   -0.583081
                kinetic =    1.069570
    potential(screened) =   -1.652651
       potential(ionic) =   -4.235185

SPLIT: Orbitals with angular momentum L= 1

SPLIT: Basis orbitals for state 3p

SPLIT: PAO cut-off radius determined from an
SPLIT: energy shift=  0.002000 Ry

   izeta = 1
                 lambda =    1.000000
                     rc =    8.464845
                 energy =   -0.298236
                kinetic =    0.785360
    potential(screened) =   -1.083596
       potential(ionic) =   -3.273779

   izeta = 2
                 rmatch =    4.587816
              splitnorm =    0.280000
                 energy =   -0.131871
                kinetic =    1.403687
    potential(screened) =   -1.535557
       potential(ionic) =   -4.015310

POLgen: Perturbative polarization orbital with L=  2

POLgen: Polarization orbital for state 3p

   izeta = 1
                     rc =    8.464845
                 energy =    0.321949
                kinetic =    1.055677
    potential(screened) =   -0.733728
       potential(ionic) =   -2.672950
atom: Total number of Sankey-type orbitals: 13

atm_pop: Valence configuration (for local Pseudopot. screening):
 3s( 2.00)                                                            
 3p( 2.00)                                                            
Vna: chval, zval:    4.00000   4.00000

Vna:  Cut-off radius for the neutral-atom potential:   8.464845

atom: _________________________________________________________________________

<basis_specs>
===============================================================================
H                    Z=   1    Mass=  1.0100        Charge= 0.17977+309
Lmxo=0 Lmxkb= 2    BasisType=split      Semic=F
L=0  Nsemic=0  Cnfigmx=1
          i=1  nzeta=2  polorb=1  (1s)
            splnorm:   0.62000    
               vcte:    0.0000    
               rinn:    0.0000    
               qcoe:    0.0000    
               qyuk:    0.0000    
               qwid:   0.10000E-01
                rcs:    0.0000      0.0000    
            lambdas:    1.0000      1.0000    
-------------------------------------------------------------------------------
L=0  Nkbl=1  erefs: 0.17977+309
L=1  Nkbl=1  erefs: 0.17977+309
L=2  Nkbl=1  erefs: 0.17977+309
===============================================================================
</basis_specs>

atom: Called for H                     (Z =   1)

read_vps: Pseudopotential generation method:
read_vps: ATM4.2.7  Troullier-Martins                       
Valence charge for ps generation:    1.00000

xc_check: Exchange-correlation functional:
xc_check: GGA Perdew, Burke & Ernzerhof 1996
V l=0 = -2*Zval/r beyond r=  0.0098
V l=1 = -2*Zval/r beyond r=  0.5817
V l=2 = -2*Zval/r beyond r=  1.9372
All V_l potentials equal beyond r=  1.9372
This should be close to max(r_c) in ps generation
All pots = -2*Zval/r beyond r=  1.9372

VLOCAL1: 99.0% of the norm of Vloc inside     11.567 Ry
VLOCAL1: 99.9% of the norm of Vloc inside     26.362 Ry
atom: Maximum radius for 4*pi*r*r*local-pseudopot. charge    2.25106
atom: Maximum radius for r*vlocal+2*Zval:    1.91306
GHOST: No ghost state for L =  0
GHOST: No ghost state for L =  1
GHOST: No ghost state for L =  2

KBgen: Kleinman-Bylander projectors: 
   l= 0   rc=  2.036604   el= -0.477180   Ekb= -6.081590   kbcos= -0.277285
   l= 1   rc=  2.195416   el=  0.001076   Ekb= -0.926943   kbcos= -0.034643
   l= 2   rc=  2.251056   el=  0.002010   Ekb= -0.130941   kbcos= -0.009788

KBgen: Total number of Kleinman-Bylander projectors:    9
atom: -------------------------------------------------------------------------

atom: SANKEY-TYPE ORBITALS:
atom: Selected multiple-zeta basis: split     

SPLIT: Orbitals with angular momentum L= 0

SPLIT: Basis orbitals for state 1s

SPLIT: PAO cut-off radius determined from an
SPLIT: energy shift=  0.002000 Ry

   izeta = 1
                 lambda =    1.000000
                     rc =    6.518340
                 energy =   -0.475305
                kinetic =    0.912139
    potential(screened) =   -1.387444
       potential(ionic) =   -1.907295

   izeta = 2
                 rmatch =    2.141150
              splitnorm =    0.620000
                 energy =    0.566467
                kinetic =    3.772856
    potential(screened) =   -3.206389
       potential(ionic) =   -3.759093

POLgen: Perturbative polarization orbital with L=  1

POLgen: Polarization orbital for state 1s

   izeta = 1
                     rc =    6.518340
                 energy =    0.533861
                kinetic =    1.121086
    potential(screened) =   -0.587225
       potential(ionic) =   -1.053027
atom: Total number of Sankey-type orbitals:  5

atm_pop: Valence configuration (for local Pseudopot. screening):
 1s( 1.00)                                                            
Vna: chval, zval:    1.00000   1.00000

Vna:  Cut-off radius for the neutral-atom potential:   6.518340

atom: _________________________________________________________________________

prinput: Basis input ----------------------------------------------------------

PAO.BasisType split     

%block ChemicalSpeciesLabel
    1    8 O                       # Species index, atomic number, species label
    2    7 N                       # Species index, atomic number, species label
    3   14 Si                      # Species index, atomic number, species label
    4    1 H                       # Species index, atomic number, species label
%endblock ChemicalSpeciesLabel

%block PAO.Basis                 # Define Basis set
O                     2                    # Species label, number of l-shells
 n=2   0   2                         # n, l, Nzeta 
   4.244      2.188   
   1.000      1.000   
 n=2   1   2 P   1                   # n, l, Nzeta, Polarization, NzetaPol
   5.315      2.161   
   1.000      1.000   
N                     2                    # Species label, number of l-shells
 n=2   0   2                         # n, l, Nzeta 
   4.730      2.532   
   1.000      1.000   
 n=2   1   2 P   1                   # n, l, Nzeta, Polarization, NzetaPol
   5.924      2.532   
   1.000      1.000   
Si                    2                    # Species label, number of l-shells
 n=3   0   2                         # n, l, Nzeta 
   6.430      3.998   
   1.000      1.000   
 n=3   1   2 P   1                   # n, l, Nzeta, Polarization, NzetaPol
   8.465      4.588   
   1.000      1.000   
H                     1                    # Species label, number of l-shells
 n=1   0   2 P   1                   # n, l, Nzeta, Polarization, NzetaPol
   6.518      2.141   
   1.000      1.000   
%endblock PAO.Basis

prinput: ----------------------------------------------------------------------

Dumping basis to NetCDF file O.ion.nc
Dumping basis to NetCDF file N.ion.nc
Dumping basis to NetCDF file Si.ion.nc
Dumping basis to NetCDF file H.ion.nc
coor:   Atomic-coordinates input format  =     Cartesian coordinates
coor:                                          (in Angstroms)

siesta: Atomic coordinates (Bohr) and species
siesta:      1.97217   7.44407   0.00000  1        1
siesta:     -5.74598   2.02405   0.00000  2        2
siesta:      3.88264   2.29334   0.00000  2        3
siesta:      1.88786  -3.27422   0.00000  2        4
siesta:     -4.02956  -3.42601   0.00000  2        5
siesta:      7.29471  -2.10194   0.00000  2        6
siesta:     -2.33605   2.17879   0.00000  3        7
siesta:     -1.00708  -1.77447   0.00000  3        8
siesta:      1.20122   4.48719   0.00000  3        9
siesta:      4.24276  -1.03929   0.00000  3       10
siesta:     -6.51921  -1.10297   0.00000  3       11
siesta:      5.60061   3.38449   0.00000  4       12
siesta:     -9.15684  -2.12320   0.00000  4       13
siesta:      7.57218  -4.06728   0.00000  4       14
siesta:      9.01814  -0.94924   0.00000  4       15
siesta:     -4.28099  -5.41332   0.00000  4       16
siesta:     11.40529  10.67523   0.00000  3       17
siesta:     15.00500  12.95545   0.00000  3       18
siesta:     14.06816   5.44761   0.00000  3       19
siesta:     17.99401  10.11376   0.00000  3       20
siesta:     11.51796   7.42976   0.00000  2       21
siesta:      8.49674  12.09947   0.00000  2       22
siesta:     17.19054   6.82680   0.00000  2       23
siesta:     15.36659  15.77521   0.00000  4       24
siesta:     20.79906  10.52710   0.00000  4       25
siesta:      8.28633  14.08216   0.00000  4       26
siesta:      6.73446  10.91855   0.00000  4       27
siesta:     14.04883   2.40872   0.00000  1       28
siesta:     18.65589   5.45355   0.00000  4       29

siesta: Automatic unit cell vectors (Ang):
siesta:   25.025755    0.000000    0.000000
siesta:    0.000000   19.922314    0.000000
siesta:    0.000000    0.000000    9.854683

siesta: System type = molecule  

initatomlists: Number of atoms, orbitals, and projectors:     29   297   394

siesta: ******************** Simulation parameters ****************************
siesta:
siesta: The following are some of the parameters of the simulation.
siesta: A complete list of the parameters used, including default values,
siesta: can be found in file out.fdf
siesta:
redata: Spin configuration                          = spin-orbit
redata: Number of spin components                   = 8
redata: Time-Reversal Symmetry                      = F
redata: Spin spiral                                 = F
############################################################
This spin-orbit implementation uses a local approximation.
From 4.2 and onwards the full non-local approximation is implemented
You are strongly advised to use >=4.2 versions!
############################################################
redata: Long output                                 =   F
redata: Number of Atomic Species                    =        4
redata: Charge density info will appear in .RHO file
redata: Write Mulliken Pop.                         = Atomic and Orbital charges
redata: Matel table size (NRTAB)                    =     1024
redata: Mesh Cutoff                                 =   340.0000 Ry
redata: Net charge of the system                    =     0.0000 |e|
redata: Min. number of SCF Iter                     =        1
redata: Max. number of SCF Iter                     =      200
redata: SCF mix quantity                            = Hamiltonian
redata: Mix DM or H after convergence               =   F
redata: Recompute H after scf cycle                 =   F
redata: Mix DM in first SCF step                    =   T
redata: Write Pulay info on disk                    =   F
redata: New DM Occupancy tolerance                  = 0.000000000001
redata: No kicks to SCF
redata: DM Mixing Weight for Kicks                  =     0.5000
redata: Require Harris convergence for SCF          =   F
redata: Harris energy tolerance for SCF             =     0.000100 eV
redata: Require DM convergence for SCF              =   T
redata: DM tolerance for SCF                        =     0.000008
redata: Require EDM convergence for SCF             =   F
redata: EDM tolerance for SCF                       =     0.001000 eV
redata: Require H convergence for SCF               =   T
redata: Hamiltonian tolerance for SCF               =     0.000001 eV
redata: Require (free) Energy convergence for SCF   =   F
redata: (free) Energy tolerance for SCF             =     0.000100 eV
redata: Using Saved Data (generic)                  =   F
redata: Use continuation files for DM               =   F
redata: Neglect nonoverlap interactions             =   F
redata: Method of Calculation                       = Diagonalization
redata: Electronic Temperature                      =   299.9978 K
redata: Fix the spin of the system                  =   F
redata: Dynamics option                             = Single-point calculation
mix.SCF: Pulay mixing                            = Pulay
mix.SCF:    Variant                              = stable
mix.SCF:    History steps                        = 6
mix.SCF:    Linear mixing weight                 =     0.250000
mix.SCF:    Mixing weight                        =     0.250000
mix.SCF:    SVD condition                        = 0.1000E-07
mix.SCF:    Restart steps                        = 24
mix.SCF:    Restart save steps                   = 3
mix.SCF: Spin-component mixing                   all
redata: Save all siesta data in one NC              =   F
redata: ***********************************************************************

%block SCF.Mixers
  Pulay
%endblock SCF.Mixers

%block SCF.Mixer.Pulay
  # Mixing method
  method pulay
  variant stable

  # Mixing options
  weight 0.2500
  weight.linear 0.2500
  history 6
  restart 24
  restart.save 3
%endblock SCF.Mixer.Pulay

DM_history_depth set to one: no extrapolation allowed by default for geometry relaxation
Size of DM history Fstack: 1
Total number of electrons:    98.000000
Total ionic charge:    98.000000

* ProcessorY, Blocksize:    2  24


* Orbital distribution balance (max,min):    81    72


Time-reversal symmetry not used.

siesta: k-grid: Number of k-points =     1
siesta: k-grid: Cutoff (effective) =     4.927 Ang
siesta: k-grid: Supercell and displacements
siesta: k-grid:    1   0   0      0.000
siesta: k-grid:    0   1   0      0.000
siesta: k-grid:    0   0   1      0.000

diag: Algorithm                                     = ELPA-1stage
diag: Parallel over k                               =   F
diag: Use parallel 2D distribution                  =   T
diag: Parallel block-size                           = 24
diag: Parallel distribution                         =     2 x     2
diag: Used triangular part                          = Lower
diag: Absolute tolerance                            =  0.100E-15
diag: Orthogonalization factor                      =  0.100E-05
diag: Memory factor                                 =  1.0000


ts: **************************************************************
ts: Save H and S matrices                           =    F
ts: Save DM and EDM matrices                        =    F
ts: Only save the overlap matrix S                  =    F
ts: **************************************************************

************************ Begin: TS CHECKS AND WARNINGS ************************
************************ End: TS CHECKS AND WARNINGS **************************


                     ====================================
                        Single-point calculation
                     ====================================

outcoor: Atomic coordinates (Ang):                          
    1.04362488    3.93922861    0.00000000   1       1  O
   -3.04064129    1.07107817    0.00000000   2       2  N
    2.05460145    1.21358207    0.00000000   2       3  N
    0.99901410   -1.73264380    0.00000000   2       4  N
   -2.13235164   -1.81296822    0.00000000   2       5  N
    3.86019055   -1.11229818    0.00000000   2       6  N
   -1.23618322    1.15296446    0.00000000   3       7  Si
   -0.53292426   -0.93900627    0.00000000   3       8  Si
    0.63566047    2.37451677    0.00000000   3       9  Si
    2.24517024   -0.54996710    0.00000000   3      10  Si
   -3.44981666   -0.58366503    0.00000000   3      11  Si
    2.96371409    1.79099263    0.00000000   4      12  H
   -4.84559135   -1.12354966    0.00000000   4      13  H
    4.00702091   -2.15230856    0.00000000   4      14  H
    4.77219438   -0.50231816    0.00000000   4      15  H
   -2.26539909   -2.86460511    0.00000000   4      16  H
    6.03541521    5.64908483    0.00000000   3      17  Si
    7.94029918    6.85572377    0.00000000   3      18  Si
    7.44454504    2.88274986    0.00000000   3      19  Si
    9.52201533    5.35196702    0.00000000   3      20  Si
    6.09503788    3.93165726    0.00000000   2      21  N
    4.49628015    6.40276214    0.00000000   2      22  N
    9.09684030    3.61258708    0.00000000   2      23  N
    8.13164398    8.34787752    0.00000000   4      24  H
   11.00638331    5.57069784    0.00000000   4      25  H
    4.38493487    7.45195725    0.00000000   4      26  H
    3.56372244    5.77784796    0.00000000   4      27  H
    7.43431821    1.27463874    0.00000000   1      28  O
    9.87226618    2.88589552    0.00000000   4      29  H

outcell: Unit cell vectors (Ang):
       25.025755    0.000000    0.000000
        0.000000   19.922314    0.000000
        0.000000    0.000000    9.854683

outcell: Cell vector modules (Ang)   :   25.025755   19.922314    9.854683
outcell: Cell angles (23,13,12) (deg):     90.0000     90.0000     90.0000
outcell: Cell volume (Ang**3)        :   4913.2587
<dSpData1D:S at geom step 0
  <sparsity:sparsity for geom step 0
    nrows_g=297 nrows=81 sparsity=.1959 nnzs=17280, refcount: 8>
  <dData1D:(new from dSpData1D) n=17280, refcount: 1>
refcount: 1>
new_DM -- step:     1
Initializing Density Matrix...
DM filled with atomic data:
<dSpData2D:DM initialized from atoms
  <sparsity:sparsity for geom step 0
    nrows_g=297 nrows=81 sparsity=.1959 nnzs=17280, refcount: 9>
  <dData2D:DM n=17280 m=8, refcount: 1>
refcount: 1>
     spin moment: S , {S} =   56.00000   0.00000   0.00000  56.00000
No. of atoms with KB's overlaping orbs in proc 0. Max # of overlaps:      29     170

Initializing spin-orbit part of the Hamiltonian
  Adding spin-orbit effects for O 
  Adding spin-orbit effects for N 
  Adding spin-orbit effects for Si
  Adding spin-orbit effects for H 


New grid distribution:   1
           1       1:  144    1:   60    1:   30
           2       1:  144    1:   60   31:   60
           3       1:  144   61:  120    1:   30
           4       1:  144   61:  120   31:   60

InitMesh: MESH =   288 x   240 x   120 =     8294400
InitMesh: (bp) =   144 x   120 x    60 =     1036800
InitMesh: Mesh cutoff (required, used) =   340.000   366.026 Ry
ExtMesh (bp) on 0 =   248 x   168 x   142 =     5916288
New grid distribution:   2
           1      42:  144    1:   30    1:   60
           2       1:   41    1:   29    1:   60
           3      42:  144   31:  120    1:   60
           4       1:   41   30:  120    1:   60
New grid distribution:   3
           1      49:  144    1:   36    1:   60
           2       1:   48    1:   40    1:   60
           3      49:  144   37:  120    1:   60
           4       1:   48   41:  120    1:   60
Setting up quadratic distribution...
ExtMesh (bp) on 0 =   207 x   138 x   172 =     4913352
PhiOnMesh: Number of (b)points on node 0 =               185400
PhiOnMesh: nlist on node 0 =              2698593

stepf: Fermi-Dirac step function

siesta: Program's energy decomposition (eV):
siesta: Ebs     =      -616.559192
siesta: Eions   =      3585.165840
siesta: Ena     =       382.010740
siesta: Ekin    =      3366.958218
siesta: Enl     =     -3295.826984
siesta: Eso     =        -0.003415
siesta: Edftu   =         0.000000
siesta: DEna    =       153.364916
siesta: DUscf   =        80.557254
siesta: DUext   =         0.000000
siesta: Exc     =     -1203.492883
siesta: eta*DQ  =         0.000000
siesta: Emadel  =         0.000000
siesta: Emeta   =         0.000000
siesta: Emolmec =         0.000000
siesta: Ekinion =         0.000000
siesta: Eharris =     -4024.077534
siesta: Etot    =     -4101.597993
siesta: FreeEng =     -4101.599398

        iscf     Eharris(eV)        E_KS(eV)     FreeEng(eV)     dDmax    Ef(eV) dHmax(eV)
   scf:    1    -4024.077534    -4101.597993    -4101.599398  0.964108 -4.904880 21.584843
     spin moment: S , {S} =    2.00722  -0.00000   0.00000   2.00722
timer: Routine,Calls,Time,% = IterSCF        1      13.609  18.27
   scf:    2    -4148.513725    -4136.909780    -4136.911306  0.455862 -4.212433 11.664802
     spin moment: S , {S} =    1.99107   0.00000   0.00000   1.99107
   scf:    3    -4110.323747    -4134.551975    -4134.565804  0.425250 -4.298530 11.494798
     spin moment: S , {S} =    2.00122   0.00000  -0.00000   2.00122
   scf:    4    -4149.997614    -4145.402179    -4145.402179  0.309134 -3.899315  6.329468
     spin moment: S , {S} =    0.00009   0.00000   0.00000   0.00009
   scf:    5    -4146.586155    -4146.087095    -4146.087095  0.035077 -3.694062  4.329605
     spin moment: S , {S} =    0.00006  -0.00000  -0.00000   0.00006
   scf:    6    -4146.831894    -4146.466372    -4146.466372  0.024633 -3.746094  2.119155
     spin moment: S , {S} =    0.00003  -0.00000  -0.00000   0.00003
   scf:    7    -4146.805621    -4146.632798    -4146.632798  0.021271 -3.589422  0.890953
     spin moment: S , {S} =    0.00001   0.00000   0.00000   0.00001
   scf:    8    -4146.753784    -4146.691214    -4146.691214  0.012798 -3.816065  0.490178
     spin moment: S , {S} =    0.00000   0.00000   0.00000   0.00000
   scf:    9    -4146.729246    -4146.709571    -4146.709571  0.006562 -3.785288  0.358109
     spin moment: S , {S} =    0.00000  -0.00000   0.00000   0.00000
   scf:   10    -4146.760549    -4146.729671    -4146.729671  0.020322 -3.793545  0.199746
     spin moment: S , {S} =    0.00000  -0.00000   0.00000  -0.00000
   scf:   11    -4146.732717    -4146.731164    -4146.731164  0.005192 -3.784163  0.057384
     spin moment: S , {S} =    0.00000   0.00000   0.00000  -0.00000
   scf:   12    -4146.732019    -4146.731603    -4146.731603  0.001206 -3.779985  0.023538
     spin moment: S , {S} =    0.00000   0.00000   0.00000   0.00000
   scf:   13    -4146.731989    -4146.731791    -4146.731791  0.001389 -3.777975  0.017036
     spin moment: S , {S} =    0.00000   0.00000   0.00000   0.00000
   scf:   14    -4146.732030    -4146.731903    -4146.731903  0.001320 -3.776871  0.013506
     spin moment: S , {S} =    0.00000   0.00000   0.00000   0.00000
   scf:   15    -4146.732045    -4146.731968    -4146.731968  0.001250 -3.777150  0.009772
     spin moment: S , {S} =    0.00000   0.00000   0.00000   0.00000
   scf:   16    -4146.732065    -4146.732009    -4146.732009  0.001306 -3.776673  0.005957
     spin moment: S , {S} =    0.00000   0.00000   0.00000   0.00000
   scf:   17    -4146.732038    -4146.732022    -4146.732022  0.000713 -3.777241  0.003972
     spin moment: S , {S} =    0.00000   0.00000   0.00000   0.00000
   scf:   18    -4146.732032    -4146.732026    -4146.732026  0.000447 -3.777286  0.002050
     spin moment: S , {S} =    0.00000   0.00000   0.00000   0.00000
   scf:   19    -4146.732030    -4146.732028    -4146.732028  0.000271 -3.777318  0.001070
     spin moment: S , {S} =    0.00000   0.00000   0.00000   0.00000
   scf:   20    -4146.732029    -4146.732028    -4146.732028  0.000118 -3.777321  0.000649
     spin moment: S , {S} =    0.00000   0.00000   0.00000   0.00000
   scf:   21    -4146.732029    -4146.732028    -4146.732029  0.000108 -3.777322  0.000270
     spin moment: S , {S} =    0.00000   0.00000   0.00000   0.00000
   scf:   22    -4146.732029    -4146.732029    -4146.732029  0.000032 -3.777308  0.000100
     spin moment: S , {S} =    0.00000   0.00000   0.00000   0.00000
   scf:   23    -4146.732029    -4146.732029    -4146.732029  0.000008 -3.777308  0.000067
     spin moment: S , {S} =    0.00000   0.00000   0.00000   0.00000
   scf:   24    -4146.732029    -4146.732029    -4146.732029  0.000003 -3.777309  0.000053
     spin moment: S , {S} =    0.00000   0.00000   0.00000   0.00000
mix: Pulay -- resetting history
   scf:   25    -4146.732029    -4146.732029    -4146.732029  0.000004 -3.777311  0.000035
     spin moment: S , {S} =    0.00000   0.00000   0.00000  -0.00000
   scf:   26    -4146.732029    -4146.732029    -4146.732029  0.000003 -3.777312  0.000020
     spin moment: S , {S} =    0.00000   0.00000   0.00000  -0.00000
   scf:   27    -4146.732029    -4146.732029    -4146.732029  0.000003 -3.777311  0.000007
     spin moment: S , {S} =    0.00000   0.00000   0.00000  -0.00000
   scf:   28    -4146.732029    -4146.732029    -4146.732029  0.000001 -3.777311  0.000005
     spin moment: S , {S} =    0.00000   0.00000   0.00000  -0.00000
   scf:   29    -4146.732029    -4146.732029    -4146.732029  0.000001 -3.777310  0.000003
     spin moment: S , {S} =    0.00000   0.00000   0.00000  -0.00000
   scf:   30    -4146.732029    -4146.732029    -4146.732029  0.000001 -3.777310  0.000001
     spin moment: S , {S} =    0.00000   0.00000   0.00000  -0.00000
   scf:   31    -4146.732029    -4146.732029    -4146.732029  0.000000 -3.777310  0.000001
     spin moment: S , {S} =    0.00000   0.00000   0.00000  -0.00000

SCF Convergence by DM+H criterion
max |DM_out - DM_in|         :     0.0000001843
max |H_out - H_in|      (eV) :     0.0000007147
SCF cycle converged after 31 iterations

Using DM_out to compute the final energy and forces
No. of atoms with KB's overlaping orbs in proc 0. Max # of overlaps:      29     170

siesta: E_KS(eV) =            -4146.7320

siesta: E_KS - E_eggbox =     -4146.7320
     spin moment: S , {S} =    0.00000   0.00000   0.00000  -0.00000

siesta: Atomic forces (eV/Ang):
     1   -0.339256   -0.599816    0.000000
     2    0.011577   -0.021828    0.000000
     3    0.659422   -0.302085    0.000000
     4    0.619971   -0.014963   -0.000000
     5    0.043432   -0.073211    0.000000
     6    1.686995    0.665011   -0.000000
     7    0.037421   -0.222954    0.000000
     8   -0.344436    0.243878    0.000000
     9   -0.129892    1.088548   -0.000000
    10   -0.836386    0.329366   -0.000000
    11   -0.018205   -0.018092   -0.000000
    12   -0.314305   -0.202998   -0.000000
    13   -0.007430   -0.007961   -0.000000
    14    0.079070   -0.136695    0.000000
    15   -1.056494   -0.709567    0.000000
    16   -0.044878    0.130886    0.000000
    17    0.842814   -0.973957    0.000000
    18   -0.185898    0.171401   -0.000000
    19   -0.183177   -1.033806    0.000000
    20   -0.019355   -0.353660   -0.000000
    21   -0.254505    0.863021    0.000000
    22   -2.082019   -0.926999    0.000000
    23    0.210007    0.446196    0.000000
    24    0.109179   -0.037939    0.000000
    25    0.130206   -0.015165   -0.000000
    26   -0.257345   -0.166643   -0.000000
    27    1.487418    1.300138   -0.000000
    28    1.095302   -2.469571   -0.000000
    29   -0.020976    0.132219   -0.000000
----------------------------------------
   Tot    0.918257   -2.917247    0.000000
----------------------------------------
   Max    2.469571
   Res    0.579996    sqrt( Sum f_i^2 / 3N )
----------------------------------------
   Max    2.469571    constrained

Stress tensor Voigt[x,y,z,yz,xz,xy] (kbar):        0.42        1.82       -0.09        0.00       -0.00        1.58
(Free)E + p*V (eV/cell)    -4148.9287
Target enthalpy (eV/cell)    -4146.7320

mulliken: Atomic and Orbital Populations:

Species: O                   

Atom      Orb        Charge      Spin       Svec
----------------------------------------------------------------
    1  1 2s         1.74635   0.00000     -0.000   0.000  -0.000
    1  2 2s         0.06628   0.00000      0.000  -0.000  -0.000
    1  3 2py        1.43552   0.00000      0.000  -0.000  -0.000
    1  4 2pz        1.55820   0.00000     -0.000  -0.000  -0.000
    1  5 2px        1.63137   0.00000     -0.000  -0.000  -0.000
    1  6 2py        0.03594   0.00000     -0.000  -0.000   0.000
    1  7 2pz       -0.00891   0.00000      0.000   0.000   0.000
    1  8 2px        0.00086   0.00000      0.000   0.000   0.000
    1  9 3Pdxy      0.00665   0.00000      0.000   0.000   0.000
    1 10 3Pdyz      0.00871   0.00000      0.000  -0.000   0.000
    1 11 3Pdz2      0.00147   0.00000      0.000   0.000  -0.000
    1 12 3Pdxz      0.00032   0.00000      0.000   0.000   0.000
    1 13 3Pdx2-y2   0.00671   0.00000     -0.000   0.000   0.000
    1     Total     6.48949   0.00000     -0.000  -0.000  -0.000

   28  1 2s         1.74895   0.00000     -0.000  -0.000   0.000
   28  2 2s         0.06209   0.00000      0.000   0.000  -0.000
   28  3 2py        1.41845   0.00000     -0.000   0.000  -0.000
   28  4 2pz        1.55643   0.00000      0.000   0.000  -0.000
   28  5 2px        1.64874   0.00000      0.000   0.000  -0.000
   28  6 2py        0.03883   0.00000     -0.000  -0.000   0.000
   28  7 2pz       -0.00793   0.00000      0.000  -0.000   0.000
   28  8 2px        0.00699   0.00000      0.000  -0.000   0.000
   28  9 3Pdxy      0.00623   0.00000      0.000  -0.000   0.000
   28 10 3Pdyz      0.00949   0.00000      0.000  -0.000   0.000
   28 11 3Pdz2      0.00118   0.00000      0.000   0.000  -0.000
   28 12 3Pdxz     -0.00019   0.00000     -0.000  -0.000  -0.000
   28 13 3Pdx2-y2   0.00763   0.00000      0.000   0.000   0.000
   28     Total     6.49689   0.00000      0.000   0.000  -0.000

----------------------------------------------------------------
Total              12.98638   0.00000     -0.000   0.000  -0.000


Species: N                   

Atom      Orb        Charge      Spin       Svec
----------------------------------------------------------------
    2  1 2s         1.55026   0.00000      0.000   0.000  -0.000
    2  2 2s         0.08452   0.00000     -0.000  -0.000   0.000
    2  3 2py        1.04430   0.00000     -0.000  -0.000  -0.000
    2  4 2pz        1.22433   0.00000      0.000   0.000  -0.000
    2  5 2px        0.99116   0.00000     -0.000  -0.000  -0.000
    2  6 2py        0.18823   0.00000      0.000  -0.000   0.000
    2  7 2pz        0.05526   0.00000     -0.000  -0.000   0.000
    2  8 2px        0.19558   0.00000      0.000   0.000   0.000
    2  9 3Pdxy      0.00837   0.00000      0.000   0.000   0.000
    2 10 3Pdyz      0.01097   0.00000      0.000  -0.000   0.000
    2 11 3Pdz2      0.00194   0.00000      0.000  -0.000   0.000
    2 12 3Pdxz      0.00759   0.00000     -0.000   0.000   0.000
    2 13 3Pdx2-y2   0.00907   0.00000     -0.000  -0.000  -0.000
    2     Total     5.37157   0.00000      0.000   0.000  -0.000

    3  1 2s         1.39655   0.00000     -0.000   0.000  -0.000
    3  2 2s         0.11826   0.00000      0.000  -0.000   0.000
    3  3 2py        0.94168   0.00000      0.000   0.000  -0.000
    3  4 2pz        1.54420   0.00000     -0.000   0.000  -0.000
    3  5 2px        1.08476   0.00000      0.000  -0.000  -0.000
    3  6 2py        0.24885   0.00000     -0.000  -0.000   0.000
    3  7 2pz        0.00643   0.00000      0.000  -0.000   0.000
    3  8 2px        0.17781   0.00000     -0.000   0.000   0.000
    3  9 3Pdxy      0.00389   0.00000      0.000   0.000   0.000
    3 10 3Pdyz      0.00408   0.00000      0.000  -0.000   0.000
    3 11 3Pdz2      0.00071   0.00000     -0.000   0.000   0.000
    3 12 3Pdxz      0.00274   0.00000     -0.000   0.000  -0.000
    3 13 3Pdx2-y2   0.00271   0.00000     -0.000   0.000  -0.000
    3     Total     5.53268   0.00000     -0.000   0.000  -0.000

    4  1 2s         1.46045   0.00000     -0.000  -0.000  -0.000
    4  2 2s         0.11875   0.00000     -0.000   0.000   0.000
    4  3 2py        1.12986   0.00000     -0.000   0.000  -0.000
    4  4 2pz        1.29511   0.00000      0.000   0.000  -0.000
    4  5 2px        0.82612   0.00000      0.000   0.000  -0.000
    4  6 2py        0.14984   0.00000     -0.000  -0.000   0.000
    4  7 2pz        0.05330   0.00000     -0.000   0.000   0.000
    4  8 2px        0.29237   0.00000     -0.000  -0.000   0.000
    4  9 3Pdxy      0.00871   0.00000      0.000  -0.000  -0.000
    4 10 3Pdyz      0.01045   0.00000      0.000  -0.000   0.000
    4 11 3Pdz2      0.00126   0.00000      0.000  -0.000   0.000
    4 12 3Pdxz      0.00491   0.00000     -0.000   0.000   0.000
    4 13 3Pdx2-y2   0.00798   0.00000      0.000  -0.000  -0.000
    4     Total     5.35911   0.00000      0.000   0.000  -0.000

    5  1 2s         1.37613   0.00000     -0.000  -0.000  -0.000
    5  2 2s         0.12801   0.00000      0.000  -0.000   0.000
    5  3 2py        1.02645   0.00000     -0.000   0.000  -0.000
    5  4 2pz        1.50083   0.00000      0.000   0.000  -0.000
    5  5 2px        1.05995   0.00000      0.000   0.000  -0.000
    5  6 2py        0.20363   0.00000      0.000  -0.000   0.000
    5  7 2pz        0.01341   0.00000     -0.000  -0.000   0.000
    5  8 2px        0.20110   0.00000     -0.000  -0.000   0.000
    5  9 3Pdxy      0.00392   0.00000      0.000   0.000   0.000
    5 10 3Pdyz      0.00242   0.00000      0.000   0.000   0.000
    5 11 3Pdz2      0.00143   0.00000      0.000  -0.000   0.000
    5 12 3Pdxz      0.00680   0.00000      0.000   0.000   0.000
    5 13 3Pdx2-y2   0.00560   0.00000     -0.000  -0.000   0.000
    5     Total     5.52968   0.00000      0.000   0.000  -0.000

    6  1 2s         1.26722   0.00000     -0.000   0.000  -0.000
    6  2 2s         0.18055   0.00000      0.000  -0.000   0.000
    6  3 2py        1.07810   0.00000      0.000   0.000  -0.000
    6  4 2pz        1.56584   0.00000      0.000  -0.000  -0.000
    6  5 2px        0.96132   0.00000     -0.000  -0.000  -0.000
    6  6 2py        0.18827   0.00000      0.000  -0.000   0.000
    6  7 2pz        0.03028   0.00000     -0.000   0.000   0.000
    6  8 2px        0.25511   0.00000      0.000  -0.000   0.000
    6  9 3Pdxy      0.00221   0.00000     -0.000   0.000   0.000
    6 10 3Pdyz      0.00013   0.00000      0.000   0.000  -0.000
    6 11 3Pdz2      0.00168   0.00000      0.000  -0.000   0.000
    6 12 3Pdxz      0.00335   0.00000     -0.000  -0.000   0.000
    6 13 3Pdx2-y2   0.00398   0.00000      0.000  -0.000   0.000
    6     Total     5.53804   0.00000     -0.000  -0.000  -0.000

   21  1 2s         1.41942   0.00000      0.000   0.000   0.000
   21  2 2s         0.12977   0.00000     -0.000  -0.000  -0.000
   21  3 2py        0.87382   0.00000     -0.000   0.000  -0.000
   21  4 2pz        1.29925   0.00000     -0.000   0.000  -0.000
   21  5 2px        1.16016   0.00000     -0.000  -0.000  -0.000
   21  6 2py        0.27485   0.00000      0.000  -0.000   0.000
   21  7 2pz        0.04811   0.00000      0.000   0.000   0.000
   21  8 2px        0.16123   0.00000     -0.000   0.000   0.000
   21  9 3Pdxy      0.00629   0.00000     -0.000   0.000  -0.000
   21 10 3Pdyz      0.00491   0.00000     -0.000   0.000   0.000
   21 11 3Pdz2      0.00012   0.00000      0.000   0.000   0.000
   21 12 3Pdxz      0.00580   0.00000      0.000   0.000   0.000
   21 13 3Pdx2-y2   0.00565   0.00000     -0.000  -0.000  -0.000
   21     Total     5.38938   0.00000     -0.000   0.000  -0.000

   22  1 2s         1.29170   0.00000      0.000  -0.000   0.000
   22  2 2s         0.16949   0.00000     -0.000  -0.000  -0.000
   22  3 2py        1.06018   0.00000      0.000  -0.000  -0.000
   22  4 2pz        1.54633   0.00000     -0.000  -0.000  -0.000
   22  5 2px        0.99079   0.00000      0.000  -0.000  -0.000
   22  6 2py        0.19611   0.00000     -0.000   0.000   0.000
   22  7 2pz        0.02878   0.00000      0.000   0.000   0.000
   22  8 2px        0.23393   0.00000     -0.000   0.000   0.000
   22  9 3Pdxy      0.00308   0.00000     -0.000   0.000   0.000
   22 10 3Pdyz      0.00032   0.00000     -0.000   0.000  -0.000
   22 11 3Pdz2      0.00247   0.00000     -0.000  -0.000   0.000
   22 12 3Pdxz      0.00329   0.00000      0.000   0.000  -0.000
   22 13 3Pdx2-y2   0.00472   0.00000      0.000  -0.000  -0.000
   22     Total     5.53119   0.00000      0.000  -0.000  -0.000

   23  1 2s         1.39342   0.00000      0.000   0.000   0.000
   23  2 2s         0.11968   0.00000     -0.000  -0.000  -0.000
   23  3 2py        1.00813   0.00000      0.000   0.000  -0.000
   23  4 2pz        1.52783   0.00000      0.000  -0.000  -0.000
   23  5 2px        1.06318   0.00000     -0.000  -0.000  -0.000
   23  6 2py        0.21142   0.00000     -0.000  -0.000   0.000
   23  7 2pz        0.00474   0.00000     -0.000  -0.000   0.000
   23  8 2px        0.19823   0.00000     -0.000   0.000   0.000
   23  9 3Pdxy      0.00529   0.00000      0.000   0.000   0.000
   23 10 3Pdyz      0.00446   0.00000     -0.000  -0.000  -0.000
   23 11 3Pdz2      0.00068   0.00000     -0.000   0.000  -0.000
   23 12 3Pdxz      0.00245   0.00000      0.000   0.000  -0.000
   23 13 3Pdx2-y2   0.00138   0.00000     -0.000  -0.000  -0.000
   23     Total     5.54089   0.00000      0.000  -0.000  -0.000

----------------------------------------------------------------
Total              56.77893   0.00000      0.000   0.000  -0.000


Species: Si                  

Atom      Orb        Charge      Spin       Svec
----------------------------------------------------------------
    7  1 3s         0.66768   0.00000     -0.000  -0.000   0.000
    7  2 3s         0.36469   0.00000      0.000   0.000   0.000
    7  3 3py        0.48524   0.00000     -0.000  -0.000   0.000
    7  4 3pz        0.69456   0.00000      0.000  -0.000  -0.000
    7  5 3px        0.12416   0.00000      0.000   0.000  -0.000
    7  6 3py        0.26638   0.00000      0.000   0.000   0.000
    7  7 3pz        0.25906   0.00000     -0.000  -0.000   0.000
    7  8 3px        0.43858   0.00000     -0.000  -0.000   0.000
    7  9 3Pdxy      0.24546   0.00000      0.000  -0.000   0.000
    7 10 3Pdyz      0.02910   0.00000      0.000   0.000   0.000
    7 11 3Pdz2      0.01169   0.00000      0.000   0.000   0.000
    7 12 3Pdxz      0.14556   0.00000     -0.000   0.000  -0.000
    7 13 3Pdx2-y2   0.11290   0.00000      0.000   0.000   0.000
    7     Total     3.84507   0.00000     -0.000  -0.000   0.000

    8  1 3s         0.65630   0.00000      0.000  -0.000   0.000
    8  2 3s         0.36859   0.00000      0.000   0.000   0.000
    8  3 3py        0.38898   0.00000      0.000   0.000  -0.000
    8  4 3pz        0.52047   0.00000      0.000   0.000   0.000
    8  5 3px       -0.02929   0.00000      0.000   0.000  -0.000
    8  6 3py        0.30847   0.00000     -0.000  -0.000   0.000
    8  7 3pz        0.20280   0.00000     -0.000  -0.000   0.000
    8  8 3px        0.51476   0.00000     -0.000  -0.000   0.000
    8  9 3Pdxy      0.24660   0.00000     -0.000  -0.000   0.000
    8 10 3Pdyz      0.11223   0.00000      0.000   0.000  -0.000
    8 11 3Pdz2      0.01429   0.00000      0.000   0.000   0.000
    8 12 3Pdxz      0.15416   0.00000     -0.000   0.000   0.000
    8 13 3Pdx2-y2   0.20066   0.00000     -0.000  -0.000   0.000
    8     Total     3.65904   0.00000     -0.000   0.000   0.000

    9  1 3s         0.60315   0.00000      0.000  -0.000   0.000
    9  2 3s         0.36729   0.00000     -0.000   0.000  -0.000
    9  3 3py        0.07928   0.00000      0.000  -0.000   0.000
    9  4 3pz        0.48451   0.00000      0.000  -0.000  -0.000
    9  5 3px        0.37807   0.00000      0.000   0.000  -0.000
    9  6 3py        0.44299   0.00000      0.000  -0.000   0.000
    9  7 3pz        0.18649   0.00000     -0.000  -0.000   0.000
    9  8 3px        0.27451   0.00000     -0.000  -0.000   0.000
    9  9 3Pdxy      0.30966   0.00000      0.000   0.000   0.000
    9 10 3Pdyz      0.19099   0.00000     -0.000  -0.000  -0.000
    9 11 3Pdz2      0.01586   0.00000      0.000  -0.000   0.000
    9 12 3Pdxz      0.09952   0.00000     -0.000   0.000  -0.000
    9 13 3Pdx2-y2   0.17334   0.00000      0.000   0.000   0.000
    9     Total     3.60567   0.00000      0.000  -0.000   0.000

   10  1 3s         0.48083   0.00000     -0.000  -0.000   0.000
   10  2 3s         0.37853   0.00000     -0.000   0.000   0.000
   10  3 3py        0.23972   0.00000      0.000   0.000   0.000
   10  4 3pz        0.40734   0.00000     -0.000  -0.000   0.000
   10  5 3px        0.10089   0.00000      0.000  -0.000  -0.000
   10  6 3py        0.32732   0.00000     -0.000  -0.000   0.000
   10  7 3pz        0.22278   0.00000     -0.000  -0.000   0.000
   10  8 3px        0.43073   0.00000     -0.000   0.000   0.000
   10  9 3Pdxy      0.16967   0.00000      0.000  -0.000   0.000
   10 10 3Pdyz      0.13811   0.00000      0.000   0.000   0.000
   10 11 3Pdz2      0.01011   0.00000      0.000   0.000   0.000
   10 12 3Pdxz      0.17577   0.00000     -0.000   0.000   0.000
   10 13 3Pdx2-y2   0.30930   0.00000      0.000   0.000   0.000
   10     Total     3.39112   0.00000     -0.000  -0.000   0.000

   11  1 3s         0.55289   0.00000      0.000  -0.000   0.000
   11  2 3s         0.38512   0.00000     -0.000   0.000   0.000
   11  3 3py        0.32238   0.00000      0.000  -0.000   0.000
   11  4 3pz        0.54181   0.00000      0.000   0.000   0.000
   11  5 3px        0.12513   0.00000     -0.000  -0.000   0.000
   11  6 3py        0.28662   0.00000      0.000   0.000   0.000
   11  7 3pz        0.17713   0.00000     -0.000  -0.000   0.000
   11  8 3px        0.44587   0.00000      0.000   0.000  -0.000
   11  9 3Pdxy      0.22551   0.00000      0.000   0.000   0.000
   11 10 3Pdyz      0.12654   0.00000      0.000  -0.000   0.000
   11 11 3Pdz2      0.00960   0.00000      0.000   0.000   0.000
   11 12 3Pdxz      0.05296   0.00000     -0.000  -0.000   0.000
   11 13 3Pdx2-y2   0.20405   0.00000      0.000  -0.000   0.000
   11     Total     3.45561   0.00000      0.000  -0.000   0.000

   17  1 3s         0.63647   0.00000      0.000  -0.000   0.000
   17  2 3s         0.36167   0.00000     -0.000   0.000  -0.000
   17  3 3py        0.22372   0.00000      0.000  -0.000   0.000
   17  4 3pz        0.41970   0.00000      0.000   0.000   0.000
   17  5 3px        0.24422   0.00000     -0.000   0.000   0.000
   17  6 3py        0.38716   0.00000     -0.000   0.000  -0.000
   17  7 3pz        0.21271   0.00000     -0.000  -0.000   0.000
   17  8 3px        0.37105   0.00000     -0.000  -0.000  -0.000
   17  9 3Pdxy      0.29937   0.00000     -0.000  -0.000  -0.000
   17 10 3Pdyz      0.14182   0.00000     -0.000   0.000   0.000
   17 11 3Pdz2      0.00886   0.00000      0.000  -0.000   0.000
   17 12 3Pdxz      0.14353   0.00000      0.000   0.000   0.000
   17 13 3Pdx2-y2   0.16463   0.00000      0.000  -0.000  -0.000
   17     Total     3.61490   0.00000      0.000   0.000   0.000

   18  1 3s         0.74330   0.00000      0.000  -0.000   0.000
   18  2 3s         0.34055   0.00000     -0.000   0.000   0.000
   18  3 3py        0.07574   0.00000     -0.000   0.000   0.000
   18  4 3pz        0.81613   0.00000      0.000  -0.000   0.000
   18  5 3px        0.55512   0.00000     -0.000   0.000   0.000
   18  6 3py        0.52053   0.00000     -0.000  -0.000   0.000
   18  7 3pz        0.19834   0.00000     -0.000   0.000   0.000
   18  8 3px        0.25117   0.00000      0.000   0.000   0.000
   18  9 3Pdxy      0.10305   0.00000      0.000  -0.000  -0.000
   18 10 3Pdyz      0.02760   0.00000     -0.000  -0.000  -0.000
   18 11 3Pdz2      0.00862   0.00000     -0.000  -0.000  -0.000
   18 12 3Pdxz      0.03052   0.00000     -0.000  -0.000  -0.000
   18 13 3Pdx2-y2   0.11208   0.00000     -0.000   0.000  -0.000
   18     Total     3.78276   0.00000     -0.000   0.000   0.000

   19  1 3s         0.46019   0.00000      0.000  -0.000   0.000
   19  2 3s         0.36468   0.00000     -0.000   0.000  -0.000
   19  3 3py        0.08604   0.00000     -0.000   0.000   0.000
   19  4 3pz        0.42832   0.00000      0.000   0.000   0.000
   19  5 3px        0.35390   0.00000     -0.000   0.000   0.000
   19  6 3py        0.46649   0.00000      0.000  -0.000   0.000
   19  7 3pz        0.18271   0.00000     -0.000  -0.000   0.000
   19  8 3px        0.24188   0.00000      0.000  -0.000  -0.000
   19  9 3Pdxy      0.34090   0.00000     -0.000  -0.000   0.000
   19 10 3Pdyz      0.18969   0.00000     -0.000  -0.000  -0.000
   19 11 3Pdz2      0.01559   0.00000     -0.000   0.000  -0.000
   19 12 3Pdxz      0.09046   0.00000     -0.000   0.000   0.000
   19 13 3Pdx2-y2   0.24074   0.00000      0.000  -0.000   0.000
   19     Total     3.46159   0.00000     -0.000  -0.000   0.000

   20  1 3s         0.67412   0.00000     -0.000  -0.000  -0.000
   20  2 3s         0.37761   0.00000     -0.000  -0.000  -0.000
   20  3 3py        0.32990   0.00000     -0.000  -0.000  -0.000
   20  4 3pz        0.59464   0.00000     -0.000   0.000  -0.000
   20  5 3px        0.13875   0.00000      0.000   0.000  -0.000
   20  6 3py        0.29142   0.00000      0.000   0.000   0.000
   20  7 3pz        0.16353   0.00000     -0.000  -0.000  -0.000
   20  8 3px        0.49967   0.00000     -0.000  -0.000  -0.000
   20  9 3Pdxy      0.09981   0.00000     -0.000  -0.000  -0.000
   20 10 3Pdyz      0.13301   0.00000     -0.000  -0.000  -0.000
   20 11 3Pdz2      0.00739   0.00000     -0.000  -0.000   0.000
   20 12 3Pdxz      0.02684   0.00000     -0.000   0.000   0.000
   20 13 3Pdx2-y2   0.17286   0.00000      0.000   0.000   0.000
   20     Total     3.50953   0.00000     -0.000  -0.000  -0.000

----------------------------------------------------------------
Total              89.10422   0.00000     -0.000  -0.000   0.000


Species: H                   

Atom      Orb        Charge      Spin       Svec
----------------------------------------------------------------
   12  1 1s         0.49107   0.00000      0.000   0.000   0.000
   12  2 1s         0.18248   0.00000      0.000  -0.000   0.000
   12  3 2Ppy       0.02912   0.00000      0.000  -0.000  -0.000
   12  4 2Ppz       0.03270   0.00000      0.000  -0.000  -0.000
   12  5 2Ppx       0.02368   0.00000      0.000  -0.000   0.000
   12     Total     0.75904   0.00000      0.000   0.000   0.000

   13  1 1s         1.01954   0.00000     -0.000   0.000  -0.000
   13  2 1s         0.09536   0.00000      0.000  -0.000   0.000
   13  3 2Ppy       0.01808   0.00000     -0.000   0.000  -0.000
   13  4 2Ppz       0.02014   0.00000     -0.000  -0.000   0.000
   13  5 2Ppx       0.03507   0.00000     -0.000   0.000  -0.000
   13     Total     1.18819   0.00000     -0.000  -0.000  -0.000

   14  1 1s         0.46299   0.00000      0.000   0.000   0.000
   14  2 1s         0.19991   0.00000     -0.000  -0.000   0.000
   14  3 2Ppy       0.01819   0.00000      0.000   0.000  -0.000
   14  4 2Ppz       0.04560   0.00000     -0.000  -0.000  -0.000
   14  5 2Ppx       0.01733   0.00000      0.000  -0.000   0.000
   14     Total     0.74402   0.00000      0.000  -0.000   0.000

   15  1 1s         0.48502   0.00000     -0.000   0.000   0.000
   15  2 1s         0.17960   0.00000     -0.000   0.000   0.000
   15  3 2Ppy       0.00589   0.00000     -0.000  -0.000   0.000
   15  4 2Ppz       0.03904   0.00000      0.000   0.000  -0.000
   15  5 2Ppx       0.03272   0.00000      0.000  -0.000   0.000
   15     Total     0.74226   0.00000     -0.000   0.000   0.000

   16  1 1s         0.50948   0.00000      0.000  -0.000   0.000
   16  2 1s         0.18734   0.00000     -0.000  -0.000   0.000
   16  3 2Ppy       0.02980   0.00000      0.000  -0.000   0.000
   16  4 2Ppz       0.03977   0.00000     -0.000  -0.000  -0.000
   16  5 2Ppx       0.02359   0.00000     -0.000  -0.000   0.000
   16     Total     0.78997   0.00000     -0.000  -0.000   0.000

   24  1 1s         1.06277   0.00000      0.000  -0.000  -0.000
   24  2 1s         0.07413   0.00000     -0.000   0.000   0.000
   24  3 2Ppy       0.03223   0.00000     -0.000   0.000   0.000
   24  4 2Ppz       0.03053   0.00000     -0.000   0.000   0.000
   24  5 2Ppx       0.01731   0.00000      0.000  -0.000  -0.000
   24     Total     1.21698   0.00000      0.000   0.000  -0.000

   25  1 1s         1.04288   0.00000      0.000  -0.000  -0.000
   25  2 1s         0.08656   0.00000     -0.000   0.000   0.000
   25  3 2Ppy       0.01225   0.00000      0.000  -0.000  -0.000
   25  4 2Ppz       0.01860   0.00000     -0.000   0.000  -0.000
   25  5 2Ppx       0.03567   0.00000      0.000   0.000   0.000
   25     Total     1.19595   0.00000      0.000  -0.000  -0.000

   26  1 1s         0.47483   0.00000      0.000   0.000   0.000
   26  2 1s         0.19636   0.00000     -0.000  -0.000   0.000
   26  3 2Ppy       0.02128   0.00000      0.000   0.000   0.000
   26  4 2Ppz       0.04833   0.00000      0.000   0.000  -0.000
   26  5 2Ppx       0.01608   0.00000     -0.000  -0.000  -0.000
   26     Total     0.75687   0.00000      0.000   0.000   0.000

   27  1 1s         0.49782   0.00000      0.000   0.000   0.000
   27  2 1s         0.17014   0.00000     -0.000  -0.000   0.000
   27  3 2Ppy       0.00864   0.00000     -0.000   0.000  -0.000
   27  4 2Ppz       0.03443   0.00000      0.000   0.000  -0.000
   27  5 2Ppx       0.03390   0.00000     -0.000   0.000  -0.000
   27     Total     0.74493   0.00000      0.000   0.000   0.000

   29  1 1s         0.48592   0.00000     -0.000   0.000   0.000
   29  2 1s         0.18748   0.00000      0.000   0.000   0.000
   29  3 2Ppy       0.02508   0.00000      0.000  -0.000  -0.000
   29  4 2Ppz       0.03457   0.00000     -0.000  -0.000  -0.000
   29  5 2Ppx       0.02452   0.00000      0.000   0.000   0.000
   29     Total     0.75756   0.00000     -0.000  -0.000   0.000

----------------------------------------------------------------
Total              98.00000   0.00000      0.000   0.000  -0.000


siesta: Eigenvalues (eV):
ik =     1
  -21.9496  -21.9496  -21.7688  -21.7688  -21.5622  -21.5622  -21.4477  -21.4477  -21.2159  -21.2159
  -21.1001  -21.1001  -20.7332  -20.7332  -19.7513  -19.7513  -19.4425  -19.4425  -19.3520  -19.3520
  -14.7673  -14.7673  -13.8343  -13.8343  -13.3281  -13.3281  -13.1065  -13.1065  -13.0510  -13.0510
  -12.8320  -12.8320  -12.6774  -12.6774  -12.3311  -12.3311  -12.3146  -12.3146  -12.0230  -12.0230
  -11.3329  -11.3329  -10.8222  -10.8222  -10.7028  -10.7028  -10.6490  -10.6490  -10.1277  -10.1277
   -9.5725   -9.5725   -9.1779   -9.1779   -8.8501   -8.8501   -8.7095   -8.7095   -8.6670   -8.6670
   -8.5590   -8.5590   -8.4420   -8.4420   -8.1369   -8.1369   -7.7869   -7.7869   -7.7678   -7.7678
   -7.6509   -7.6509   -7.3353   -7.3353   -7.2371   -7.2371   -6.8102   -6.8102   -6.7865   -6.7865
   -6.5810   -6.5810   -6.4917   -6.4916   -6.1732   -6.1732   -6.1198   -6.1198   -6.0956   -6.0956
   -5.9434   -5.9434   -5.7185   -5.7185   -5.5033   -5.5033   -4.2983   -4.2983   -3.2557   -3.2557
   -2.3162   -2.3162   -2.3133   -2.3133   -2.2149   -2.2149   -1.8573   -1.8573   -1.8452   -1.8452
   -1.8021   -1.8021   -1.7990   -1.7990   -1.5871   -1.5871   -1.4391   -1.4391   -1.0582   -1.0582
   -0.9530   -0.9530   -0.7511   -0.7511   -0.3516   -0.3516   -0.2473   -0.2473    0.0984    0.0984
    0.4560    0.4560    0.4632    0.4632    0.6033    0.6033    0.7583    0.7583    0.8711    0.8711
    1.0954    1.0954    1.2391    1.2391    1.3571    1.3571    1.4233    1.4233    1.4998    1.4998
    1.7270    1.7270    1.8827    1.8827    2.0152    2.0152    2.3994    2.3994    2.7552    2.7552
    2.7607    2.7607    2.8247    2.8247    2.9277    2.9277    3.2675    3.2675    3.4234    3.4234
    3.4960    3.4960    3.8141    3.8141    3.9607    3.9607    4.0733    4.0733    4.3768    4.3768
    4.4335    4.4335    4.5483    4.5483    4.5836    4.5836    4.6373    4.6373    4.8576    4.8576
    4.9621    4.9621    5.0720    5.0720    5.2786    5.2786    5.5165    5.5165    5.6513    5.6513
    5.7638    5.7638    5.8438    5.8438    5.9952    5.9952    6.1174    6.1174    6.1833    6.1833
    6.2952    6.2952    6.3744    6.3744    6.5791    6.5791    6.7460    6.7460    6.8676    6.8676
    7.0222    7.0222    7.2264    7.2264    7.4535    7.4535    7.6300    7.6300    7.7811    7.7811
    7.8707    7.8707    8.0550    8.0550    8.0733    8.0733    8.2917    8.2917    8.4332    8.4332
    8.6234    8.6234    8.7413    8.7413    8.8290    8.8290    8.9451    8.9451    9.2544    9.2544
    9.2748    9.2748    9.4217    9.4217    9.8334    9.8334    9.8537    9.8537    9.8580    9.8580
   10.0725   10.0725   10.1620   10.1620   10.4760   10.4760   10.8600   10.8600   11.0259   11.0259
   11.1373   11.1373   11.2016   11.2016   11.2779   11.2779   11.7731   11.7731   11.8476   11.8476
   11.9669   11.9669   12.0818   12.0818   12.4441   12.4441   12.4690   12.4690   12.5351   12.5351
   12.7077   12.7077   12.7351   12.7351   13.4898   13.4898   13.5073   13.5073   13.6936   13.6936
   13.8969   13.8969   14.0482   14.0482   14.3222   14.3222   14.6473   14.6473   14.8679   14.8679
   14.9268   14.9268   15.3118   15.3118   16.0149   16.0149   16.4974   16.4974   16.6486   16.6486
   16.9804   16.9804   17.5280   17.5280   17.5713   17.5713   18.4405   18.4405   18.5678   18.5678
   18.5827   18.5827   19.0455   19.0455   19.4861   19.4861   20.0038   20.0038   20.2252   20.2252
   20.9307   20.9307   21.3808   21.3808   21.8763   21.8763   22.0608   22.0608   22.5796   22.5796
   23.1678   23.1678   23.4914   23.4914   23.7858   23.7858   24.0476   24.0476   24.0652   24.0652
   24.9332   24.9332   25.2440   25.2440   26.1324   26.1324   26.9487   26.9487   27.9244   27.9244
   28.7224   28.7224   29.0144   29.0144   29.1310   29.1310   29.5166   29.5166   29.8204   29.8204
   30.1361   30.1361   30.3380   30.3380   30.6494   30.6494   30.9823   30.9823   30.9886   30.9886
   31.0868   31.0868   31.3198   31.3198   31.6579   31.6579   32.2979   32.2979   32.3417   32.3417
   33.6095   33.6095   34.0546   34.0546   34.4998   34.4998   34.5809   34.5809   34.7591   34.7591
   34.7695   34.7695   35.1586   35.1586   35.3880   35.3880   35.6882   35.6882   35.8646   35.8646
   36.9851   36.9851   37.4266   37.4266   37.4652   37.4652   37.5470   37.5470   38.0385   38.0385
   38.5623   38.5623   39.0308   39.0308   39.3106   39.3106   39.6636   39.6636   40.1742   40.1742
   40.4903   40.4903   40.6573   40.6573   40.8708   40.8708   40.8946   40.8946   41.5301   41.5301
   42.0924   42.0924   42.5204   42.5204   42.9598   42.9598   42.9934   42.9934   43.4574   43.4574
   43.5313   43.5313   44.0390   44.0390   44.2483   44.2483   44.2795   44.2795   44.6268   44.6268
   44.7220   44.7220   45.2146   45.2146   45.2349   45.2349   45.8707   45.8707   46.2439   46.2439
   46.7964   46.7964   47.2525   47.2525   47.4430   47.4430   48.6540   48.6540   49.5823   49.5823
   49.6948   49.6948   50.2482   50.2482   50.6447   50.6447   50.6797   50.6797   51.1214   51.1214
   51.3537   51.3537   52.3500   52.3500   52.5692   52.5692   53.3943   53.3943   54.3188   54.3188
   54.7438   54.7438   54.8396   54.8396   55.5836   55.5836   55.8169   55.8169   56.3620   56.3620
   56.5652   56.5652   56.8483   56.8483   56.9789   56.9789   58.4786   58.4786   59.1263   59.1263
   59.8045   59.8045   60.5156   60.5156   60.7046   60.7046   61.3303   61.3303   61.8267   61.8267
   62.2951   62.2951   62.5008   62.5008   62.9866   62.9866   64.6864   64.6864   66.5626   66.5626
   67.2941   67.2941   67.6404   67.6404   68.2259   68.2259   69.2876   69.2876   70.9037   70.9037
   74.3465   74.3465   81.6908   81.6908   91.3262   91.3262   91.9647   91.9647   93.5926   93.5926
   98.5746   98.5746   99.5733   99.5733  100.5728  100.5728  103.5276  103.5276  104.3306  104.3306
  110.6593  110.6593  112.7370  112.7370  123.8127  123.8127  125.8742  125.8742  130.9261  130.9261
  135.6097  135.6097  138.8643  138.8643
siesta: Fermi energy =      -3.777310 eV

siesta: Program's energy decomposition (eV):
siesta: Ebs     =     -1133.274917
siesta: Eions   =      3585.165840
siesta: Ena     =       382.010740
siesta: Ekin    =      2903.086116
siesta: Enl     =     -2788.254810
siesta: Eso     =        -0.004278
siesta: Edftu   =         0.000000
siesta: DEna    =        47.183697
siesta: DUscf   =        14.186210
siesta: DUext   =         0.000000
siesta: Exc     =     -1119.773863
siesta: eta*DQ  =         0.000000
siesta: Emadel  =         0.000000
siesta: Emeta   =         0.000000
siesta: Emolmec =         0.000000
siesta: Ekinion =         0.000000
siesta: Eharris =     -4146.732029
siesta: Etot    =     -4146.732029
siesta: FreeEng =     -4146.732029

siesta: Final energy (eV):
siesta:  Band Struct. =   -1133.274917
siesta:       Kinetic =    2903.086116
siesta:       Hartree =    8446.103623
siesta:       Edftu   =       0.000000
siesta:       Eso     =      -0.004278
siesta:    Ext. field =       0.000000
siesta:   Exch.-corr. =   -1119.773863
siesta:  Ion-electron =  -19474.980957
siesta:       Ion-ion =    5098.837331
siesta:       Ekinion =       0.000000
siesta:         Total =   -4146.732029
siesta:         Fermi =      -3.777310

siesta: Atomic forces (eV/Ang):
siesta:      1   -0.339256   -0.599816    0.000000
siesta:      2    0.011577   -0.021828    0.000000
siesta:      3    0.659422   -0.302085    0.000000
siesta:      4    0.619971   -0.014963   -0.000000
siesta:      5    0.043432   -0.073211    0.000000
siesta:      6    1.686995    0.665011   -0.000000
siesta:      7    0.037421   -0.222954    0.000000
siesta:      8   -0.344436    0.243878    0.000000
siesta:      9   -0.129892    1.088548   -0.000000
siesta:     10   -0.836386    0.329366   -0.000000
siesta:     11   -0.018205   -0.018092   -0.000000
siesta:     12   -0.314305   -0.202998   -0.000000
siesta:     13   -0.007430   -0.007961   -0.000000
siesta:     14    0.079070   -0.136695    0.000000
siesta:     15   -1.056494   -0.709567    0.000000
siesta:     16   -0.044878    0.130886    0.000000
siesta:     17    0.842814   -0.973957    0.000000
siesta:     18   -0.185898    0.171401   -0.000000
siesta:     19   -0.183177   -1.033806    0.000000
siesta:     20   -0.019355   -0.353660   -0.000000
siesta:     21   -0.254505    0.863021    0.000000
siesta:     22   -2.082019   -0.926999    0.000000
siesta:     23    0.210007    0.446196    0.000000
siesta:     24    0.109179   -0.037939    0.000000
siesta:     25    0.130206   -0.015165   -0.000000
siesta:     26   -0.257345   -0.166643   -0.000000
siesta:     27    1.487418    1.300138   -0.000000
siesta:     28    1.095302   -2.469571   -0.000000
siesta:     29   -0.020976    0.132219   -0.000000
siesta: ----------------------------------------
siesta:    Tot    0.918257   -2.917247    0.000000

siesta: Stress tensor (static) (eV/Ang**3):
siesta:     0.000264    0.000986   -0.000000
siesta:     0.000986    0.001135   -0.000000
siesta:    -0.000000    0.000000   -0.000058

siesta: Cell volume =       4913.258706 Ang**3

siesta: Pressure (static):
siesta:                Solid            Molecule  Units
siesta:          -0.00000487         -0.00000708  Ry/Bohr**3
siesta:          -0.00044708         -0.00064978  eV/Ang**3
siesta:          -0.71631488         -1.04107867  kBar
(Free)E+ p_basis*V_orbitals  =       -4126.881611
(Free)Eharris+ p_basis*V_orbitals  =       -4126.881611
     spin moment: S , {S} =    0.00000   0.00000   0.00000  -0.00000

siesta: Electric dipole (a.u.)  =    1.626346    0.100865    0.000000
siesta: Electric dipole (Debye) =    4.133763    0.256375    0.000000

cite: Please see "GC.bib" for an exhaustive BiBTeX file.
cite: Please clearly indicate Siesta version in published work: v4.1.5-1-g384057250
cite: This calculation has made use of the following articles
cite: which are encouraged to be cited in a published work.
        Primary SIESTA paper
          DOI: www.doi.org/10.1088/0953-8984/14/11/302
        Spin-orbit coupling (on-site approximation)
          DOI: www.doi.org/10.1088/0953-8984/19/19/489001


WARNING: alloc-realloc-dealloc name mismatch
         Name: atomlist isa
         Size:              -116. Bytes
         Node:     0
         Subsequent mismatches will not be reported
>> End of run:  28-JUN-2023  19:26:22
Job completed
