Siesta Version  : v4.1.5-1-g384057250
Architecture    : gcc
Compiler version: GNU Fortran (Ubuntu 11.4.0-1ubuntu1~22.04) 11.4.0
Compiler flags  : mpifort -O2 -fPIC -ftree-vectorize -fallow-argument-mismatch
PP flags        : -DFC_HAVE_ABORT -DMPI -DSIESTA__FLOOK -DSIESTA__METIS -DSIESTA__MUMPS -DCDF -DNCDF -DNCDF_4 -DNCDF_PARALLEL -DSIESTA__MRRR -DSIESTA__ELPA
Libraries       : libncdf.a libfdict.a  -lflookall -ldl -lnetcdff -lnetcdf -lhdf5_hl -lhdf5 -lhdf5_fortran -lz -lscalapack-openmpi -lopenblas -lmetis -lzmumps -lcmumps -ldmumps -lmumps_common -lpord -lsmumps -lesmumps -lscotch -lscotcherr -fopenmp -lelpa
PARALLEL version
NetCDF support
NetCDF-4 support
NetCDF-4 MPI-IO support
METIS ordering support
Lua support

* Running on 8 nodes in parallel
>> Start of run:   1-FEB-2024  20:30:35

                           ***********************       
                           *  WELCOME TO SIESTA  *       
                           ***********************       

reinit: Reading from standard input
reinit: Dumped input in INPUT_TMP.05897
************************** Dump of input data file ****************************
# mpirun -np 4 siesta-4.1.5 < AT.fdf > AT.out &
SystemLabel      AT
NumberOfAtoms    30
NumberOfSpecies  4
%block ChemicalSpeciesLabel
    1    1  H
    2    7  N
    3   14  Si
    4    8  O
%endblock ChemicalSpeciesLabel
############################################
# This overrides Defaults.fdf configuration
############################################
MD.TypeOfRun                Verlet # CG, Verlet
MD.Steps                    0
MaxSCFIterations            200
SCF.MustConverge            F
AtomicCoordinatesFormat NotScaledCartesianAng
%block AtomicCoordinatesAndAtomicSpecies
    2.28494382 -5.19529124 0.0  1  1  H
    1.37433094 -4.6647107 0.0  2  2  N
    -0.21830245 -5.49458215 0.0  3  3  Si
    -0.17484108 -6.98516892 0.0  1  4  H
    -1.66171682 -4.58600741 0.0  2  5  N
    -1.09026419 -2.87456374 0.0  3  6  Si
    -1.53038332 -0.70765692 0.0  3  7  Si
    -3.14415959 -0.09186471 0.0  2  8  N
    -3.40268075 0.95848335 0.0  1  9  H
    -3.95073599 -0.76720972 0.0  1  10  H
    -0.17836637 0.41349951 0.0  2  11  N
    1.49520211 -0.0473996 0.0  3  12  Si
    2.45603905 1.10727302 0.0  1  13  H
    2.30451743 -1.58574382 0.0  2  14  N
    1.10725559 -2.84610319 0.0  3  15  Si
    0.11994208859829941 10.776577898838875 0.0  1  16  H
    -0.6887685914017005 10.084372018838874 0.0  2  17  N
    -2.3453584314017006 10.797492118838875 0.0  3  18  Si
    -2.2484932614017006 12.308217328838875 0.0  1  19  H
    -4.0715147814017 9.454443988838875 0.0  3  20  Si
    -6.425969031401701 9.446457058838874 0.0  3  21  Si
    -6.988387151401701 10.180946708838874 -1.20183078  1  22  H
    -6.725782781401701 7.967365928838874 -0.08618332  1  23  H
    -6.988499611401701 10.011289518838876 1.28814761  1  24  H
    -3.1421241414017005 7.383872758838875 0.0  3  25  Si
    -4.091592501401701 6.095336628838874 0.0  4  26  O
    -1.3511792714017006 7.210137288838874 0.0  2  27  N
    -1.0201879114017005 6.177780308838875 0.0  1  28  H
    -0.04272105140170063 8.404683708838874 0.0  3  29  Si
    1.5232158785982992 8.137436858838875 0.0  4  30  O
%endblock AtomicCoordinatesAndAtomicSpecies
#############
# Unit Cell
#############
LatticeConstant 1.0 Ang
%block LatticeVectors
    30.00000    0.000000    0.000000
    0.000000    45.00000    0.000000
    0.000000    0.000000    10.00000
%endblock LatticeVectors
%include ../../../../Defaults.fdf
************************** End of input data file *****************************

reinit: -----------------------------------------------------------------------
reinit: System Name: 
reinit: -----------------------------------------------------------------------
reinit: System Label: AT
reinit: -----------------------------------------------------------------------

initatom: Reading input for the pseudopotentials and atomic orbitals ----------
Species number:   1 Atomic number:    1 Label: H
Species number:   2 Atomic number:    7 Label: N
Species number:   3 Atomic number:   14 Label: Si
Species number:   4 Atomic number:    8 Label: O

Ground state valence configuration:   1s01
Reading pseudopotential information in formatted form from H.psf

Pseudopotential generated from a relativistic atomic calculation

Valence configuration for pseudopotential generation:
1s( 1.00) rc: 0.01
2p( 0.00) rc: 0.60
3d( 0.00) rc: 1.99
4f( 0.00) rc: 2.49
Ground state valence configuration:   2s02  2p03
Reading pseudopotential information in formatted form from N.psf

Pseudopotential generated from a relativistic atomic calculation

Valence configuration for pseudopotential generation:
2s( 2.00) rc: 0.94
2p( 3.00) rc: 0.59
3d( 0.00) rc: 3.46
4f( 0.00) rc: 2.47
Ground state valence configuration:   3s02  3p02
Reading pseudopotential information in formatted form from Si.psf

Pseudopotential generated from a relativistic atomic calculation

Valence configuration for pseudopotential generation:
3s( 2.00) rc: 1.67
3p( 2.00) rc: 2.04
3d( 0.00) rc: 2.89
4f( 0.00) rc: 2.49
Ground state valence configuration:   2s02  2p04
Reading pseudopotential information in formatted form from O.psf

Pseudopotential generated from a relativistic atomic calculation

Valence configuration for pseudopotential generation:
2s( 2.00) rc: 0.45
2p( 4.00) rc: 0.92
3d( 0.00) rc: 2.24
4f( 0.00) rc: 0.25
For H, standard SIESTA heuristics set lmxkb to 2
 (one more than the basis l, including polarization orbitals).
Use PS.lmax or PS.KBprojectors blocks to override.
For N, standard SIESTA heuristics set lmxkb to 3
 (one more than the basis l, including polarization orbitals).
Use PS.lmax or PS.KBprojectors blocks to override.
For Si, standard SIESTA heuristics set lmxkb to 3
 (one more than the basis l, including polarization orbitals).
Use PS.lmax or PS.KBprojectors blocks to override.
For O, standard SIESTA heuristics set lmxkb to 3
 (one more than the basis l, including polarization orbitals).
Use PS.lmax or PS.KBprojectors blocks to override.

<basis_specs>
===============================================================================
H                    Z=   1    Mass=  1.0100        Charge= 0.17977+309
Lmxo=0 Lmxkb= 2    BasisType=split      Semic=F
L=0  Nsemic=0  Cnfigmx=1
          i=1  nzeta=2  polorb=1  (1s)
            splnorm:   0.62000    
               vcte:    0.0000    
               rinn:    0.0000    
               qcoe:    0.0000    
               qyuk:    0.0000    
               qwid:   0.10000E-01
                rcs:    0.0000      0.0000    
            lambdas:    1.0000      1.0000    
-------------------------------------------------------------------------------
L=0  Nkbl=1  erefs: 0.17977+309
L=1  Nkbl=1  erefs: 0.17977+309
L=2  Nkbl=1  erefs: 0.17977+309
===============================================================================
</basis_specs>

atom: Called for H                     (Z =   1)

read_vps: Pseudopotential generation method:
read_vps: ATM4.2.7  Troullier-Martins                       
Valence charge for ps generation:    1.00000

xc_check: Exchange-correlation functional:
xc_check: GGA Perdew, Burke & Ernzerhof 1996
V l=0 = -2*Zval/r beyond r=  0.0098
V l=1 = -2*Zval/r beyond r=  0.5817
V l=2 = -2*Zval/r beyond r=  1.9372
All V_l potentials equal beyond r=  1.9372
This should be close to max(r_c) in ps generation
All pots = -2*Zval/r beyond r=  1.9372

VLOCAL1: 99.0% of the norm of Vloc inside     11.567 Ry
VLOCAL1: 99.9% of the norm of Vloc inside     26.362 Ry
atom: Maximum radius for 4*pi*r*r*local-pseudopot. charge    2.25106
atom: Maximum radius for r*vlocal+2*Zval:    1.91306
GHOST: No ghost state for L =  0
GHOST: No ghost state for L =  1
GHOST: No ghost state for L =  2

KBgen: Kleinman-Bylander projectors: 
   l= 0   rc=  2.036604   el= -0.477180   Ekb= -6.081590   kbcos= -0.277285
   l= 1   rc=  2.195416   el=  0.001076   Ekb= -0.926943   kbcos= -0.034643
   l= 2   rc=  2.251056   el=  0.002010   Ekb= -0.130941   kbcos= -0.009788

KBgen: Total number of Kleinman-Bylander projectors:    9
atom: -------------------------------------------------------------------------

atom: SANKEY-TYPE ORBITALS:
atom: Selected multiple-zeta basis: split     

SPLIT: Orbitals with angular momentum L= 0

SPLIT: Basis orbitals for state 1s

SPLIT: PAO cut-off radius determined from an
SPLIT: energy shift=  0.002000 Ry

   izeta = 1
                 lambda =    1.000000
                     rc =    6.518340
                 energy =   -0.475305
                kinetic =    0.912139
    potential(screened) =   -1.387444
       potential(ionic) =   -1.907295

   izeta = 2
                 rmatch =    2.141150
              splitnorm =    0.620000
                 energy =    0.566467
                kinetic =    3.772856
    potential(screened) =   -3.206389
       potential(ionic) =   -3.759093

POLgen: Perturbative polarization orbital with L=  1

POLgen: Polarization orbital for state 1s

   izeta = 1
                     rc =    6.518340
                 energy =    0.533861
                kinetic =    1.121086
    potential(screened) =   -0.587225
       potential(ionic) =   -1.053027
atom: Total number of Sankey-type orbitals:  5

atm_pop: Valence configuration (for local Pseudopot. screening):
 1s( 1.00)                                                            
Vna: chval, zval:    1.00000   1.00000

Vna:  Cut-off radius for the neutral-atom potential:   6.518340

atom: _________________________________________________________________________

<basis_specs>
===============================================================================
N                    Z=   7    Mass=  14.010        Charge= 0.17977+309
Lmxo=1 Lmxkb= 3    BasisType=split      Semic=F
L=0  Nsemic=0  Cnfigmx=2
          i=1  nzeta=2  polorb=0  (2s)
            splnorm:   0.28000    
               vcte:    0.0000    
               rinn:    0.0000    
               qcoe:    0.0000    
               qyuk:    0.0000    
               qwid:   0.10000E-01
                rcs:    0.0000      0.0000    
            lambdas:    1.0000      1.0000    
L=1  Nsemic=0  Cnfigmx=2
          i=1  nzeta=2  polorb=1  (2p)
            splnorm:   0.28000    
               vcte:    0.0000    
               rinn:    0.0000    
               qcoe:    0.0000    
               qyuk:    0.0000    
               qwid:   0.10000E-01
                rcs:    0.0000      0.0000    
            lambdas:    1.0000      1.0000    
-------------------------------------------------------------------------------
L=0  Nkbl=1  erefs: 0.17977+309
L=1  Nkbl=1  erefs: 0.17977+309
L=2  Nkbl=1  erefs: 0.17977+309
L=3  Nkbl=1  erefs: 0.17977+309
===============================================================================
</basis_specs>

atom: Called for N                     (Z =   7)

read_vps: Pseudopotential generation method:
read_vps: ATM4.2.7  Troullier-Martins                       
Valence charge for ps generation:    5.00000

xc_check: Exchange-correlation functional:
xc_check: GGA Perdew, Burke & Ernzerhof 1996
V l=0 = -2*Zval/r beyond r=  1.2889
V l=1 = -2*Zval/r beyond r=  1.2889
V l=2 = -2*Zval/r beyond r=  3.4178
V l=3 = -2*Zval/r beyond r=  2.4084
All V_l potentials equal beyond r=  3.3753
This should be close to max(r_c) in ps generation
All pots = -2*Zval/r beyond r=  3.4178

VLOCAL1: 99.0% of the norm of Vloc inside      3.810 Ry
VLOCAL1: 99.9% of the norm of Vloc inside      8.683 Ry
atom: Maximum radius for 4*pi*r*r*local-pseudopot. charge    4.02088
atom: Maximum radius for r*vlocal+2*Zval:    3.54838
GHOST: No ghost state for L =  0
GHOST: No ghost state for L =  1
GHOST: No ghost state for L =  2
GHOST: No ghost state for L =  3

KBgen: Kleinman-Bylander projectors: 
   l= 0   rc=  3.417763   el= -1.365098   Ekb= -4.433130   kbcos= -0.707855
   l= 1   rc=  3.375302   el= -0.521201   Ekb=-13.264039   kbcos= -0.535594
   l= 2   rc=  3.872880   el=  0.001991   Ekb= -0.641094   kbcos= -0.062456
   l= 3   rc=  3.970931   el=  0.003093   Ekb= -0.474517   kbcos= -0.018236

KBgen: Total number of Kleinman-Bylander projectors:   16
atom: -------------------------------------------------------------------------

atom: SANKEY-TYPE ORBITALS:
atom: Selected multiple-zeta basis: split     

SPLIT: Orbitals with angular momentum L= 0

SPLIT: Basis orbitals for state 2s

SPLIT: PAO cut-off radius determined from an
SPLIT: energy shift=  0.002000 Ry

   izeta = 1
                 lambda =    1.000000
                     rc =    4.730425
                 energy =   -1.363399
                kinetic =    1.245246
    potential(screened) =   -2.608645
       potential(ionic) =   -8.121105

   izeta = 2
                 rmatch =    2.531849
              splitnorm =    0.280000
                 energy =   -0.959908
                kinetic =    2.409435
    potential(screened) =   -3.369343
       potential(ionic) =   -9.427975

SPLIT: Orbitals with angular momentum L= 1

SPLIT: Basis orbitals for state 2p

SPLIT: PAO cut-off radius determined from an
SPLIT: energy shift=  0.002000 Ry

   izeta = 1
                 lambda =    1.000000
                     rc =    5.924108
                 energy =   -0.519262
                kinetic =    3.672940
    potential(screened) =   -4.192202
       potential(ionic) =   -9.518354

   izeta = 2
                 rmatch =    2.531849
              splitnorm =    0.280000
                 energy =   -0.104258
                kinetic =    6.807538
    potential(screened) =   -6.911796
       potential(ionic) =  -13.149920

POLgen: Perturbative polarization orbital with L=  2

POLgen: Polarization orbital for state 2p

   izeta = 1
                     rc =    5.924108
                 energy =    1.427508
                kinetic =    2.872379
    potential(screened) =   -1.444871
       potential(ionic) =   -5.563644
atom: Total number of Sankey-type orbitals: 13

atm_pop: Valence configuration (for local Pseudopot. screening):
 2s( 2.00)                                                            
 2p( 3.00)                                                            
Vna: chval, zval:    5.00000   5.00000

Vna:  Cut-off radius for the neutral-atom potential:   5.924108

atom: _________________________________________________________________________

<basis_specs>
===============================================================================
Si                   Z=  14    Mass=  28.090        Charge= 0.17977+309
Lmxo=1 Lmxkb= 3    BasisType=split      Semic=F
L=0  Nsemic=0  Cnfigmx=3
          i=1  nzeta=2  polorb=0  (3s)
            splnorm:   0.28000    
               vcte:    0.0000    
               rinn:    0.0000    
               qcoe:    0.0000    
               qyuk:    0.0000    
               qwid:   0.10000E-01
                rcs:    0.0000      0.0000    
            lambdas:    1.0000      1.0000    
L=1  Nsemic=0  Cnfigmx=3
          i=1  nzeta=2  polorb=1  (3p)
            splnorm:   0.28000    
               vcte:    0.0000    
               rinn:    0.0000    
               qcoe:    0.0000    
               qyuk:    0.0000    
               qwid:   0.10000E-01
                rcs:    0.0000      0.0000    
            lambdas:    1.0000      1.0000    
-------------------------------------------------------------------------------
L=0  Nkbl=1  erefs: 0.17977+309
L=1  Nkbl=1  erefs: 0.17977+309
L=2  Nkbl=1  erefs: 0.17977+309
L=3  Nkbl=1  erefs: 0.17977+309
===============================================================================
</basis_specs>

atom: Called for Si                    (Z =  14)

read_vps: Pseudopotential generation method:
read_vps: ATM4.2.7  Troullier-Martins                       
Valence charge for ps generation:    4.00000

xc_check: Exchange-correlation functional:
xc_check: GGA Perdew, Burke & Ernzerhof 1996
V l=0 = -2*Zval/r beyond r=  2.7826
V l=1 = -2*Zval/r beyond r=  2.7826
V l=2 = -2*Zval/r beyond r=  2.9253
V l=3 = -2*Zval/r beyond r=  2.7826
All V_l potentials equal beyond r=  2.8530
This should be close to max(r_c) in ps generation
All pots = -2*Zval/r beyond r=  2.9253

VLOCAL1: 99.0% of the norm of Vloc inside      5.333 Ry
VLOCAL1: 99.9% of the norm of Vloc inside     12.154 Ry
atom: Maximum radius for 4*pi*r*r*local-pseudopot. charge    3.39869
atom: Maximum radius for r*vlocal+2*Zval:    2.96205
GHOST: No ghost state for L =  0
GHOST: No ghost state for L =  1
GHOST: No ghost state for L =  2
GHOST: No ghost state for L =  3

KBgen: Kleinman-Bylander projectors: 
   l= 0   rc=  3.075247   el= -0.794092   Ekb=  5.879390   kbcos=  0.167461
   l= 1   rc=  3.153101   el= -0.300068   Ekb=  2.642817   kbcos=  0.058301
   l= 2   rc=  3.273594   el=  0.001958   Ekb= -1.185135   kbcos= -0.104411
   l= 3   rc=  3.232927   el=  0.003046   Ekb= -0.497174   kbcos= -0.015889

KBgen: Total number of Kleinman-Bylander projectors:   16
atom: -------------------------------------------------------------------------

atom: SANKEY-TYPE ORBITALS:
atom: Selected multiple-zeta basis: split     

SPLIT: Orbitals with angular momentum L= 0

SPLIT: Basis orbitals for state 3s

SPLIT: PAO cut-off radius determined from an
SPLIT: energy shift=  0.002000 Ry

   izeta = 1
                 lambda =    1.000000
                     rc =    6.429618
                 energy =   -0.792283
                kinetic =    0.525293
    potential(screened) =   -1.317576
       potential(ionic) =   -3.744923

   izeta = 2
                 rmatch =    3.998416
              splitnorm =    0.280000
                 energy =   -0.583081
                kinetic =    1.069570
    potential(screened) =   -1.652651
       potential(ionic) =   -4.235185

SPLIT: Orbitals with angular momentum L= 1

SPLIT: Basis orbitals for state 3p

SPLIT: PAO cut-off radius determined from an
SPLIT: energy shift=  0.002000 Ry

   izeta = 1
                 lambda =    1.000000
                     rc =    8.464845
                 energy =   -0.298236
                kinetic =    0.785360
    potential(screened) =   -1.083596
       potential(ionic) =   -3.273779

   izeta = 2
                 rmatch =    4.587816
              splitnorm =    0.280000
                 energy =   -0.131871
                kinetic =    1.403687
    potential(screened) =   -1.535557
       potential(ionic) =   -4.015310

POLgen: Perturbative polarization orbital with L=  2

POLgen: Polarization orbital for state 3p

   izeta = 1
                     rc =    8.464845
                 energy =    0.321949
                kinetic =    1.055677
    potential(screened) =   -0.733728
       potential(ionic) =   -2.672950
atom: Total number of Sankey-type orbitals: 13

atm_pop: Valence configuration (for local Pseudopot. screening):
 3s( 2.00)                                                            
 3p( 2.00)                                                            
Vna: chval, zval:    4.00000   4.00000

Vna:  Cut-off radius for the neutral-atom potential:   8.464845

atom: _________________________________________________________________________

<basis_specs>
===============================================================================
O                    Z=   8    Mass=  16.000        Charge= 0.17977+309
Lmxo=1 Lmxkb= 3    BasisType=split      Semic=F
L=0  Nsemic=0  Cnfigmx=2
          i=1  nzeta=2  polorb=0  (2s)
            splnorm:   0.28000    
               vcte:    0.0000    
               rinn:    0.0000    
               qcoe:    0.0000    
               qyuk:    0.0000    
               qwid:   0.10000E-01
                rcs:    0.0000      0.0000    
            lambdas:    1.0000      1.0000    
L=1  Nsemic=0  Cnfigmx=2
          i=1  nzeta=2  polorb=1  (2p)
            splnorm:   0.28000    
               vcte:    0.0000    
               rinn:    0.0000    
               qcoe:    0.0000    
               qyuk:    0.0000    
               qwid:   0.10000E-01
                rcs:    0.0000      0.0000    
            lambdas:    1.0000      1.0000    
-------------------------------------------------------------------------------
L=0  Nkbl=1  erefs: 0.17977+309
L=1  Nkbl=1  erefs: 0.17977+309
L=2  Nkbl=1  erefs: 0.17977+309
L=3  Nkbl=1  erefs: 0.17977+309
===============================================================================
</basis_specs>

atom: Called for O                     (Z =   8)

read_vps: Pseudopotential generation method:
read_vps: ATM4.2.7  Troullier-Martins                       
Valence charge for ps generation:    6.00000

xc_check: Exchange-correlation functional:
xc_check: GGA Perdew, Burke & Ernzerhof 1996
V l=0 = -2*Zval/r beyond r=  1.1000
V l=1 = -2*Zval/r beyond r=  1.1000
V l=2 = -2*Zval/r beyond r=  2.2154
V l=3 = -2*Zval/r beyond r=  1.1000
All V_l potentials equal beyond r=  2.2154
This should be close to max(r_c) in ps generation
All pots = -2*Zval/r beyond r=  2.2154

VLOCAL1: 99.0% of the norm of Vloc inside      8.845 Ry
VLOCAL1: 99.9% of the norm of Vloc inside     20.157 Ry
atom: Maximum radius for 4*pi*r*r*local-pseudopot. charge    2.67231
atom: Maximum radius for r*vlocal+2*Zval:    2.32897
GHOST: No ghost state for L =  0
GHOST: No ghost state for L =  1
GHOST: No ghost state for L =  2
GHOST: No ghost state for L =  3

KBgen: Kleinman-Bylander projectors: 
   l= 0   rc=  2.243238   el= -1.759686   Ekb=**********   kbcos= -0.171774
   l= 1   rc=  2.328968   el= -0.663873   Ekb=-14.506792   kbcos= -0.519897
   l= 2   rc=  2.573941   el=  0.002031   Ekb= -1.137373   kbcos= -0.019581
   l= 3   rc=  2.606321   el=  0.003153   Ekb= -1.013546   kbcos= -0.003122

KBgen: Total number of Kleinman-Bylander projectors:   16
atom: -------------------------------------------------------------------------

atom: SANKEY-TYPE ORBITALS:
atom: Selected multiple-zeta basis: split     

SPLIT: Orbitals with angular momentum L= 0

SPLIT: Basis orbitals for state 2s

SPLIT: PAO cut-off radius determined from an
SPLIT: energy shift=  0.002000 Ry

   izeta = 1
                 lambda =    1.000000
                     rc =    4.243912
                 energy =   -1.758270
                kinetic =    3.286084
    potential(screened) =   -5.044353
       potential(ionic) =  -12.921184

   izeta = 2
                 rmatch =    2.187845
              splitnorm =    0.280000
                 energy =   -0.885018
                kinetic =    8.134434
    potential(screened) =   -9.019452
       potential(ionic) =  -17.710645

SPLIT: Orbitals with angular momentum L= 1

SPLIT: Basis orbitals for state 2p

SPLIT: PAO cut-off radius determined from an
SPLIT: energy shift=  0.002000 Ry

   izeta = 1
                 lambda =    1.000000
                     rc =    5.314825
                 energy =   -0.661986
                kinetic =    4.917472
    potential(screened) =   -5.579458
       potential(ionic) =  -13.236259

   izeta = 2
                 rmatch =    2.160663
              splitnorm =    0.280000
                 energy =   -0.068760
                kinetic =    9.183374
    potential(screened) =   -9.252135
       potential(ionic) =  -18.274251

POLgen: Perturbative polarization orbital with L=  2

POLgen: Polarization orbital for state 2p

   izeta = 1
                     rc =    5.314825
                 energy =    1.970580
                kinetic =    3.886128
    potential(screened) =   -1.915547
       potential(ionic) =   -7.749584
atom: Total number of Sankey-type orbitals: 13

atm_pop: Valence configuration (for local Pseudopot. screening):
 2s( 2.00)                                                            
 2p( 4.00)                                                            
Vna: chval, zval:    6.00000   6.00000

Vna:  Cut-off radius for the neutral-atom potential:   5.314825

atom: _________________________________________________________________________

prinput: Basis input ----------------------------------------------------------

PAO.BasisType split     

%block ChemicalSpeciesLabel
    1    1 H                       # Species index, atomic number, species label
    2    7 N                       # Species index, atomic number, species label
    3   14 Si                      # Species index, atomic number, species label
    4    8 O                       # Species index, atomic number, species label
%endblock ChemicalSpeciesLabel

%block PAO.Basis                 # Define Basis set
H                     1                    # Species label, number of l-shells
 n=1   0   2 P   1                   # n, l, Nzeta, Polarization, NzetaPol
   6.518      2.141   
   1.000      1.000   
N                     2                    # Species label, number of l-shells
 n=2   0   2                         # n, l, Nzeta 
   4.730      2.532   
   1.000      1.000   
 n=2   1   2 P   1                   # n, l, Nzeta, Polarization, NzetaPol
   5.924      2.532   
   1.000      1.000   
Si                    2                    # Species label, number of l-shells
 n=3   0   2                         # n, l, Nzeta 
   6.430      3.998   
   1.000      1.000   
 n=3   1   2 P   1                   # n, l, Nzeta, Polarization, NzetaPol
   8.465      4.588   
   1.000      1.000   
O                     2                    # Species label, number of l-shells
 n=2   0   2                         # n, l, Nzeta 
   4.244      2.188   
   1.000      1.000   
 n=2   1   2 P   1                   # n, l, Nzeta, Polarization, NzetaPol
   5.315      2.161   
   1.000      1.000   
%endblock PAO.Basis

prinput: ----------------------------------------------------------------------

Dumping basis to NetCDF file H.ion.nc
Dumping basis to NetCDF file N.ion.nc
Dumping basis to NetCDF file Si.ion.nc
Dumping basis to NetCDF file O.ion.nc
coor:   Atomic-coordinates input format  =     Cartesian coordinates
coor:                                          (in Angstroms)

siesta: Atomic coordinates (Bohr) and species
siesta:      4.31792  -9.81768   0.00000  1        1
siesta:      2.59711  -8.81503   0.00000  2        2
siesta:     -0.41253 -10.38326   0.00000  3        3
siesta:     -0.33040 -13.20006   0.00000  1        4
siesta:     -3.14019  -8.66630   0.00000  2        5
siesta:     -2.06030  -5.43214   0.00000  3        6
siesta:     -2.89201  -1.33728   0.00000  3        7
siesta:     -5.94160  -0.17360   0.00000  2        8
siesta:     -6.43014   1.81127   0.00000  1        9
siesta:     -7.46581  -1.44982   0.00000  1       10
siesta:     -0.33706   0.78140   0.00000  2       11
siesta:      2.82552  -0.08957   0.00000  3       12
siesta:      4.64124   2.09244   0.00000  1       13
siesta:      4.35491  -2.99662   0.00000  2       14
siesta:      2.09241  -5.37836   0.00000  3       15
siesta:      0.22666  20.36479   0.00000  1       16
siesta:     -1.30158  19.05671   0.00000  2       17
siesta:     -4.43209  20.40431   0.00000  3       18
siesta:     -4.24904  23.25917   0.00000  1       19
siesta:     -7.69405  17.86632   0.00000  3       20
siesta:    -12.14333  17.85122   0.00000  3       21
siesta:    -13.20614  19.23921  -2.27113  1       22
siesta:    -12.70989  15.05615  -0.16286  1       23
siesta:    -13.20636  18.91860   2.43425  1       24
siesta:     -5.93776  13.95350   0.00000  3       25
siesta:     -7.73199  11.51852   0.00000  4       26
siesta:     -2.55336  13.62519   0.00000  2       27
siesta:     -1.92788  11.67432   0.00000  1       28
siesta:     -0.08073  15.88256   0.00000  3       29
siesta:      2.87846  15.37753   0.00000  4       30

siesta: System type = molecule  

initatomlists: Number of atoms, orbitals, and projectors:     30   302   403

siesta: ******************** Simulation parameters ****************************
siesta:
siesta: The following are some of the parameters of the simulation.
siesta: A complete list of the parameters used, including default values,
siesta: can be found in file out.fdf
siesta:
redata: Spin configuration                          = spin-orbit
redata: Number of spin components                   = 8
redata: Time-Reversal Symmetry                      = F
redata: Spin spiral                                 = F
############################################################
This spin-orbit implementation uses a local approximation.
From 4.2 and onwards the full non-local approximation is implemented
You are strongly advised to use >=4.2 versions!
############################################################
redata: Long output                                 =   F
redata: Number of Atomic Species                    =        4
redata: Charge density info will appear in .RHO file
redata: Write Mulliken Pop.                         = NO
redata: Matel table size (NRTAB)                    =     1024
redata: Mesh Cutoff                                 =   340.0000 Ry
redata: Net charge of the system                    =     0.0000 |e|
redata: Min. number of SCF Iter                     =        1
redata: Max. number of SCF Iter                     =      200
redata: SCF mix quantity                            = Hamiltonian
redata: Mix DM or H after convergence               =   F
redata: Recompute H after scf cycle                 =   F
redata: Mix DM in first SCF step                    =   T
redata: Write Pulay info on disk                    =   F
redata: New DM Occupancy tolerance                  = 0.000000000001
redata: No kicks to SCF
redata: DM Mixing Weight for Kicks                  =     0.5000
redata: Require Harris convergence for SCF          =   F
redata: Harris energy tolerance for SCF             =     0.000100 eV
redata: Require DM convergence for SCF              =   T
redata: DM tolerance for SCF                        =     0.000008
redata: Require EDM convergence for SCF             =   F
redata: EDM tolerance for SCF                       =     0.001000 eV
redata: Require H convergence for SCF               =   T
redata: Hamiltonian tolerance for SCF               =     0.000001 eV
redata: Require (free) Energy convergence for SCF   =   F
redata: (free) Energy tolerance for SCF             =     0.000100 eV
redata: Using Saved Data (generic)                  =   F
redata: Use continuation files for DM               =   T
redata: Neglect nonoverlap interactions             =   F
redata: Method of Calculation                       = Diagonalization
redata: Electronic Temperature                      =   299.9978 K
redata: Fix the spin of the system                  =   F
redata: Dynamics option                             = Verlet MD run
redata: Initial MD time step                        =        1
redata:   Final MD time step                        =        1
redata: Length of MD time step                      =     0.5000 fs
redata: Initial Temperature of MD run               =     0.0000 K
redata: Perform a MD quench                         =   F
mix.SCF: Pulay mixing                            = Pulay
mix.SCF:    Variant                              = stable
mix.SCF:    History steps                        = 6
mix.SCF:    Linear mixing weight                 =     0.250000
mix.SCF:    Mixing weight                        =     0.250000
mix.SCF:    SVD condition                        = 0.1000E-07
mix.SCF:    Restart steps                        = 24
mix.SCF:    Restart save steps                   = 3
mix.SCF: Spin-component mixing                   all
redata: Save all siesta data in one NC              =   F
redata: ***********************************************************************

%block SCF.Mixers
  Pulay
%endblock SCF.Mixers

%block SCF.Mixer.Pulay
  # Mixing method
  method pulay
  variant stable

  # Mixing options
  weight 0.2500
  weight.linear 0.2500
  history 6
  restart 24
  restart.save 3
%endblock SCF.Mixer.Pulay

Size of DM history Fstack: 3
Total number of electrons:    98.000000
Total ionic charge:    98.000000

* ProcessorY, Blocksize:    2  24


* Orbital distribution balance (max,min):    48    24


Time-reversal symmetry not used.

siesta: k-grid: Number of k-points =     1
siesta: k-grid: Cutoff (effective) =     5.000 Ang
siesta: k-grid: Supercell and displacements
siesta: k-grid:    1   0   0      0.000
siesta: k-grid:    0   1   0      0.000
siesta: k-grid:    0   0   1      0.000

diag: Algorithm                                     = ELPA-1stage
diag: Parallel over k                               =   F
diag: Use parallel 2D distribution                  =   T
diag: Parallel block-size                           = 24
diag: Parallel distribution                         =     2 x     4
diag: Used triangular part                          = Lower
diag: Absolute tolerance                            =  0.100E-15
diag: Orthogonalization factor                      =  0.100E-05
diag: Memory factor                                 =  1.0000


ts: **************************************************************
ts: Save H and S matrices                           =    F
ts: Save DM and EDM matrices                        =    F
ts: Only save the overlap matrix S                  =    F
ts: **************************************************************

************************ Begin: TS CHECKS AND WARNINGS ************************
************************ End: TS CHECKS AND WARNINGS **************************


                     ====================================
                        Begin MD step =      1
                     ====================================

outcoor: Atomic coordinates (Ang):                          
    2.28494382   -5.19529124    0.00000000   1       1  H
    1.37433094   -4.66471070    0.00000000   2       2  N
   -0.21830245   -5.49458215    0.00000000   3       3  Si
   -0.17484108   -6.98516892    0.00000000   1       4  H
   -1.66171682   -4.58600741    0.00000000   2       5  N
   -1.09026419   -2.87456374    0.00000000   3       6  Si
   -1.53038332   -0.70765692    0.00000000   3       7  Si
   -3.14415959   -0.09186471    0.00000000   2       8  N
   -3.40268075    0.95848335    0.00000000   1       9  H
   -3.95073599   -0.76720972    0.00000000   1      10  H
   -0.17836637    0.41349951    0.00000000   2      11  N
    1.49520211   -0.04739960    0.00000000   3      12  Si
    2.45603905    1.10727302    0.00000000   1      13  H
    2.30451743   -1.58574382    0.00000000   2      14  N
    1.10725559   -2.84610319    0.00000000   3      15  Si
    0.11994209   10.77657790    0.00000000   1      16  H
   -0.68876859   10.08437202    0.00000000   2      17  N
   -2.34535843   10.79749212    0.00000000   3      18  Si
   -2.24849326   12.30821733    0.00000000   1      19  H
   -4.07151478    9.45444399    0.00000000   3      20  Si
   -6.42596903    9.44645706    0.00000000   3      21  Si
   -6.98838715   10.18094671   -1.20183078   1      22  H
   -6.72578278    7.96736593   -0.08618332   1      23  H
   -6.98849961   10.01128952    1.28814761   1      24  H
   -3.14212414    7.38387276    0.00000000   3      25  Si
   -4.09159250    6.09533663    0.00000000   4      26  O
   -1.35117927    7.21013729    0.00000000   2      27  N
   -1.02018791    6.17778031    0.00000000   1      28  H
   -0.04272105    8.40468371    0.00000000   3      29  Si
    1.52321588    8.13743686    0.00000000   4      30  O

outcell: Unit cell vectors (Ang):
       30.000000    0.000000    0.000000
        0.000000   45.000000    0.000000
        0.000000    0.000000   10.000000

outcell: Cell vector modules (Ang)   :   30.000000   45.000000   10.000000
outcell: Cell angles (23,13,12) (deg):     90.0000     90.0000     90.0000
outcell: Cell volume (Ang**3)        :  13500.0000
<dSpData1D:S at geom step 1
  <sparsity:sparsity for geom step 1
    nrows_g=302 nrows=48 sparsity=.0767 nnzs=6994, refcount: 8>
  <dData1D:(new from dSpData1D) n=6994, refcount: 1>
refcount: 1>
new_DM -- step:     1
Initializing Density Matrix...

Attempting to read DM from file... Failed...
DM filled with atomic data:
<dSpData2D:DM initialized from atoms
  <sparsity:sparsity for geom step 1
    nrows_g=302 nrows=48 sparsity=.0767 nnzs=6994, refcount: 9>
  <dData2D:DM n=6994 m=8, refcount: 1>
refcount: 1>
     spin moment: S , {S} =   56.00000   0.00000   0.00000  56.00000
No. of atoms with KB's overlaping orbs in proc 0. Max # of overlaps:      27     134

Initializing spin-orbit part of the Hamiltonian
  Adding spin-orbit effects for H 
  Adding spin-orbit effects for N 
  Adding spin-orbit effects for Si
  Adding spin-orbit effects for O 


New grid distribution:   1
           1       1:  180    1:  125    1:   15
           2       1:  180    1:  125   16:   30
           3       1:  180    1:  125   31:   45
           4       1:  180    1:  125   46:   60
           5       1:  180  126:  250    1:   15
           6       1:  180  126:  250   16:   30
           7       1:  180  126:  250   31:   45
           8       1:  180  126:  250   46:   60

InitMesh: MESH =   360 x   500 x   120 =    21600000
InitMesh: (bp) =   180 x   250 x    60 =     2700000
InitMesh: Mesh cutoff (required, used) =   340.000   341.206 Ry
ExtMesh (bp) on 0 =   288 x   225 x   123 =     7970400
New grid distribution:   2
           1       1:  158    1:   44    1:   60
           2       1:  151  233:  250    1:   60
           3       1:  158   45:   61    1:   60
           4     159:  180   45:   61    1:   60
           5       1:  151   62:  232    1:   60
           6     152:  180   62:  231    1:   60
           7     159:  180    1:   44    1:   60
           8     152:  180  232:  250    1:   60
New grid distribution:   3
           1       1:  143    1:   39    1:   60
           2       1:  146  221:  250    1:   60
           3       1:  143   40:   61    1:   60
           4     144:  180   36:   61    1:   60
           5       1:  146   62:  220    1:   60
           6     147:  180   62:  216    1:   60
           7     144:  180    1:   35    1:   60
           8     147:  180  217:  250    1:   60
Setting up quadratic distribution...
ExtMesh (bp) on 0 =   266 x   144 x   168 =     6435072
PhiOnMesh: Number of (b)points on node 0 =               417120
PhiOnMesh: nlist on node 0 =              1721843

stepf: Fermi-Dirac step function

siesta: Program's energy decomposition (eV):
siesta: Ebs     =      -624.690964
siesta: Eions   =      3553.971015
siesta: Ena     =       374.984507
siesta: Ekin    =      3171.021565
siesta: Enl     =     -2984.438141
siesta: Eso     =        -0.003883
siesta: Edftu   =         0.000000
siesta: DEna    =       129.721739
siesta: DUscf   =        75.656349
siesta: DUext   =         0.000000
siesta: Exc     =     -1168.577561
siesta: eta*DQ  =         0.000000
siesta: Emadel  =         0.000000
siesta: Emeta   =         0.000000
siesta: Emolmec =         0.000000
siesta: Ekinion =         0.000000
siesta: Eharris =     -3884.552798
siesta: Etot    =     -3955.606440
siesta: FreeEng =     -3955.609770

        iscf     Eharris(eV)        E_KS(eV)     FreeEng(eV)     dDmax    Ef(eV) dHmax(eV)
   scf:    1    -3884.552798    -3955.606440    -3955.609770  0.970511 -4.935379 21.643242
     spin moment: S , {S} =    2.02368  -0.00000  -0.00000   2.02368
timer: Routine,Calls,Time,% = IterSCF        1      17.702  30.77
   scf:    2    -3995.280054    -3988.405715    -3988.405722  0.465864 -4.248625 11.882023
     spin moment: S , {S} =    2.00009   0.00000  -0.00000   2.00009
   scf:    3    -3956.175784    -3985.001019    -3985.032769  0.422730 -4.196484 12.569904
     spin moment: S , {S} =    1.99599  -0.00000  -0.00000   1.99599
   scf:    4    -4002.383406    -3997.210656    -3997.210657  0.209541 -3.862400  6.209639
     spin moment: S , {S} =    0.00010  -0.00000   0.00000   0.00010
   scf:    5    -3998.626164    -3997.990428    -3997.990428  0.037946 -3.740920  4.055635
     spin moment: S , {S} =    0.00006  -0.00000   0.00000   0.00006
   scf:    6    -3998.799998    -3998.394031    -3998.394031  0.027239 -3.719924  1.882872
     spin moment: S , {S} =    0.00003  -0.00000   0.00000   0.00003
   scf:    7    -3998.778838    -3998.580830    -3998.580830  0.022418 -3.780096  0.773278
     spin moment: S , {S} =    0.00001  -0.00000   0.00000   0.00001
   scf:    8    -3998.710628    -3998.643611    -3998.643611  0.012321 -3.813960  0.519786
     spin moment: S , {S} =    0.00000  -0.00000   0.00000   0.00000
   scf:    9    -3998.694375    -3998.667862    -3998.667862  0.007214 -3.831366  0.411439
     spin moment: S , {S} =    0.00000  -0.00000   0.00000   0.00000
   scf:   10    -3998.729613    -3998.688093    -3998.688093  0.025087 -3.863708  0.224258
     spin moment: S , {S} =    0.00000  -0.00000  -0.00000  -0.00000
   scf:   11    -3998.694002    -3998.691219    -3998.691220  0.004257 -3.848029  0.084083
     spin moment: S , {S} =    0.00000  -0.00000  -0.00000  -0.00000
   scf:   12    -3998.692434    -3998.691859    -3998.691860  0.001183 -3.844644  0.048583
     spin moment: S , {S} =    0.00000   0.00000  -0.00000   0.00000
   scf:   13    -3998.692849    -3998.692345    -3998.692346  0.001081 -3.842341  0.026399
     spin moment: S , {S} =    0.00000   0.00000  -0.00000   0.00000
   scf:   14    -3998.692786    -3998.692557    -3998.692559  0.000818 -3.841271  0.016536
     spin moment: S , {S} =    0.00000   0.00000  -0.00000   0.00000
   scf:   15    -3998.692757    -3998.692651    -3998.692653  0.000582 -3.840884  0.009511
     spin moment: S , {S} =    0.00000   0.00000  -0.00000   0.00000
   scf:   16    -3998.692732    -3998.692688    -3998.692689  0.000445 -3.840822  0.003907
     spin moment: S , {S} =    0.00000   0.00000  -0.00000   0.00000
   scf:   17    -3998.692701    -3998.692694    -3998.692695  0.000157 -3.840987  0.002368
     spin moment: S , {S} =    0.00000   0.00000   0.00000   0.00000
   scf:   18    -3998.692701    -3998.692697    -3998.692698  0.000141 -3.841111  0.001334
     spin moment: S , {S} =    0.00000   0.00000   0.00000   0.00000
   scf:   19    -3998.692699    -3998.692698    -3998.692699  0.000086 -3.841147  0.000964
     spin moment: S , {S} =    0.00000   0.00000   0.00000   0.00000
   scf:   20    -3998.692699    -3998.692698    -3998.692700  0.000040 -3.841170  0.000652
     spin moment: S , {S} =    0.00000   0.00000   0.00000   0.00000
   scf:   21    -3998.692699    -3998.692699    -3998.692700  0.000037 -3.841181  0.000475
     spin moment: S , {S} =    0.00000   0.00000   0.00000   0.00000
   scf:   22    -3998.692699    -3998.692699    -3998.692700  0.000046 -3.841197  0.000230
     spin moment: S , {S} =    0.00000   0.00000   0.00000   0.00000
   scf:   23    -3998.692699    -3998.692699    -3998.692700  0.000022 -3.841200  0.000167
     spin moment: S , {S} =    0.00000   0.00000   0.00000   0.00000
   scf:   24    -3998.692699    -3998.692699    -3998.692700  0.000018 -3.841200  0.000086
     spin moment: S , {S} =    0.00000   0.00000   0.00000   0.00000
mix: Pulay -- resetting history
   scf:   25    -3998.692699    -3998.692699    -3998.692700  0.000013 -3.841196  0.000041
     spin moment: S , {S} =    0.00000   0.00000   0.00000   0.00000
   scf:   26    -3998.692699    -3998.692699    -3998.692700  0.000005 -3.841192  0.000024
     spin moment: S , {S} =    0.00000   0.00000   0.00000   0.00000
   scf:   27    -3998.692699    -3998.692699    -3998.692700  0.000003 -3.841192  0.000014
     spin moment: S , {S} =    0.00000   0.00000   0.00000   0.00000
   scf:   28    -3998.692699    -3998.692699    -3998.692700  0.000003 -3.841193  0.000008
     spin moment: S , {S} =    0.00000   0.00000   0.00000   0.00000
   scf:   29    -3998.692699    -3998.692699    -3998.692700  0.000001 -3.841192  0.000006
     spin moment: S , {S} =    0.00000   0.00000   0.00000   0.00000
   scf:   30    -3998.692699    -3998.692699    -3998.692700  0.000001 -3.841194  0.000003
     spin moment: S , {S} =    0.00000  -0.00000   0.00000   0.00000
   scf:   31    -3998.692699    -3998.692699    -3998.692700  0.000000 -3.841193  0.000002
     spin moment: S , {S} =    0.00000  -0.00000   0.00000  -0.00000
   scf:   32    -3998.692699    -3998.692699    -3998.692700  0.000000 -3.841194  0.000002
     spin moment: S , {S} =    0.00000  -0.00000   0.00000  -0.00000
   scf:   33    -3998.692699    -3998.692699    -3998.692700  0.000000 -3.841194  0.000001
     spin moment: S , {S} =    0.00000  -0.00000   0.00000   0.00000

SCF Convergence by DM+H criterion
max |DM_out - DM_in|         :     0.0000001452
max |H_out - H_in|      (eV) :     0.0000008113
SCF cycle converged after 33 iterations

Using DM_out to compute the final energy and forces
No. of atoms with KB's overlaping orbs in proc 0. Max # of overlaps:      27     134

siesta: E_KS(eV) =            -3998.6927

siesta: E_KS - E_eggbox =     -3998.6927
     spin moment: S , {S} =    0.00000  -0.00000   0.00000   0.00000

siesta: Atomic forces (eV/Ang):
     1    0.143070   -0.027488   -0.000000
     2   -0.034791    0.043408    0.000000
     3   -0.030950   -0.017791   -0.000000
     4    0.068503   -0.134436   -0.000000
     5    0.054139    0.005338   -0.000000
     6   -0.191336    0.018405    0.000000
     7    1.061946   -0.039346   -0.000000
     8   -0.649108    1.413932    0.000000
     9    0.167299   -1.007871   -0.000001
    10   -0.110846    0.135053    0.000000
    11   -0.188791   -0.372362    0.000001
    12   -0.280458    0.046830   -0.000000
    13   -0.122974   -0.051314    0.000000
    14    0.032057   -0.116525   -0.000000
    15    0.109564    0.095524    0.000000
    16   -0.099893   -0.030727   -0.000950
    17    0.033431   -0.078020   -0.000788
    18   -0.147854    0.038939    0.005208
    19    0.063106   -0.017599   -0.001428
    20    0.122337    0.078065   -0.001079
    21    0.056996   -0.024996   -0.007191
    22    0.045305   -0.021494    0.133503
    23    0.001358    0.067538   -0.013544
    24    0.044747    0.017591   -0.097663
    25   -0.644401   -0.411244    0.001046
    26    1.882804    2.945184    0.000489
    27    0.340785   -0.426251   -0.000556
    28   -0.142496    0.760171   -0.000073
    29    0.140533    0.171109   -0.000223
    30   -3.262042   -2.041765    0.000251
----------------------------------------
   Tot   -1.537960    1.017860    0.017003
----------------------------------------
   Max    3.262042
   Res    0.611800    sqrt( Sum f_i^2 / 3N )
----------------------------------------
   Max    3.262042    constrained

Stress tensor Voigt[x,y,z,yz,xz,xy] (kbar):        0.11        0.34       -0.01       -0.01        0.00        0.12
(Free)E + p*V (eV/cell)    -3999.9354
Target enthalpy (eV/cell)    -3998.6927

siesta: Stress tensor (static) (eV/Ang**3):
         0.000067    0.000077    0.000000
         0.000077    0.000213   -0.000004
         0.000000   -0.000004   -0.000005

siesta: Pressure (static):         -0.14748845  kBar

siesta: Stress tensor (total) (eV/Ang**3):
         0.000067    0.000077    0.000000
         0.000077    0.000213   -0.000004
         0.000000   -0.000004   -0.000005

siesta: Pressure (total):         -0.14748845  kBar

siesta: Temp_ion =       0.000 K

siesta: Eigenvalues (eV):
ik =     1
  -22.8318  -22.8318  -22.3379  -22.3379  -21.7159  -21.7159  -21.2698  -21.2698  -21.0146  -21.0146
  -20.9275  -20.9275  -19.3917  -19.3917  -19.2274  -19.2274  -18.6051  -18.6051  -15.0120  -15.0120
  -14.1000  -14.1000  -13.6408  -13.6408  -13.5601  -13.5601  -13.0651  -13.0651  -12.8825  -12.8825
  -12.5260  -12.5260  -12.1485  -12.1485  -11.8991  -11.8991  -11.6029  -11.6029  -11.4771  -11.4771
  -10.9776  -10.9776  -10.6059  -10.6059  -10.1958  -10.1958   -9.5342   -9.5342   -9.3174   -9.3174
   -9.1500   -9.1500   -9.0865   -9.0865   -9.0116   -9.0116   -8.7874   -8.7874   -8.5847   -8.5847
   -8.3815   -8.3815   -8.2305   -8.2305   -8.1257   -8.1257   -7.9942   -7.9942   -7.9122   -7.9122
   -7.7050   -7.7050   -7.3866   -7.3866   -7.2953   -7.2953   -7.2541   -7.2541   -6.8385   -6.8385
   -6.8325   -6.8325   -6.7091   -6.7091   -6.4009   -6.4009   -6.2608   -6.2608   -6.1616   -6.1616
   -5.7989   -5.7989   -5.6919   -5.6919   -5.5380   -5.5380   -4.2066   -4.2066   -3.4758   -3.4758
   -2.6886   -2.6886   -2.1920   -2.1920   -2.1644   -2.1644   -2.1079   -2.1079   -1.9773   -1.9773
   -1.9360   -1.9360   -1.7035   -1.7035   -1.6168   -1.6168   -1.5805   -1.5805   -1.3940   -1.3940
   -1.1430   -1.1430   -0.5626   -0.5626   -0.3029   -0.3029   -0.1936   -0.1936   -0.1726   -0.1726
   -0.0087   -0.0087    0.0614    0.0614    0.2597    0.2597    0.5388    0.5388    0.5835    0.5835
    0.6508    0.6508    0.7575    0.7575    1.2286    1.2286    1.2857    1.2857    1.3112    1.3112
    1.4587    1.4587    1.5796    1.5796    1.9348    1.9348    1.9689    1.9689    2.1903    2.1903
    2.4519    2.4519    2.7612    2.7612    2.8156    2.8156    2.8203    2.8203    2.8588    2.8588
    3.0896    3.0896    3.1231    3.1231    3.1603    3.1603    3.2619    3.2619    3.3263    3.3263
    3.6930    3.6930    3.9250    3.9250    4.2232    4.2232    4.2287    4.2287    4.2467    4.2467
    4.3822    4.3822    4.7020    4.7020    4.7064    4.7064    4.8143    4.8143    5.0794    5.0794
    5.0861    5.0861    5.2297    5.2297    5.5656    5.5656    5.7173    5.7173    5.7680    5.7680
    5.9057    5.9057    6.0707    6.0707    6.1760    6.1760    6.2281    6.2281    6.3366    6.3366
    6.6041    6.6041    6.6394    6.6394    6.8311    6.8311    7.0532    7.0532    7.2311    7.2311
    7.2735    7.2735    7.4965    7.4965    7.6543    7.6543    7.8588    7.8588    7.9866    7.9866
    8.0058    8.0058    8.1813    8.1813    8.3831    8.3831    8.3927    8.3927    8.6995    8.6995
    8.9498    8.9498    8.9848    8.9848    9.0359    9.0359    9.3055    9.3055    9.6209    9.6209
    9.6797    9.6797    9.8079    9.8079    9.8562    9.8562    9.9426    9.9426    9.9478    9.9478
   10.1791   10.1791   10.4766   10.4766   10.6630   10.6630   10.9520   10.9520   11.0036   11.0036
   11.3057   11.3057   11.4392   11.4392   11.6338   11.6338   11.6921   11.6921   11.7194   11.7194
   11.9378   11.9378   12.3306   12.3306   12.3467   12.3467   12.4168   12.4168   12.6360   12.6360
   12.9509   12.9509   12.9555   12.9555   13.0569   13.0569   13.2966   13.2966   13.3984   13.3984
   13.4874   13.4874   13.7541   13.7541   14.5089   14.5089   14.6619   14.6619   14.7607   14.7607
   14.8300   14.8300   14.9593   14.9593   15.1535   15.1535   16.1101   16.1101   16.5616   16.5616
   16.8161   16.8161   16.9335   16.9335   17.0279   17.0279   17.1888   17.1888   17.4646   17.4646
   18.2514   18.2514   18.2596   18.2596   18.5919   18.5919   18.7657   18.7657   18.8598   18.8598
   18.9072   18.9072   19.5477   19.5477   19.9030   19.9030   20.0267   20.0267   20.2556   20.2556
   20.7426   20.7426   21.1123   21.1123   21.2065   21.2065   21.7013   21.7013   22.2869   22.2869
   22.3345   22.3345   22.8942   22.8942   23.0020   23.0020   23.2095   23.2095   23.8418   23.8418
   24.5946   24.5946   24.8328   24.8328   24.8662   24.8662   25.8196   25.8196   25.9400   25.9400
   26.1620   26.1620   26.5633   26.5633   26.6206   26.6206   27.7754   27.7754   28.0554   28.0554
   28.4433   28.4433   28.5209   28.5209   29.2615   29.2615   29.5221   29.5221   30.4921   30.4921
   30.8139   30.8139   30.8681   30.8681   30.9659   30.9659   31.4101   31.4101   31.6666   31.6666
   31.7829   31.7829   32.0582   32.0582   32.1897   32.1897   33.4046   33.4046   33.5109   33.5109
   33.7579   33.7579   34.0943   34.0943   34.5048   34.5048   34.9150   34.9150   34.9316   34.9316
   35.5096   35.5096   36.0263   36.0263   36.1789   36.1789   37.2050   37.2050   37.5702   37.5702
   37.6080   37.6080   37.8454   37.8454   38.1672   38.1672   38.4663   38.4663   38.4985   38.4985
   39.1507   39.1507   40.2785   40.2785   40.3145   40.3145   40.7758   40.7758   41.2376   41.2376
   41.7431   41.7431   41.8973   41.8973   41.9541   41.9541   43.3349   43.3349   43.5049   43.5049
   43.9436   43.9436   44.6024   44.6024   44.8965   44.8965   44.9577   44.9577   45.2063   45.2063
   45.6422   45.6422   45.7968   45.7968   46.0214   46.0214   46.6392   46.6392   47.0571   47.0571
   47.1301   47.1301   47.4606   47.4606   48.6615   48.6615   48.8319   48.8319   49.3862   49.3862
   49.7326   49.7326   50.2437   50.2437   50.3342   50.3342   50.3484   50.3484   50.4858   50.4858
   51.7658   51.7658   52.6799   52.6799   52.7789   52.7789   53.9952   53.9952   54.3920   54.3920
   54.8735   54.8735   54.9213   54.9213   56.1009   56.1009   56.1378   56.1378   56.2418   56.2418
   56.9678   56.9678   57.7936   57.7936   58.0191   58.0191   58.4200   58.4200   59.7106   59.7106
   60.0953   60.0953   61.2580   61.2580   61.7608   61.7608   62.8757   62.8757   63.3920   63.3920
   65.3166   65.3166   65.4757   65.4757   67.0985   67.0985   67.3629   67.3629   68.4691   68.4691
   68.4768   68.4768   70.6065   70.6065   72.0337   72.0337   76.5689   76.5689   88.6895   88.6895
   91.9120   91.9120   93.1011   93.1011   95.1273   95.1273   96.5772   96.5772  100.2127  100.2127
  100.7860  100.7860  102.6158  102.6158  114.3545  114.3545  118.3865  118.3865  123.3127  123.3127
  132.5037  132.5037  138.8446  138.8446
siesta: Fermi energy =      -3.841194 eV

siesta: Program's energy decomposition (eV):
siesta: Ebs     =     -1110.421462
siesta: Eions   =      3553.971015
siesta: Ena     =       374.984507
siesta: Ekin    =      2742.962272
siesta: Enl     =     -2522.638417
siesta: Eso     =        -0.004664
siesta: Edftu   =         0.000000
siesta: DEna    =        36.867121
siesta: DUscf   =        13.895463
siesta: DUext   =         0.000000
siesta: Exc     =     -1090.787966
siesta: eta*DQ  =         0.000000
siesta: Emadel  =         0.000000
siesta: Emeta   =         0.000000
siesta: Emolmec =         0.000000
siesta: Ekinion =         0.000000
siesta: Eharris =     -3998.692699
siesta: Etot    =     -3998.692699
siesta: FreeEng =     -3998.692700

siesta: Final energy (eV):
siesta:  Band Struct. =   -1110.421462
siesta:       Kinetic =    2742.962272
siesta:       Hartree =   12312.640112
siesta:       Edftu   =       0.000000
siesta:       Eso     =      -0.004664
siesta:    Ext. field =       0.000000
siesta:   Exch.-corr. =   -1090.787966
siesta:  Ion-electron =  -27063.026544
siesta:       Ion-ion =    9099.524090
siesta:       Ekinion =       0.000000
siesta:         Total =   -3998.692699
siesta:         Fermi =      -3.841194

siesta: Atomic forces (eV/Ang):
siesta:      1    0.143070   -0.027488   -0.000000
siesta:      2   -0.034791    0.043408    0.000000
siesta:      3   -0.030950   -0.017791   -0.000000
siesta:      4    0.068503   -0.134436   -0.000000
siesta:      5    0.054139    0.005338   -0.000000
siesta:      6   -0.191336    0.018405    0.000000
siesta:      7    1.061946   -0.039346   -0.000000
siesta:      8   -0.649108    1.413932    0.000000
siesta:      9    0.167299   -1.007871   -0.000001
siesta:     10   -0.110846    0.135053    0.000000
siesta:     11   -0.188791   -0.372362    0.000001
siesta:     12   -0.280458    0.046830   -0.000000
siesta:     13   -0.122974   -0.051314    0.000000
siesta:     14    0.032057   -0.116525   -0.000000
siesta:     15    0.109564    0.095524    0.000000
siesta:     16   -0.099893   -0.030727   -0.000950
siesta:     17    0.033431   -0.078020   -0.000788
siesta:     18   -0.147854    0.038939    0.005208
siesta:     19    0.063106   -0.017599   -0.001428
siesta:     20    0.122337    0.078065   -0.001079
siesta:     21    0.056996   -0.024996   -0.007191
siesta:     22    0.045305   -0.021494    0.133503
siesta:     23    0.001358    0.067538   -0.013544
siesta:     24    0.044747    0.017591   -0.097663
siesta:     25   -0.644401   -0.411244    0.001046
siesta:     26    1.882804    2.945184    0.000489
siesta:     27    0.340785   -0.426251   -0.000556
siesta:     28   -0.142496    0.760171   -0.000073
siesta:     29    0.140533    0.171109   -0.000223
siesta:     30   -3.262042   -2.041765    0.000251
siesta: ----------------------------------------
siesta:    Tot   -1.537960    1.017860    0.017003

siesta: Stress tensor (static) (eV/Ang**3):
siesta:     0.000067    0.000077    0.000000
siesta:     0.000077    0.000213   -0.000004
siesta:     0.000000   -0.000004   -0.000005

siesta: Cell volume =      13500.000000 Ang**3

siesta: Pressure (static):
siesta:                Solid            Molecule  Units
siesta:          -0.00000100          0.00000369  Ry/Bohr**3
siesta:          -0.00009205          0.00033909  eV/Ang**3
siesta:          -0.14748845          0.54329122  kBar
(Free)E+ p_basis*V_orbitals  =       -3977.564615
(Free)Eharris+ p_basis*V_orbitals  =       -3977.564615
     spin moment: S , {S} =    0.00000  -0.00000   0.00000   0.00000

siesta: Electric dipole (a.u.)  =   -1.166310    1.570935   -0.001827
siesta: Electric dipole (Debye) =   -2.964466    3.992920   -0.004644

cite: Please see "AT.bib" for an exhaustive BiBTeX file.
cite: Please clearly indicate Siesta version in published work: v4.1.5-1-g384057250
cite: This calculation has made use of the following articles
cite: which are encouraged to be cited in a published work.
        Primary SIESTA paper
          DOI: www.doi.org/10.1088/0953-8984/14/11/302
        Spin-orbit coupling (on-site approximation)
          DOI: www.doi.org/10.1088/0953-8984/19/19/489001


WARNING: alloc-realloc-dealloc name mismatch
         Name: atomlist isa
         Size:              -120. Bytes
         Node:     0
         Subsequent mismatches will not be reported
>> End of run:   1-FEB-2024  20:36:58
Job completed
