Siesta Version  : v4.1.5-1-g384057250
Architecture    : gcc
Compiler version: GNU Fortran (Ubuntu 11.3.0-1ubuntu1~22.04) 11.3.0
Compiler flags  : mpifort -O2 -fPIC -ftree-vectorize -fallow-argument-mismatch
PP flags        : -DFC_HAVE_ABORT -DMPI -DSIESTA__FLOOK -DSIESTA__METIS -DSIESTA__MUMPS -DCDF -DNCDF -DNCDF_4 -DNCDF_PARALLEL -DSIESTA__MRRR -DSIESTA__ELPA
Libraries       : libncdf.a libfdict.a  -lflookall -ldl -lnetcdff -lnetcdf -lhdf5_hl -lhdf5 -lhdf5_fortran -lz -lscalapack-openmpi -lopenblas -lmetis -lzmumps -lcmumps -ldmumps -lmumps_common -lpord -lsmumps -lesmumps -lscotch -lscotcherr -fopenmp -lelpa
PARALLEL version
NetCDF support
NetCDF-4 support
NetCDF-4 MPI-IO support
METIS ordering support
Lua support

* Running on 4 nodes in parallel
>> Start of run:   4-JUL-2023  10:11:46

                           ***********************       
                           *  WELCOME TO SIESTA  *       
                           ***********************       

reinit: Reading from standard input
reinit: Dumped input in INPUT_TMP.33049
************************** Dump of input data file ****************************
SystemLabel      GC
NumberOfAtoms    29
NumberOfSpecies  4
%block ChemicalSpeciesLabel
    1    8  O
    2    7  N
    3   14  Si
    4    1  H
%endblock ChemicalSpeciesLabel
# Single point calculation
MD.TypeOfRun                CG
MD.Steps                    0
SCF.MustConverge            F # In case it does not. There can be 2 very close atoms
AtomicCoordinatesFormat NotScaledCartesianAng
%block AtomicCoordinatesAndAtomicSpecies
0.958671510    3.803529300    0.000000000       1
-3.038688210   0.998073330    0.000000000       2
2.066567750    1.099065770    0.000000000       2
1.029569860    -1.834680850   0.000000000       2
-2.108567660   -1.881798240   0.000000000       2
3.912411070    -1.180894430   0.000000000       2
-1.235636790   1.044983000    0.000000000       3
-0.501909240   -1.031832280   0.000000000       3
0.629463280    2.232755840    0.000000000       3
2.280054370    -0.658293540   0.000000000       3
-3.424812990   -0.662324160   0.000000000       3
2.965974160    1.682263990    0.000000000       4
-4.796229390   -1.238728480   0.000000000       4
4.096559410    -2.214148760   0.000000000       4
4.792108680    -0.529147250   0.000000000       4
-2.266861300   -2.922393730   0.000000000       4
4.084506991    4.449480865    0.000000000       3
6.009984741    5.641110195    0.000000000       3
5.545178351    1.714926495    0.000000000       3
7.616358271    4.161973085    0.000000000       3
4.186791531    2.740126175    0.000000000       2
2.505128901    5.119710355    0.000000000       2
7.198248251    2.430090175    0.000000000       2
6.318475561    7.105771555    0.000000000       4
9.108031181    4.361952545    0.000000000       4
2.320502461    6.154584085    0.000000000       4
1.613037111    4.448421625    0.000000000       4
5.535047751    0.116697975    0.000000000       1
7.974846631    1.708259975    0.000000000       4
%endblock AtomicCoordinatesAndAtomicSpecies
%include ../../../Defaults.fdf
************************** End of input data file *****************************

reinit: -----------------------------------------------------------------------
reinit: System Name: 
reinit: -----------------------------------------------------------------------
reinit: System Label: GC
reinit: -----------------------------------------------------------------------

initatom: Reading input for the pseudopotentials and atomic orbitals ----------
Species number:   1 Atomic number:    8 Label: O
Species number:   2 Atomic number:    7 Label: N
Species number:   3 Atomic number:   14 Label: Si
Species number:   4 Atomic number:    1 Label: H

Ground state valence configuration:   2s02  2p04
Reading pseudopotential information in formatted form from O.psf

Pseudopotential generated from a relativistic atomic calculation

Valence configuration for pseudopotential generation:
2s( 2.00) rc: 0.45
2p( 4.00) rc: 0.92
3d( 0.00) rc: 2.24
4f( 0.00) rc: 0.25
Ground state valence configuration:   2s02  2p03
Reading pseudopotential information in formatted form from N.psf

Pseudopotential generated from a relativistic atomic calculation

Valence configuration for pseudopotential generation:
2s( 2.00) rc: 0.94
2p( 3.00) rc: 0.59
3d( 0.00) rc: 3.46
4f( 0.00) rc: 2.47
Ground state valence configuration:   3s02  3p02
Reading pseudopotential information in formatted form from Si.psf

Pseudopotential generated from a relativistic atomic calculation

Valence configuration for pseudopotential generation:
3s( 2.00) rc: 1.67
3p( 2.00) rc: 2.04
3d( 0.00) rc: 2.89
4f( 0.00) rc: 2.49
Ground state valence configuration:   1s01
Reading pseudopotential information in formatted form from H.psf

Pseudopotential generated from a relativistic atomic calculation

Valence configuration for pseudopotential generation:
1s( 1.00) rc: 0.01
2p( 0.00) rc: 0.60
3d( 0.00) rc: 1.99
4f( 0.00) rc: 2.49
For O, standard SIESTA heuristics set lmxkb to 3
 (one more than the basis l, including polarization orbitals).
Use PS.lmax or PS.KBprojectors blocks to override.
For N, standard SIESTA heuristics set lmxkb to 3
 (one more than the basis l, including polarization orbitals).
Use PS.lmax or PS.KBprojectors blocks to override.
For Si, standard SIESTA heuristics set lmxkb to 3
 (one more than the basis l, including polarization orbitals).
Use PS.lmax or PS.KBprojectors blocks to override.
For H, standard SIESTA heuristics set lmxkb to 2
 (one more than the basis l, including polarization orbitals).
Use PS.lmax or PS.KBprojectors blocks to override.

<basis_specs>
===============================================================================
O                    Z=   8    Mass=  16.000        Charge= 0.17977+309
Lmxo=1 Lmxkb= 3    BasisType=split      Semic=F
L=0  Nsemic=0  Cnfigmx=2
          i=1  nzeta=2  polorb=0  (2s)
            splnorm:   0.28000    
               vcte:    0.0000    
               rinn:    0.0000    
               qcoe:    0.0000    
               qyuk:    0.0000    
               qwid:   0.10000E-01
                rcs:    0.0000      0.0000    
            lambdas:    1.0000      1.0000    
L=1  Nsemic=0  Cnfigmx=2
          i=1  nzeta=2  polorb=1  (2p)
            splnorm:   0.28000    
               vcte:    0.0000    
               rinn:    0.0000    
               qcoe:    0.0000    
               qyuk:    0.0000    
               qwid:   0.10000E-01
                rcs:    0.0000      0.0000    
            lambdas:    1.0000      1.0000    
-------------------------------------------------------------------------------
L=0  Nkbl=1  erefs: 0.17977+309
L=1  Nkbl=1  erefs: 0.17977+309
L=2  Nkbl=1  erefs: 0.17977+309
L=3  Nkbl=1  erefs: 0.17977+309
===============================================================================
</basis_specs>

atom: Called for O                     (Z =   8)

read_vps: Pseudopotential generation method:
read_vps: ATM4.2.7  Troullier-Martins                       
Valence charge for ps generation:    6.00000

xc_check: Exchange-correlation functional:
xc_check: GGA Perdew, Burke & Ernzerhof 1996
V l=0 = -2*Zval/r beyond r=  1.1000
V l=1 = -2*Zval/r beyond r=  1.1000
V l=2 = -2*Zval/r beyond r=  2.2154
V l=3 = -2*Zval/r beyond r=  1.1000
All V_l potentials equal beyond r=  2.2154
This should be close to max(r_c) in ps generation
All pots = -2*Zval/r beyond r=  2.2154

VLOCAL1: 99.0% of the norm of Vloc inside      8.845 Ry
VLOCAL1: 99.9% of the norm of Vloc inside     20.157 Ry
atom: Maximum radius for 4*pi*r*r*local-pseudopot. charge    2.67231
atom: Maximum radius for r*vlocal+2*Zval:    2.32897
GHOST: No ghost state for L =  0
GHOST: No ghost state for L =  1
GHOST: No ghost state for L =  2
GHOST: No ghost state for L =  3

KBgen: Kleinman-Bylander projectors: 
   l= 0   rc=  2.243238   el= -1.759686   Ekb=**********   kbcos= -0.171774
   l= 1   rc=  2.328968   el= -0.663873   Ekb=-14.506792   kbcos= -0.519897
   l= 2   rc=  2.573941   el=  0.002031   Ekb= -1.137373   kbcos= -0.019581
   l= 3   rc=  2.606321   el=  0.003153   Ekb= -1.013546   kbcos= -0.003122

KBgen: Total number of Kleinman-Bylander projectors:   16
atom: -------------------------------------------------------------------------

atom: SANKEY-TYPE ORBITALS:
atom: Selected multiple-zeta basis: split     

SPLIT: Orbitals with angular momentum L= 0

SPLIT: Basis orbitals for state 2s

SPLIT: PAO cut-off radius determined from an
SPLIT: energy shift=  0.002000 Ry

   izeta = 1
                 lambda =    1.000000
                     rc =    4.243912
                 energy =   -1.758270
                kinetic =    3.286084
    potential(screened) =   -5.044353
       potential(ionic) =  -12.921184

   izeta = 2
                 rmatch =    2.187845
              splitnorm =    0.280000
                 energy =   -0.885018
                kinetic =    8.134434
    potential(screened) =   -9.019452
       potential(ionic) =  -17.710645

SPLIT: Orbitals with angular momentum L= 1

SPLIT: Basis orbitals for state 2p

SPLIT: PAO cut-off radius determined from an
SPLIT: energy shift=  0.002000 Ry

   izeta = 1
                 lambda =    1.000000
                     rc =    5.314825
                 energy =   -0.661986
                kinetic =    4.917472
    potential(screened) =   -5.579458
       potential(ionic) =  -13.236259

   izeta = 2
                 rmatch =    2.160663
              splitnorm =    0.280000
                 energy =   -0.068760
                kinetic =    9.183374
    potential(screened) =   -9.252135
       potential(ionic) =  -18.274251

POLgen: Perturbative polarization orbital with L=  2

POLgen: Polarization orbital for state 2p

   izeta = 1
                     rc =    5.314825
                 energy =    1.970580
                kinetic =    3.886128
    potential(screened) =   -1.915547
       potential(ionic) =   -7.749584
atom: Total number of Sankey-type orbitals: 13

atm_pop: Valence configuration (for local Pseudopot. screening):
 2s( 2.00)                                                            
 2p( 4.00)                                                            
Vna: chval, zval:    6.00000   6.00000

Vna:  Cut-off radius for the neutral-atom potential:   5.314825

atom: _________________________________________________________________________

<basis_specs>
===============================================================================
N                    Z=   7    Mass=  14.010        Charge= 0.17977+309
Lmxo=1 Lmxkb= 3    BasisType=split      Semic=F
L=0  Nsemic=0  Cnfigmx=2
          i=1  nzeta=2  polorb=0  (2s)
            splnorm:   0.28000    
               vcte:    0.0000    
               rinn:    0.0000    
               qcoe:    0.0000    
               qyuk:    0.0000    
               qwid:   0.10000E-01
                rcs:    0.0000      0.0000    
            lambdas:    1.0000      1.0000    
L=1  Nsemic=0  Cnfigmx=2
          i=1  nzeta=2  polorb=1  (2p)
            splnorm:   0.28000    
               vcte:    0.0000    
               rinn:    0.0000    
               qcoe:    0.0000    
               qyuk:    0.0000    
               qwid:   0.10000E-01
                rcs:    0.0000      0.0000    
            lambdas:    1.0000      1.0000    
-------------------------------------------------------------------------------
L=0  Nkbl=1  erefs: 0.17977+309
L=1  Nkbl=1  erefs: 0.17977+309
L=2  Nkbl=1  erefs: 0.17977+309
L=3  Nkbl=1  erefs: 0.17977+309
===============================================================================
</basis_specs>

atom: Called for N                     (Z =   7)

read_vps: Pseudopotential generation method:
read_vps: ATM4.2.7  Troullier-Martins                       
Valence charge for ps generation:    5.00000

xc_check: Exchange-correlation functional:
xc_check: GGA Perdew, Burke & Ernzerhof 1996
V l=0 = -2*Zval/r beyond r=  1.2889
V l=1 = -2*Zval/r beyond r=  1.2889
V l=2 = -2*Zval/r beyond r=  3.4178
V l=3 = -2*Zval/r beyond r=  2.4084
All V_l potentials equal beyond r=  3.3753
This should be close to max(r_c) in ps generation
All pots = -2*Zval/r beyond r=  3.4178

VLOCAL1: 99.0% of the norm of Vloc inside      3.810 Ry
VLOCAL1: 99.9% of the norm of Vloc inside      8.683 Ry
atom: Maximum radius for 4*pi*r*r*local-pseudopot. charge    4.02088
atom: Maximum radius for r*vlocal+2*Zval:    3.54838
GHOST: No ghost state for L =  0
GHOST: No ghost state for L =  1
GHOST: No ghost state for L =  2
GHOST: No ghost state for L =  3

KBgen: Kleinman-Bylander projectors: 
   l= 0   rc=  3.417763   el= -1.365098   Ekb= -4.433130   kbcos= -0.707855
   l= 1   rc=  3.375302   el= -0.521201   Ekb=-13.264039   kbcos= -0.535594
   l= 2   rc=  3.872880   el=  0.001991   Ekb= -0.641094   kbcos= -0.062456
   l= 3   rc=  3.970931   el=  0.003093   Ekb= -0.474517   kbcos= -0.018236

KBgen: Total number of Kleinman-Bylander projectors:   16
atom: -------------------------------------------------------------------------

atom: SANKEY-TYPE ORBITALS:
atom: Selected multiple-zeta basis: split     

SPLIT: Orbitals with angular momentum L= 0

SPLIT: Basis orbitals for state 2s

SPLIT: PAO cut-off radius determined from an
SPLIT: energy shift=  0.002000 Ry

   izeta = 1
                 lambda =    1.000000
                     rc =    4.730425
                 energy =   -1.363399
                kinetic =    1.245246
    potential(screened) =   -2.608645
       potential(ionic) =   -8.121105

   izeta = 2
                 rmatch =    2.531849
              splitnorm =    0.280000
                 energy =   -0.959908
                kinetic =    2.409435
    potential(screened) =   -3.369343
       potential(ionic) =   -9.427975

SPLIT: Orbitals with angular momentum L= 1

SPLIT: Basis orbitals for state 2p

SPLIT: PAO cut-off radius determined from an
SPLIT: energy shift=  0.002000 Ry

   izeta = 1
                 lambda =    1.000000
                     rc =    5.924108
                 energy =   -0.519262
                kinetic =    3.672940
    potential(screened) =   -4.192202
       potential(ionic) =   -9.518354

   izeta = 2
                 rmatch =    2.531849
              splitnorm =    0.280000
                 energy =   -0.104258
                kinetic =    6.807538
    potential(screened) =   -6.911796
       potential(ionic) =  -13.149920

POLgen: Perturbative polarization orbital with L=  2

POLgen: Polarization orbital for state 2p

   izeta = 1
                     rc =    5.924108
                 energy =    1.427508
                kinetic =    2.872379
    potential(screened) =   -1.444871
       potential(ionic) =   -5.563644
atom: Total number of Sankey-type orbitals: 13

atm_pop: Valence configuration (for local Pseudopot. screening):
 2s( 2.00)                                                            
 2p( 3.00)                                                            
Vna: chval, zval:    5.00000   5.00000

Vna:  Cut-off radius for the neutral-atom potential:   5.924108

atom: _________________________________________________________________________

<basis_specs>
===============================================================================
Si                   Z=  14    Mass=  28.090        Charge= 0.17977+309
Lmxo=1 Lmxkb= 3    BasisType=split      Semic=F
L=0  Nsemic=0  Cnfigmx=3
          i=1  nzeta=2  polorb=0  (3s)
            splnorm:   0.28000    
               vcte:    0.0000    
               rinn:    0.0000    
               qcoe:    0.0000    
               qyuk:    0.0000    
               qwid:   0.10000E-01
                rcs:    0.0000      0.0000    
            lambdas:    1.0000      1.0000    
L=1  Nsemic=0  Cnfigmx=3
          i=1  nzeta=2  polorb=1  (3p)
            splnorm:   0.28000    
               vcte:    0.0000    
               rinn:    0.0000    
               qcoe:    0.0000    
               qyuk:    0.0000    
               qwid:   0.10000E-01
                rcs:    0.0000      0.0000    
            lambdas:    1.0000      1.0000    
-------------------------------------------------------------------------------
L=0  Nkbl=1  erefs: 0.17977+309
L=1  Nkbl=1  erefs: 0.17977+309
L=2  Nkbl=1  erefs: 0.17977+309
L=3  Nkbl=1  erefs: 0.17977+309
===============================================================================
</basis_specs>

atom: Called for Si                    (Z =  14)

read_vps: Pseudopotential generation method:
read_vps: ATM4.2.7  Troullier-Martins                       
Valence charge for ps generation:    4.00000

xc_check: Exchange-correlation functional:
xc_check: GGA Perdew, Burke & Ernzerhof 1996
V l=0 = -2*Zval/r beyond r=  2.7826
V l=1 = -2*Zval/r beyond r=  2.7826
V l=2 = -2*Zval/r beyond r=  2.9253
V l=3 = -2*Zval/r beyond r=  2.7826
All V_l potentials equal beyond r=  2.8530
This should be close to max(r_c) in ps generation
All pots = -2*Zval/r beyond r=  2.9253

VLOCAL1: 99.0% of the norm of Vloc inside      5.333 Ry
VLOCAL1: 99.9% of the norm of Vloc inside     12.154 Ry
atom: Maximum radius for 4*pi*r*r*local-pseudopot. charge    3.39869
atom: Maximum radius for r*vlocal+2*Zval:    2.96205
GHOST: No ghost state for L =  0
GHOST: No ghost state for L =  1
GHOST: No ghost state for L =  2
GHOST: No ghost state for L =  3

KBgen: Kleinman-Bylander projectors: 
   l= 0   rc=  3.075247   el= -0.794092   Ekb=  5.879390   kbcos=  0.167461
   l= 1   rc=  3.153101   el= -0.300068   Ekb=  2.642817   kbcos=  0.058301
   l= 2   rc=  3.273594   el=  0.001958   Ekb= -1.185135   kbcos= -0.104411
   l= 3   rc=  3.232927   el=  0.003046   Ekb= -0.497174   kbcos= -0.015889

KBgen: Total number of Kleinman-Bylander projectors:   16
atom: -------------------------------------------------------------------------

atom: SANKEY-TYPE ORBITALS:
atom: Selected multiple-zeta basis: split     

SPLIT: Orbitals with angular momentum L= 0

SPLIT: Basis orbitals for state 3s

SPLIT: PAO cut-off radius determined from an
SPLIT: energy shift=  0.002000 Ry

   izeta = 1
                 lambda =    1.000000
                     rc =    6.429618
                 energy =   -0.792283
                kinetic =    0.525293
    potential(screened) =   -1.317576
       potential(ionic) =   -3.744923

   izeta = 2
                 rmatch =    3.998416
              splitnorm =    0.280000
                 energy =   -0.583081
                kinetic =    1.069570
    potential(screened) =   -1.652651
       potential(ionic) =   -4.235185

SPLIT: Orbitals with angular momentum L= 1

SPLIT: Basis orbitals for state 3p

SPLIT: PAO cut-off radius determined from an
SPLIT: energy shift=  0.002000 Ry

   izeta = 1
                 lambda =    1.000000
                     rc =    8.464845
                 energy =   -0.298236
                kinetic =    0.785360
    potential(screened) =   -1.083596
       potential(ionic) =   -3.273779

   izeta = 2
                 rmatch =    4.587816
              splitnorm =    0.280000
                 energy =   -0.131871
                kinetic =    1.403687
    potential(screened) =   -1.535557
       potential(ionic) =   -4.015310

POLgen: Perturbative polarization orbital with L=  2

POLgen: Polarization orbital for state 3p

   izeta = 1
                     rc =    8.464845
                 energy =    0.321949
                kinetic =    1.055677
    potential(screened) =   -0.733728
       potential(ionic) =   -2.672950
atom: Total number of Sankey-type orbitals: 13

atm_pop: Valence configuration (for local Pseudopot. screening):
 3s( 2.00)                                                            
 3p( 2.00)                                                            
Vna: chval, zval:    4.00000   4.00000

Vna:  Cut-off radius for the neutral-atom potential:   8.464845

atom: _________________________________________________________________________

<basis_specs>
===============================================================================
H                    Z=   1    Mass=  1.0100        Charge= 0.17977+309
Lmxo=0 Lmxkb= 2    BasisType=split      Semic=F
L=0  Nsemic=0  Cnfigmx=1
          i=1  nzeta=2  polorb=1  (1s)
            splnorm:   0.62000    
               vcte:    0.0000    
               rinn:    0.0000    
               qcoe:    0.0000    
               qyuk:    0.0000    
               qwid:   0.10000E-01
                rcs:    0.0000      0.0000    
            lambdas:    1.0000      1.0000    
-------------------------------------------------------------------------------
L=0  Nkbl=1  erefs: 0.17977+309
L=1  Nkbl=1  erefs: 0.17977+309
L=2  Nkbl=1  erefs: 0.17977+309
===============================================================================
</basis_specs>

atom: Called for H                     (Z =   1)

read_vps: Pseudopotential generation method:
read_vps: ATM4.2.7  Troullier-Martins                       
Valence charge for ps generation:    1.00000

xc_check: Exchange-correlation functional:
xc_check: GGA Perdew, Burke & Ernzerhof 1996
V l=0 = -2*Zval/r beyond r=  0.0098
V l=1 = -2*Zval/r beyond r=  0.5817
V l=2 = -2*Zval/r beyond r=  1.9372
All V_l potentials equal beyond r=  1.9372
This should be close to max(r_c) in ps generation
All pots = -2*Zval/r beyond r=  1.9372

VLOCAL1: 99.0% of the norm of Vloc inside     11.567 Ry
VLOCAL1: 99.9% of the norm of Vloc inside     26.362 Ry
atom: Maximum radius for 4*pi*r*r*local-pseudopot. charge    2.25106
atom: Maximum radius for r*vlocal+2*Zval:    1.91306
GHOST: No ghost state for L =  0
GHOST: No ghost state for L =  1
GHOST: No ghost state for L =  2

KBgen: Kleinman-Bylander projectors: 
   l= 0   rc=  2.036604   el= -0.477180   Ekb= -6.081590   kbcos= -0.277285
   l= 1   rc=  2.195416   el=  0.001076   Ekb= -0.926943   kbcos= -0.034643
   l= 2   rc=  2.251056   el=  0.002010   Ekb= -0.130941   kbcos= -0.009788

KBgen: Total number of Kleinman-Bylander projectors:    9
atom: -------------------------------------------------------------------------

atom: SANKEY-TYPE ORBITALS:
atom: Selected multiple-zeta basis: split     

SPLIT: Orbitals with angular momentum L= 0

SPLIT: Basis orbitals for state 1s

SPLIT: PAO cut-off radius determined from an
SPLIT: energy shift=  0.002000 Ry

   izeta = 1
                 lambda =    1.000000
                     rc =    6.518340
                 energy =   -0.475305
                kinetic =    0.912139
    potential(screened) =   -1.387444
       potential(ionic) =   -1.907295

   izeta = 2
                 rmatch =    2.141150
              splitnorm =    0.620000
                 energy =    0.566467
                kinetic =    3.772856
    potential(screened) =   -3.206389
       potential(ionic) =   -3.759093

POLgen: Perturbative polarization orbital with L=  1

POLgen: Polarization orbital for state 1s

   izeta = 1
                     rc =    6.518340
                 energy =    0.533861
                kinetic =    1.121086
    potential(screened) =   -0.587225
       potential(ionic) =   -1.053027
atom: Total number of Sankey-type orbitals:  5

atm_pop: Valence configuration (for local Pseudopot. screening):
 1s( 1.00)                                                            
Vna: chval, zval:    1.00000   1.00000

Vna:  Cut-off radius for the neutral-atom potential:   6.518340

atom: _________________________________________________________________________

prinput: Basis input ----------------------------------------------------------

PAO.BasisType split     

%block ChemicalSpeciesLabel
    1    8 O                       # Species index, atomic number, species label
    2    7 N                       # Species index, atomic number, species label
    3   14 Si                      # Species index, atomic number, species label
    4    1 H                       # Species index, atomic number, species label
%endblock ChemicalSpeciesLabel

%block PAO.Basis                 # Define Basis set
O                     2                    # Species label, number of l-shells
 n=2   0   2                         # n, l, Nzeta 
   4.244      2.188   
   1.000      1.000   
 n=2   1   2 P   1                   # n, l, Nzeta, Polarization, NzetaPol
   5.315      2.161   
   1.000      1.000   
N                     2                    # Species label, number of l-shells
 n=2   0   2                         # n, l, Nzeta 
   4.730      2.532   
   1.000      1.000   
 n=2   1   2 P   1                   # n, l, Nzeta, Polarization, NzetaPol
   5.924      2.532   
   1.000      1.000   
Si                    2                    # Species label, number of l-shells
 n=3   0   2                         # n, l, Nzeta 
   6.430      3.998   
   1.000      1.000   
 n=3   1   2 P   1                   # n, l, Nzeta, Polarization, NzetaPol
   8.465      4.588   
   1.000      1.000   
H                     1                    # Species label, number of l-shells
 n=1   0   2 P   1                   # n, l, Nzeta, Polarization, NzetaPol
   6.518      2.141   
   1.000      1.000   
%endblock PAO.Basis

prinput: ----------------------------------------------------------------------

Dumping basis to NetCDF file O.ion.nc
Dumping basis to NetCDF file N.ion.nc
Dumping basis to NetCDF file Si.ion.nc
Dumping basis to NetCDF file H.ion.nc
coor:   Atomic-coordinates input format  =     Cartesian coordinates
coor:                                          (in Angstroms)

siesta: Atomic coordinates (Bohr) and species
siesta:      1.81163   7.18763   0.00000  1        1
siesta:     -5.74229   1.88609   0.00000  2        2
siesta:      3.90525   2.07693   0.00000  2        3
siesta:      1.94561  -3.46705   0.00000  2        4
siesta:     -3.98462  -3.55608   0.00000  2        5
siesta:      7.39339  -2.23157   0.00000  2        6
siesta:     -2.33502   1.97473   0.00000  3        7
siesta:     -0.94847  -1.94988   0.00000  3        8
siesta:      1.18951   4.21930   0.00000  3        9
siesta:      4.30868  -1.24399   0.00000  3       10
siesta:     -6.47196  -1.25161   0.00000  3       11
siesta:      5.60488   3.17902   0.00000  4       12
siesta:     -9.06356  -2.34086   0.00000  4       13
siesta:      7.74138  -4.18414   0.00000  4       14
siesta:      9.05578  -0.99994   0.00000  4       15
siesta:     -4.28375  -5.52253   0.00000  4       16
siesta:      7.71860   8.40830   0.00000  3       17
siesta:     11.35723  10.66016   0.00000  3       18
siesta:     10.47887   3.24074   0.00000  3       19
siesta:     14.39284   7.86499   0.00000  3       20
siesta:      7.91189   5.17809   0.00000  2       21
siesta:      4.73401   9.67485   0.00000  2       22
siesta:     13.60272   4.59221   0.00000  2       23
siesta:     11.94019  13.42797   0.00000  4       24
siesta:     17.21169   8.24290   0.00000  4       25
siesta:      4.38512  11.63048   0.00000  4       26
siesta:      3.04820   8.40630   0.00000  4       27
siesta:     10.45973   0.22053   0.00000  1       28
siesta:     15.07028   3.22814   0.00000  4       29

siesta: Automatic unit cell vectors (Ang):
siesta:   22.883269    0.000000    0.000000
siesta:    0.000000   18.619565    0.000000
siesta:    0.000000    0.000000    9.854683

siesta: System type = molecule  

initatomlists: Number of atoms, orbitals, and projectors:     29   297   394

siesta: ******************** Simulation parameters ****************************
siesta:
siesta: The following are some of the parameters of the simulation.
siesta: A complete list of the parameters used, including default values,
siesta: can be found in file out.fdf
siesta:
redata: Spin configuration                          = spin-orbit
redata: Number of spin components                   = 8
redata: Time-Reversal Symmetry                      = F
redata: Spin spiral                                 = F
############################################################
This spin-orbit implementation uses a local approximation.
From 4.2 and onwards the full non-local approximation is implemented
You are strongly advised to use >=4.2 versions!
############################################################
redata: Long output                                 =   F
redata: Number of Atomic Species                    =        4
redata: Charge density info will appear in .RHO file
redata: Write Mulliken Pop.                         = Atomic and Orbital charges
redata: Matel table size (NRTAB)                    =     1024
redata: Mesh Cutoff                                 =   340.0000 Ry
redata: Net charge of the system                    =     0.0000 |e|
redata: Min. number of SCF Iter                     =        1
redata: Max. number of SCF Iter                     =      200
redata: SCF mix quantity                            = Hamiltonian
redata: Mix DM or H after convergence               =   F
redata: Recompute H after scf cycle                 =   F
redata: Mix DM in first SCF step                    =   T
redata: Write Pulay info on disk                    =   F
redata: New DM Occupancy tolerance                  = 0.000000000001
redata: No kicks to SCF
redata: DM Mixing Weight for Kicks                  =     0.5000
redata: Require Harris convergence for SCF          =   F
redata: Harris energy tolerance for SCF             =     0.000100 eV
redata: Require DM convergence for SCF              =   T
redata: DM tolerance for SCF                        =     0.000008
redata: Require EDM convergence for SCF             =   F
redata: EDM tolerance for SCF                       =     0.001000 eV
redata: Require H convergence for SCF               =   T
redata: Hamiltonian tolerance for SCF               =     0.000001 eV
redata: Require (free) Energy convergence for SCF   =   F
redata: (free) Energy tolerance for SCF             =     0.000100 eV
redata: Using Saved Data (generic)                  =   F
redata: Use continuation files for DM               =   F
redata: Neglect nonoverlap interactions             =   F
redata: Method of Calculation                       = Diagonalization
redata: Electronic Temperature                      =   299.9978 K
redata: Fix the spin of the system                  =   F
redata: Dynamics option                             = Single-point calculation
mix.SCF: Pulay mixing                            = Pulay
mix.SCF:    Variant                              = stable
mix.SCF:    History steps                        = 6
mix.SCF:    Linear mixing weight                 =     0.250000
mix.SCF:    Mixing weight                        =     0.250000
mix.SCF:    SVD condition                        = 0.1000E-07
mix.SCF:    Restart steps                        = 24
mix.SCF:    Restart save steps                   = 3
mix.SCF: Spin-component mixing                   all
redata: Save all siesta data in one NC              =   F
redata: ***********************************************************************

%block SCF.Mixers
  Pulay
%endblock SCF.Mixers

%block SCF.Mixer.Pulay
  # Mixing method
  method pulay
  variant stable

  # Mixing options
  weight 0.2500
  weight.linear 0.2500
  history 6
  restart 24
  restart.save 3
%endblock SCF.Mixer.Pulay

DM_history_depth set to one: no extrapolation allowed by default for geometry relaxation
Size of DM history Fstack: 1
Total number of electrons:    98.000000
Total ionic charge:    98.000000

* ProcessorY, Blocksize:    2  24


* Orbital distribution balance (max,min):    81    72


Time-reversal symmetry not used.

siesta: k-grid: Number of k-points =     1
siesta: k-grid: Cutoff (effective) =     4.927 Ang
siesta: k-grid: Supercell and displacements
siesta: k-grid:    1   0   0      0.000
siesta: k-grid:    0   1   0      0.000
siesta: k-grid:    0   0   1      0.000

diag: Algorithm                                     = ELPA-1stage
diag: Parallel over k                               =   F
diag: Use parallel 2D distribution                  =   T
diag: Parallel block-size                           = 24
diag: Parallel distribution                         =     2 x     2
diag: Used triangular part                          = Lower
diag: Absolute tolerance                            =  0.100E-15
diag: Orthogonalization factor                      =  0.100E-05
diag: Memory factor                                 =  1.0000


ts: **************************************************************
ts: Save H and S matrices                           =    F
ts: Save DM and EDM matrices                        =    F
ts: Only save the overlap matrix S                  =    F
ts: **************************************************************

************************ Begin: TS CHECKS AND WARNINGS ************************
************************ End: TS CHECKS AND WARNINGS **************************


                     ====================================
                        Single-point calculation
                     ====================================

outcoor: Atomic coordinates (Ang):                          
    0.95867151    3.80352930    0.00000000   1       1  O
   -3.03868821    0.99807333    0.00000000   2       2  N
    2.06656775    1.09906577    0.00000000   2       3  N
    1.02956986   -1.83468085    0.00000000   2       4  N
   -2.10856766   -1.88179824    0.00000000   2       5  N
    3.91241107   -1.18089443    0.00000000   2       6  N
   -1.23563679    1.04498300    0.00000000   3       7  Si
   -0.50190924   -1.03183228    0.00000000   3       8  Si
    0.62946328    2.23275584    0.00000000   3       9  Si
    2.28005437   -0.65829354    0.00000000   3      10  Si
   -3.42481299   -0.66232416    0.00000000   3      11  Si
    2.96597416    1.68226399    0.00000000   4      12  H
   -4.79622939   -1.23872848    0.00000000   4      13  H
    4.09655941   -2.21414876    0.00000000   4      14  H
    4.79210868   -0.52914725    0.00000000   4      15  H
   -2.26686130   -2.92239373    0.00000000   4      16  H
    4.08450699    4.44948086    0.00000000   3      17  Si
    6.00998474    5.64111020    0.00000000   3      18  Si
    5.54517835    1.71492650    0.00000000   3      19  Si
    7.61635827    4.16197308    0.00000000   3      20  Si
    4.18679153    2.74012617    0.00000000   2      21  N
    2.50512890    5.11971035    0.00000000   2      22  N
    7.19824825    2.43009018    0.00000000   2      23  N
    6.31847556    7.10577155    0.00000000   4      24  H
    9.10803118    4.36195255    0.00000000   4      25  H
    2.32050246    6.15458408    0.00000000   4      26  H
    1.61303711    4.44842162    0.00000000   4      27  H
    5.53504775    0.11669797    0.00000000   1      28  O
    7.97484663    1.70825998    0.00000000   4      29  H

outcell: Unit cell vectors (Ang):
       22.883269    0.000000    0.000000
        0.000000   18.619565    0.000000
        0.000000    0.000000    9.854683

outcell: Cell vector modules (Ang)   :   22.883269   18.619565    9.854683
outcell: Cell angles (23,13,12) (deg):     90.0000     90.0000     90.0000
outcell: Cell volume (Ang**3)        :   4198.8491
<dSpData1D:S at geom step 0
  <sparsity:sparsity for geom step 0
    nrows_g=297 nrows=81 sparsity=.2430 nnzs=21437, refcount: 8>
  <dData1D:(new from dSpData1D) n=21437, refcount: 1>
refcount: 1>
new_DM -- step:     1
Initializing Density Matrix...
DM filled with atomic data:
<dSpData2D:DM initialized from atoms
  <sparsity:sparsity for geom step 0
    nrows_g=297 nrows=81 sparsity=.2430 nnzs=21437, refcount: 9>
  <dData2D:DM n=21437 m=8, refcount: 1>
refcount: 1>
     spin moment: S , {S} =   56.00000   0.00000   0.00000  56.00000
No. of atoms with KB's overlaping orbs in proc 0. Max # of overlaps:      29     223

Initializing spin-orbit part of the Hamiltonian
  Adding spin-orbit effects for O 
  Adding spin-orbit effects for N 
  Adding spin-orbit effects for Si
  Adding spin-orbit effects for H 


New grid distribution:   1
           1       1:  128    1:   54    1:   30
           2       1:  128    1:   54   31:   60
           3       1:  128   55:  108    1:   30
           4       1:  128   55:  108   31:   60

InitMesh: MESH =   256 x   216 x   120 =     6635520
InitMesh: (bp) =   128 x   108 x    60 =      829440
InitMesh: Mesh cutoff (required, used) =   340.000   345.896 Ry
ExtMesh (bp) on 0 =   232 x   158 x   142 =     5205152
New grid distribution:   2
           1      28:  128    1:   23    1:   60
           2       1:   27    1:   21    1:   60
           3      28:  128   24:  108    1:   60
           4       1:   27   22:  108    1:   60
New grid distribution:   3
           1      42:  128    1:   32    1:   60
           2       1:   41    1:   37    1:   60
           3      42:  128   33:  108    1:   60
           4       1:   41   38:  108    1:   60
Setting up quadratic distribution...
ExtMesh (bp) on 0 =   205 x   127 x   172 =     4478020
PhiOnMesh: Number of (b)points on node 0 =               139380
PhiOnMesh: nlist on node 0 =              2584161

stepf: Fermi-Dirac step function

siesta: Program's energy decomposition (eV):
siesta: Ebs     =      -589.028221
siesta: Eions   =      3585.165840
siesta: Ena     =       392.906613
siesta: Ekin    =      3420.043126
siesta: Enl     =     -3349.912393
siesta: Eso     =        -0.003508
siesta: Edftu   =         0.000000
siesta: DEna    =       158.177697
siesta: DUscf   =        83.855081
siesta: DUext   =         0.000000
siesta: Exc     =     -1216.108890
siesta: eta*DQ  =         0.000000
siesta: Emadel  =         0.000000
siesta: Emeta   =         0.000000
siesta: Emolmec =         0.000000
siesta: Ekinion =         0.000000
siesta: Eharris =     -3999.445062
siesta: Etot    =     -4096.208113
siesta: FreeEng =     -4096.210021

        iscf     Eharris(eV)        E_KS(eV)     FreeEng(eV)     dDmax    Ef(eV) dHmax(eV)
   scf:    1    -3999.445062    -4096.208113    -4096.210021  0.962932 -4.912256 22.329688
     spin moment: S , {S} =    2.01168  -0.00000   0.00000   2.01168
timer: Routine,Calls,Time,% = IterSCF        1      12.440  16.73
   scf:    2    -4147.542085    -4133.950514    -4133.951319  0.476103 -4.170428 10.434531
     spin moment: S , {S} =    1.99734  -0.00000  -0.00000   1.99734
   scf:    3    -4109.843277    -4131.428247    -4131.457389  0.430686 -4.157096 10.736996
     spin moment: S , {S} =    2.00013  -0.00000  -0.00000   2.00013
   scf:    4    -4145.910083    -4141.327200    -4141.327207  0.259963 -3.798435  5.511953
     spin moment: S , {S} =    0.00012  -0.00000  -0.00000   0.00012
   scf:    5    -4142.521299    -4142.053726    -4142.053726  0.043274 -3.618008  4.644666
     spin moment: S , {S} =    0.00006  -0.00000  -0.00000   0.00006
   scf:    6    -4142.995361    -4142.531040    -4142.531040  0.029642 -3.570092  2.169170
     spin moment: S , {S} =    0.00003  -0.00000   0.00000   0.00003
   scf:    7    -4142.888192    -4142.710748    -4142.710748  0.019481 -3.629032  0.832630
     spin moment: S , {S} =    0.00001   0.00000   0.00000   0.00001
   scf:    8    -4142.864400    -4142.784903    -4142.784903  0.014752 -3.737449  0.334941
     spin moment: S , {S} =    0.00000   0.00000   0.00000   0.00000
   scf:    9    -4142.820626    -4142.802218    -4142.802218  0.006929 -3.748908  0.219728
     spin moment: S , {S} =    0.00000   0.00000   0.00000   0.00000
   scf:   10    -4142.831783    -4142.815842    -4142.815842  0.009888 -3.762902  0.110399
     spin moment: S , {S} =    0.00000   0.00000   0.00000   0.00000
   scf:   11    -4142.824140    -4142.819669    -4142.819669  0.005948 -3.756611  0.059768
     spin moment: S , {S} =    0.00000   0.00000  -0.00000   0.00000
   scf:   12    -4142.822538    -4142.821011    -4142.821011  0.003480 -3.754912  0.041394
     spin moment: S , {S} =    0.00000   0.00000  -0.00000   0.00000
   scf:   13    -4142.823133    -4142.821963    -4142.821963  0.003824 -3.751954  0.031748
     spin moment: S , {S} =    0.00000  -0.00000  -0.00000   0.00000
   scf:   14    -4142.823065    -4142.822423    -4142.822423  0.003749 -3.754287  0.016584
     spin moment: S , {S} =    0.00000  -0.00000  -0.00000   0.00000
   scf:   15    -4142.822633    -4142.822514    -4142.822514  0.001656 -3.754396  0.010465
     spin moment: S , {S} =    0.00000  -0.00000  -0.00000   0.00000
   scf:   16    -4142.822596    -4142.822549    -4142.822549  0.001162 -3.754522  0.006432
     spin moment: S , {S} =    0.00000  -0.00000  -0.00000   0.00000
   scf:   17    -4142.822582    -4142.822563    -4142.822563  0.000754 -3.754587  0.003794
     spin moment: S , {S} =    0.00000  -0.00000  -0.00000   0.00000
   scf:   18    -4142.822576    -4142.822568    -4142.822568  0.000476 -3.754549  0.002217
     spin moment: S , {S} =    0.00000  -0.00000  -0.00000  -0.00000
   scf:   19    -4142.822574    -4142.822571    -4142.822571  0.000369 -3.754484  0.000735
     spin moment: S , {S} =    0.00000  -0.00000   0.00000  -0.00000
   scf:   20    -4142.822572    -4142.822571    -4142.822571  0.000136 -3.754462  0.000474
     spin moment: S , {S} =    0.00000  -0.00000   0.00000  -0.00000
   scf:   21    -4142.822571    -4142.822571    -4142.822571  0.000044 -3.754445  0.000316
     spin moment: S , {S} =    0.00000  -0.00000   0.00000  -0.00000
   scf:   22    -4142.822571    -4142.822571    -4142.822571  0.000027 -3.754436  0.000187
     spin moment: S , {S} =    0.00000  -0.00000  -0.00000  -0.00000
   scf:   23    -4142.822571    -4142.822571    -4142.822571  0.000013 -3.754434  0.000107
     spin moment: S , {S} =    0.00000  -0.00000  -0.00000  -0.00000
   scf:   24    -4142.822571    -4142.822571    -4142.822571  0.000008 -3.754432  0.000076
     spin moment: S , {S} =    0.00000  -0.00000  -0.00000  -0.00000
mix: Pulay -- resetting history
   scf:   25    -4142.822571    -4142.822571    -4142.822571  0.000007 -3.754429  0.000051
     spin moment: S , {S} =    0.00000  -0.00000  -0.00000  -0.00000
   scf:   26    -4142.822571    -4142.822571    -4142.822571  0.000003 -3.754428  0.000031
     spin moment: S , {S} =    0.00000  -0.00000  -0.00000  -0.00000
   scf:   27    -4142.822571    -4142.822571    -4142.822571  0.000002 -3.754428  0.000024
     spin moment: S , {S} =    0.00000  -0.00000  -0.00000  -0.00000
   scf:   28    -4142.822571    -4142.822571    -4142.822571  0.000003 -3.754427  0.000011
     spin moment: S , {S} =    0.00000  -0.00000  -0.00000  -0.00000
   scf:   29    -4142.822571    -4142.822571    -4142.822571  0.000001 -3.754427  0.000007
     spin moment: S , {S} =    0.00000  -0.00000  -0.00000  -0.00000
   scf:   30    -4142.822571    -4142.822571    -4142.822571  0.000001 -3.754427  0.000003
     spin moment: S , {S} =    0.00000  -0.00000  -0.00000  -0.00000
   scf:   31    -4142.822571    -4142.822571    -4142.822571  0.000001 -3.754427  0.000002
     spin moment: S , {S} =    0.00000  -0.00000  -0.00000   0.00000
   scf:   32    -4142.822571    -4142.822571    -4142.822571  0.000000 -3.754427  0.000001
     spin moment: S , {S} =    0.00000  -0.00000  -0.00000   0.00000
   scf:   33    -4142.822571    -4142.822571    -4142.822571  0.000000 -3.754427  0.000001
     spin moment: S , {S} =    0.00000  -0.00000  -0.00000   0.00000

SCF Convergence by DM+H criterion
max |DM_out - DM_in|         :     0.0000001357
max |H_out - H_in|      (eV) :     0.0000007259
SCF cycle converged after 33 iterations

Using DM_out to compute the final energy and forces
No. of atoms with KB's overlaping orbs in proc 0. Max # of overlaps:      29     223

siesta: E_KS(eV) =            -4142.8226

siesta: E_KS - E_eggbox =     -4142.8226
     spin moment: S , {S} =    0.00000  -0.00000  -0.00000   0.00000

siesta: Atomic forces (eV/Ang):
     1   -8.606548  -12.010033   -0.000000
     2   -0.054782   -0.000075   -0.000000
     3   -1.553961   -0.380766    0.000000
     4   -0.828070   -0.036007   -0.000000
     5   -0.069137    0.112173    0.000000
     6   -6.566232   -4.521337    0.000000
     7   -0.030428    0.273859    0.000000
     8    0.370565   -0.327823   -0.000000
     9   -0.187127   -1.663382    0.000000
    10    0.725297   -0.687940   -0.000000
    11    0.033413    0.010822   -0.000000
    12    0.366050    0.443998   -0.000000
    13   -0.194608    0.016870    0.000000
    14   -0.377004   -0.475712    0.000000
    15   -2.767503   -2.411014   -0.000000
    16    0.031642   -0.188327    0.000000
    17   -0.651637    1.531437    0.000000
    18    0.209349   -0.259480    0.000000
    19    0.675985    1.321823   -0.000000
    20    0.086170    0.489321    0.000000
    21    1.072057   -0.350802    0.000000
    22    7.720765    5.443760   -0.000000
    23   -0.333129   -0.492028   -0.000000
    24   -0.024213    0.067768   -0.000000
    25    0.064649   -0.057240   -0.000000
    26    0.498333    0.361755   -0.000000
    27    4.113848    4.239266   -0.000000
    28   11.084470    5.353065   -0.000000
    29   -0.071033    0.091229    0.000000
----------------------------------------
   Tot    4.737182   -4.104819    0.000000
----------------------------------------
   Max   12.010033
   Res    2.596486    sqrt( Sum f_i^2 / 3N )
----------------------------------------
   Max   12.010033    constrained

Stress tensor Voigt[x,y,z,yz,xz,xy] (kbar):      -12.06       -9.95       -0.10        0.00       -0.00      -11.25
(Free)E + p*V (eV/cell)    -4123.5038
Target enthalpy (eV/cell)    -4142.8226

mulliken: Atomic and Orbital Populations:

Species: O                   

Atom      Orb        Charge      Spin       Svec
----------------------------------------------------------------
    1  1 2s         1.55109   0.00000      0.000  -0.000  -0.000
    1  2 2s         0.13016   0.00000     -0.000   0.000   0.000
    1  3 2py        1.18594   0.00000     -0.000   0.000  -0.000
    1  4 2pz        1.67763   0.00000     -0.000   0.000  -0.000
    1  5 2px        1.58727   0.00000     -0.000   0.000   0.000
    1  6 2py        0.18861   0.00000      0.000  -0.000  -0.000
    1  7 2pz       -0.01156   0.00000     -0.000   0.000  -0.000
    1  8 2px        0.04628   0.00000      0.000   0.000  -0.000
    1  9 3Pdxy      0.01162   0.00000      0.000  -0.000  -0.000
    1 10 3Pdyz      0.00616   0.00000     -0.000  -0.000  -0.000
    1 11 3Pdz2      0.00279   0.00000     -0.000   0.000  -0.000
    1 12 3Pdxz      0.00108   0.00000     -0.000   0.000   0.000
    1 13 3Pdx2-y2   0.00441   0.00000     -0.000  -0.000   0.000
    1     Total     6.38147   0.00000     -0.000   0.000  -0.000

   28  1 2s         1.60292   0.00000     -0.000   0.000   0.000
   28  2 2s         0.10737   0.00000      0.000  -0.000  -0.000
   28  3 2py        1.16782   0.00000      0.000  -0.000   0.000
   28  4 2pz        1.66375   0.00000     -0.000  -0.000  -0.000
   28  5 2px        1.62607   0.00000      0.000  -0.000  -0.000
   28  6 2py        0.18397   0.00000     -0.000   0.000  -0.000
   28  7 2pz       -0.01512   0.00000      0.000   0.000   0.000
   28  8 2px        0.02550   0.00000     -0.000   0.000   0.000
   28  9 3Pdxy      0.01250   0.00000     -0.000   0.000   0.000
   28 10 3Pdyz      0.00729   0.00000      0.000   0.000  -0.000
   28 11 3Pdz2      0.00268   0.00000      0.000  -0.000   0.000
   28 12 3Pdxz      0.00125   0.00000     -0.000  -0.000  -0.000
   28 13 3Pdx2-y2   0.00568   0.00000      0.000  -0.000   0.000
   28     Total     6.39168   0.00000      0.000  -0.000   0.000

----------------------------------------------------------------
Total              12.77315   0.00000      0.000  -0.000  -0.000


Species: N                   

Atom      Orb        Charge      Spin       Svec
----------------------------------------------------------------
    2  1 2s         1.55199   0.00000      0.000   0.000  -0.000
    2  2 2s         0.08411   0.00000     -0.000  -0.000   0.000
    2  3 2py        1.04058   0.00000      0.000  -0.000  -0.000
    2  4 2pz        1.22486   0.00000     -0.000   0.000  -0.000
    2  5 2px        0.99030   0.00000      0.000   0.000  -0.000
    2  6 2py        0.18818   0.00000     -0.000   0.000   0.000
    2  7 2pz        0.05629   0.00000     -0.000  -0.000   0.000
    2  8 2px        0.19549   0.00000     -0.000  -0.000   0.000
    2  9 3Pdxy      0.00851   0.00000      0.000  -0.000  -0.000
    2 10 3Pdyz      0.01116   0.00000      0.000   0.000   0.000
    2 11 3Pdz2      0.00188   0.00000     -0.000  -0.000   0.000
    2 12 3Pdxz      0.00750   0.00000     -0.000   0.000   0.000
    2 13 3Pdx2-y2   0.00933   0.00000      0.000   0.000  -0.000
    2     Total     5.37019   0.00000      0.000   0.000  -0.000

    3  1 2s         1.38071   0.00000      0.000  -0.000   0.000
    3  2 2s         0.12325   0.00000     -0.000   0.000  -0.000
    3  3 2py        0.92611   0.00000     -0.000  -0.000   0.000
    3  4 2pz        1.51504   0.00000     -0.000  -0.000   0.000
    3  5 2px        1.04935   0.00000     -0.000  -0.000   0.000
    3  6 2py        0.26309   0.00000     -0.000   0.000  -0.000
    3  7 2pz        0.00744   0.00000      0.000  -0.000  -0.000
    3  8 2px        0.20154   0.00000      0.000   0.000  -0.000
    3  9 3Pdxy      0.00546   0.00000     -0.000  -0.000   0.000
    3 10 3Pdyz      0.00389   0.00000     -0.000   0.000  -0.000
    3 11 3Pdz2      0.00054   0.00000      0.000  -0.000   0.000
    3 12 3Pdxz      0.00306   0.00000      0.000  -0.000  -0.000
    3 13 3Pdx2-y2   0.00249   0.00000     -0.000  -0.000  -0.000
    3     Total     5.48197   0.00000      0.000  -0.000   0.000

    4  1 2s         1.46589   0.00000     -0.000   0.000   0.000
    4  2 2s         0.11914   0.00000      0.000  -0.000   0.000
    4  3 2py        1.12771   0.00000      0.000  -0.000   0.000
    4  4 2pz        1.27532   0.00000     -0.000  -0.000   0.000
    4  5 2px        0.82565   0.00000     -0.000  -0.000   0.000
    4  6 2py        0.15194   0.00000     -0.000   0.000  -0.000
    4  7 2pz        0.05513   0.00000     -0.000   0.000   0.000
    4  8 2px        0.29025   0.00000      0.000   0.000  -0.000
    4  9 3Pdxy      0.00861   0.00000     -0.000  -0.000   0.000
    4 10 3Pdyz      0.01053   0.00000      0.000   0.000  -0.000
    4 11 3Pdz2      0.00136   0.00000     -0.000  -0.000   0.000
    4 12 3Pdxz      0.00477   0.00000     -0.000  -0.000   0.000
    4 13 3Pdx2-y2   0.00785   0.00000      0.000   0.000   0.000
    4     Total     5.34415   0.00000      0.000  -0.000   0.000

    5  1 2s         1.37111   0.00000      0.000   0.000  -0.000
    5  2 2s         0.13017   0.00000     -0.000  -0.000  -0.000
    5  3 2py        1.02706   0.00000     -0.000  -0.000  -0.000
    5  4 2pz        1.49787   0.00000     -0.000   0.000  -0.000
    5  5 2px        1.05687   0.00000     -0.000  -0.000  -0.000
    5  6 2py        0.20588   0.00000      0.000   0.000   0.000
    5  7 2pz        0.01370   0.00000      0.000  -0.000   0.000
    5  8 2px        0.20584   0.00000      0.000   0.000   0.000
    5  9 3Pdxy      0.00383   0.00000      0.000   0.000   0.000
    5 10 3Pdyz      0.00248   0.00000      0.000  -0.000   0.000
    5 11 3Pdz2      0.00141   0.00000      0.000  -0.000   0.000
    5 12 3Pdxz      0.00632   0.00000     -0.000   0.000   0.000
    5 13 3Pdx2-y2   0.00562   0.00000      0.000   0.000  -0.000
    5     Total     5.52818   0.00000     -0.000  -0.000  -0.000

    6  1 2s         1.31537   0.00000     -0.000  -0.000  -0.000
    6  2 2s         0.16108   0.00000      0.000   0.000   0.000
    6  3 2py        1.10291   0.00000      0.000  -0.000   0.000
    6  4 2pz        1.43317   0.00000      0.000  -0.000   0.000
    6  5 2px        1.03223   0.00000      0.000   0.000   0.000
    6  6 2py        0.17489   0.00000     -0.000   0.000   0.000
    6  7 2pz        0.03950   0.00000     -0.000   0.000   0.000
    6  8 2px        0.22768   0.00000     -0.000  -0.000   0.000
    6  9 3Pdxy      0.00568   0.00000     -0.000   0.000   0.000
    6 10 3Pdyz      0.00019   0.00000     -0.000  -0.000  -0.000
    6 11 3Pdz2      0.00264   0.00000     -0.000   0.000  -0.000
    6 12 3Pdxz      0.00485   0.00000     -0.000   0.000  -0.000
    6 13 3Pdx2-y2   0.00509   0.00000      0.000   0.000  -0.000
    6     Total     5.50527   0.00000      0.000  -0.000   0.000

   21  1 2s         1.40509   0.00000      0.000   0.000   0.000
   21  2 2s         0.12429   0.00000     -0.000  -0.000  -0.000
   21  3 2py        0.91057   0.00000      0.000   0.000   0.000
   21  4 2pz        1.36594   0.00000     -0.000  -0.000   0.000
   21  5 2px        1.14579   0.00000     -0.000   0.000   0.000
   21  6 2py        0.26709   0.00000      0.000   0.000  -0.000
   21  7 2pz        0.03155   0.00000      0.000   0.000  -0.000
   21  8 2px        0.16395   0.00000     -0.000  -0.000  -0.000
   21  9 3Pdxy      0.00994   0.00000      0.000  -0.000   0.000
   21 10 3Pdyz      0.00441   0.00000     -0.000   0.000  -0.000
   21 11 3Pdz2      0.00077   0.00000     -0.000   0.000  -0.000
   21 12 3Pdxz      0.00536   0.00000     -0.000  -0.000   0.000
   21 13 3Pdx2-y2   0.00556   0.00000      0.000   0.000   0.000
   21     Total     5.44030   0.00000      0.000  -0.000   0.000

   22  1 2s         1.34243   0.00000     -0.000   0.000   0.000
   22  2 2s         0.15272   0.00000      0.000  -0.000   0.000
   22  3 2py        1.10260   0.00000     -0.000   0.000   0.000
   22  4 2pz        1.37540   0.00000     -0.000   0.000   0.000
   22  5 2px        1.07086   0.00000      0.000  -0.000   0.000
   22  6 2py        0.17745   0.00000     -0.000   0.000   0.000
   22  7 2pz        0.03901   0.00000     -0.000  -0.000  -0.000
   22  8 2px        0.19975   0.00000     -0.000   0.000  -0.000
   22  9 3Pdxy      0.00702   0.00000     -0.000  -0.000   0.000
   22 10 3Pdyz      0.00037   0.00000      0.000  -0.000  -0.000
   22 11 3Pdz2      0.00332   0.00000     -0.000  -0.000  -0.000
   22 12 3Pdxz      0.00547   0.00000     -0.000  -0.000  -0.000
   22 13 3Pdx2-y2   0.00563   0.00000      0.000   0.000  -0.000
   22     Total     5.48201   0.00000     -0.000   0.000   0.000

   23  1 2s         1.35291   0.00000      0.000  -0.000   0.000
   23  2 2s         0.13889   0.00000     -0.000   0.000  -0.000
   23  3 2py        1.01245   0.00000      0.000   0.000  -0.000
   23  4 2pz        1.54145   0.00000      0.000  -0.000  -0.000
   23  5 2px        1.02936   0.00000      0.000  -0.000  -0.000
   23  6 2py        0.21809   0.00000     -0.000  -0.000   0.000
   23  7 2pz        0.00474   0.00000     -0.000   0.000   0.000
   23  8 2px        0.21140   0.00000     -0.000  -0.000   0.000
   23  9 3Pdxy      0.00553   0.00000      0.000   0.000   0.000
   23 10 3Pdyz      0.00481   0.00000      0.000   0.000   0.000
   23 11 3Pdz2      0.00096   0.00000     -0.000   0.000   0.000
   23 12 3Pdxz      0.00240   0.00000     -0.000   0.000   0.000
   23 13 3Pdx2-y2   0.00153   0.00000      0.000   0.000  -0.000
   23     Total     5.52453   0.00000      0.000  -0.000  -0.000

----------------------------------------------------------------
Total              56.44975   0.00000      0.000   0.000   0.000


Species: Si                  

Atom      Orb        Charge      Spin       Svec
----------------------------------------------------------------
    7  1 3s         0.64814   0.00000      0.000   0.000   0.000
    7  2 3s         0.37470   0.00000     -0.000  -0.000   0.000
    7  3 3py        0.46241   0.00000      0.000   0.000   0.000
    7  4 3pz        0.68270   0.00000      0.000   0.000   0.000
    7  5 3px        0.11521   0.00000      0.000   0.000   0.000
    7  6 3py        0.28305   0.00000     -0.000  -0.000   0.000
    7  7 3pz        0.26717   0.00000     -0.000   0.000   0.000
    7  8 3px        0.44751   0.00000     -0.000  -0.000   0.000
    7  9 3Pdxy      0.25309   0.00000     -0.000  -0.000   0.000
    7 10 3Pdyz      0.02900   0.00000     -0.000   0.000  -0.000
    7 11 3Pdz2      0.01108   0.00000      0.000   0.000  -0.000
    7 12 3Pdxz      0.15542   0.00000     -0.000  -0.000  -0.000
    7 13 3Pdx2-y2   0.11218   0.00000      0.000  -0.000  -0.000
    7     Total     3.84164   0.00000      0.000   0.000   0.000

    8  1 3s         0.65292   0.00000      0.000   0.000   0.000
    8  2 3s         0.37103   0.00000     -0.000  -0.000  -0.000
    8  3 3py        0.40549   0.00000     -0.000   0.000   0.000
    8  4 3pz        0.47970   0.00000      0.000  -0.000   0.000
    8  5 3px       -0.00708   0.00000      0.000  -0.000  -0.000
    8  6 3py        0.30064   0.00000      0.000  -0.000  -0.000
    8  7 3pz        0.20816   0.00000     -0.000   0.000  -0.000
    8  8 3px        0.50966   0.00000     -0.000  -0.000   0.000
    8  9 3Pdxy      0.25187   0.00000      0.000  -0.000  -0.000
    8 10 3Pdyz      0.10936   0.00000      0.000   0.000   0.000
    8 11 3Pdz2      0.01390   0.00000     -0.000  -0.000   0.000
    8 12 3Pdxz      0.16013   0.00000     -0.000   0.000  -0.000
    8 13 3Pdx2-y2   0.20671   0.00000      0.000   0.000  -0.000
    8     Total     3.66249   0.00000      0.000   0.000  -0.000

    9  1 3s         0.60669   0.00000      0.000  -0.000  -0.000
    9  2 3s         0.36302   0.00000     -0.000   0.000  -0.000
    9  3 3py        0.17803   0.00000      0.000  -0.000  -0.000
    9  4 3pz        0.46702   0.00000     -0.000   0.000  -0.000
    9  5 3px        0.32181   0.00000     -0.000  -0.000  -0.000
    9  6 3py        0.34076   0.00000      0.000  -0.000  -0.000
    9  7 3pz        0.20530   0.00000      0.000  -0.000  -0.000
    9  8 3px        0.31485   0.00000      0.000   0.000   0.000
    9  9 3Pdxy      0.25473   0.00000     -0.000   0.000  -0.000
    9 10 3Pdyz      0.16863   0.00000      0.000   0.000  -0.000
    9 11 3Pdz2      0.01026   0.00000     -0.000  -0.000  -0.000
    9 12 3Pdxz      0.11823   0.00000      0.000  -0.000  -0.000
    9 13 3Pdx2-y2   0.19101   0.00000     -0.000   0.000   0.000
    9     Total     3.54034   0.00000     -0.000  -0.000  -0.000

   10  1 3s         0.50970   0.00000     -0.000   0.000  -0.000
   10  2 3s         0.36596   0.00000      0.000  -0.000   0.000
   10  3 3py        0.25371   0.00000     -0.000   0.000  -0.000
   10  4 3pz        0.45005   0.00000      0.000   0.000  -0.000
   10  5 3px        0.08544   0.00000      0.000   0.000  -0.000
   10  6 3py        0.31339   0.00000      0.000  -0.000  -0.000
   10  7 3pz        0.20312   0.00000     -0.000   0.000  -0.000
   10  8 3px        0.46688   0.00000     -0.000  -0.000  -0.000
   10  9 3Pdxy      0.19826   0.00000     -0.000  -0.000  -0.000
   10 10 3Pdyz      0.12219   0.00000      0.000   0.000  -0.000
   10 11 3Pdz2      0.01050   0.00000      0.000   0.000  -0.000
   10 12 3Pdxz      0.19205   0.00000     -0.000   0.000  -0.000
   10 13 3Pdx2-y2   0.31460   0.00000     -0.000   0.000  -0.000
   10     Total     3.48585   0.00000     -0.000   0.000  -0.000

   11  1 3s         0.55188   0.00000      0.000  -0.000   0.000
   11  2 3s         0.38701   0.00000     -0.000  -0.000   0.000
   11  3 3py        0.31328   0.00000      0.000  -0.000   0.000
   11  4 3pz        0.52247   0.00000     -0.000   0.000   0.000
   11  5 3px        0.13199   0.00000      0.000   0.000   0.000
   11  6 3py        0.29917   0.00000     -0.000   0.000   0.000
   11  7 3pz        0.18003   0.00000      0.000  -0.000   0.000
   11  8 3px        0.44352   0.00000     -0.000  -0.000   0.000
   11  9 3Pdxy      0.23654   0.00000     -0.000  -0.000   0.000
   11 10 3Pdyz      0.13022   0.00000     -0.000   0.000   0.000
   11 11 3Pdz2      0.01010   0.00000     -0.000  -0.000  -0.000
   11 12 3Pdxz      0.05411   0.00000      0.000  -0.000   0.000
   11 13 3Pdx2-y2   0.19923   0.00000     -0.000  -0.000   0.000
   11     Total     3.45955   0.00000      0.000  -0.000   0.000

   17  1 3s         0.64894   0.00000      0.000   0.000   0.000
   17  2 3s         0.34994   0.00000     -0.000  -0.000  -0.000
   17  3 3py        0.22407   0.00000     -0.000   0.000  -0.000
   17  4 3pz        0.45260   0.00000      0.000  -0.000  -0.000
   17  5 3px        0.21940   0.00000      0.000   0.000   0.000
   17  6 3py        0.36139   0.00000     -0.000  -0.000   0.000
   17  7 3pz        0.20746   0.00000     -0.000   0.000  -0.000
   17  8 3px        0.40158   0.00000     -0.000  -0.000  -0.000
   17  9 3Pdxy      0.26273   0.00000      0.000  -0.000   0.000
   17 10 3Pdyz      0.12137   0.00000      0.000   0.000  -0.000
   17 11 3Pdz2      0.00779   0.00000     -0.000   0.000  -0.000
   17 12 3Pdxz      0.14804   0.00000     -0.000  -0.000  -0.000
   17 13 3Pdx2-y2   0.21224   0.00000      0.000  -0.000  -0.000
   17     Total     3.61754   0.00000      0.000  -0.000  -0.000

   18  1 3s         0.75970   0.00000     -0.000  -0.000   0.000
   18  2 3s         0.33927   0.00000      0.000   0.000   0.000
   18  3 3py        0.07389   0.00000      0.000   0.000   0.000
   18  4 3pz        0.78753   0.00000      0.000  -0.000  -0.000
   18  5 3px        0.55170   0.00000     -0.000  -0.000  -0.000
   18  6 3py        0.52159   0.00000     -0.000  -0.000   0.000
   18  7 3pz        0.19033   0.00000      0.000   0.000   0.000
   18  8 3px        0.25607   0.00000      0.000   0.000   0.000
   18  9 3Pdxy      0.10580   0.00000      0.000   0.000  -0.000
   18 10 3Pdyz      0.02653   0.00000     -0.000   0.000  -0.000
   18 11 3Pdz2      0.00978   0.00000      0.000   0.000   0.000
   18 12 3Pdxz      0.03622   0.00000     -0.000   0.000  -0.000
   18 13 3Pdx2-y2   0.10553   0.00000     -0.000   0.000  -0.000
   18     Total     3.76393   0.00000     -0.000  -0.000   0.000

   19  1 3s         0.46891   0.00000      0.000   0.000  -0.000
   19  2 3s         0.35802   0.00000     -0.000   0.000   0.000
   19  3 3py        0.13274   0.00000      0.000  -0.000  -0.000
   19  4 3pz        0.36549   0.00000     -0.000   0.000  -0.000
   19  5 3px        0.19450   0.00000     -0.000  -0.000   0.000
   19  6 3py        0.39997   0.00000     -0.000   0.000   0.000
   19  7 3pz        0.21186   0.00000     -0.000   0.000  -0.000
   19  8 3px        0.34237   0.00000      0.000   0.000   0.000
   19  9 3Pdxy      0.27942   0.00000     -0.000   0.000   0.000
   19 10 3Pdyz      0.16306   0.00000      0.000   0.000   0.000
   19 11 3Pdz2      0.00861   0.00000      0.000   0.000  -0.000
   19 12 3Pdxz      0.11389   0.00000     -0.000   0.000  -0.000
   19 13 3Pdx2-y2   0.23938   0.00000     -0.000  -0.000  -0.000
   19     Total     3.27822   0.00000     -0.000   0.000  -0.000

   20  1 3s         0.69046   0.00000     -0.000  -0.000   0.000
   20  2 3s         0.37169   0.00000      0.000   0.000   0.000
   20  3 3py        0.34391   0.00000     -0.000  -0.000  -0.000
   20  4 3pz        0.63222   0.00000     -0.000   0.000   0.000
   20  5 3px        0.14652   0.00000     -0.000  -0.000   0.000
   20  6 3py        0.27480   0.00000      0.000   0.000   0.000
   20  7 3pz        0.15641   0.00000      0.000   0.000   0.000
   20  8 3px        0.49809   0.00000      0.000  -0.000  -0.000
   20  9 3Pdxy      0.09696   0.00000      0.000  -0.000  -0.000
   20 10 3Pdyz      0.12255   0.00000     -0.000  -0.000  -0.000
   20 11 3Pdz2      0.00868   0.00000     -0.000  -0.000  -0.000
   20 12 3Pdxz      0.02641   0.00000      0.000  -0.000  -0.000
   20 13 3Pdx2-y2   0.18244   0.00000      0.000   0.000   0.000
   20     Total     3.55117   0.00000     -0.000  -0.000   0.000

----------------------------------------------------------------
Total              88.65049   0.00000      0.000   0.000   0.000


Species: H                   

Atom      Orb        Charge      Spin       Svec
----------------------------------------------------------------
   12  1 1s         0.48472   0.00000      0.000   0.000  -0.000
   12  2 1s         0.17115   0.00000     -0.000  -0.000   0.000
   12  3 2Ppy       0.07374   0.00000     -0.000  -0.000  -0.000
   12  4 2Ppz       0.04230   0.00000      0.000  -0.000  -0.000
   12  5 2Ppx       0.08643   0.00000     -0.000  -0.000  -0.000
   12     Total     0.85835   0.00000     -0.000  -0.000  -0.000

   13  1 1s         1.01897   0.00000      0.000   0.000  -0.000
   13  2 1s         0.09712   0.00000     -0.000  -0.000   0.000
   13  3 2Ppy       0.01913   0.00000      0.000  -0.000  -0.000
   13  4 2Ppz       0.01987   0.00000      0.000   0.000   0.000
   13  5 2Ppx       0.03331   0.00000     -0.000  -0.000   0.000
   13     Total     1.18840   0.00000      0.000   0.000  -0.000

   14  1 1s         0.50998   0.00000     -0.000  -0.000  -0.000
   14  2 1s         0.19210   0.00000      0.000   0.000  -0.000
   14  3 2Ppy       0.02803   0.00000      0.000  -0.000  -0.000
   14  4 2Ppz       0.05044   0.00000      0.000   0.000  -0.000
   14  5 2Ppx       0.03009   0.00000     -0.000  -0.000  -0.000
   14     Total     0.81064   0.00000      0.000  -0.000  -0.000

   15  1 1s         0.26246   0.00000      0.000   0.000  -0.000
   15  2 1s         0.27281   0.00000      0.000  -0.000   0.000
   15  3 2Ppy       0.09057   0.00000     -0.000   0.000  -0.000
   15  4 2Ppz       0.08018   0.00000      0.000   0.000  -0.000
   15  5 2Ppx       0.15364   0.00000      0.000  -0.000  -0.000
   15     Total     0.85966   0.00000      0.000   0.000  -0.000

   16  1 1s         0.50277   0.00000     -0.000  -0.000   0.000
   16  2 1s         0.19061   0.00000      0.000   0.000   0.000
   16  3 2Ppy       0.02894   0.00000     -0.000  -0.000  -0.000
   16  4 2Ppz       0.03911   0.00000      0.000  -0.000  -0.000
   16  5 2Ppx       0.02408   0.00000     -0.000  -0.000   0.000
   16     Total     0.78552   0.00000     -0.000  -0.000   0.000

   24  1 1s         1.05788   0.00000     -0.000  -0.000  -0.000
   24  2 1s         0.07567   0.00000      0.000   0.000   0.000
   24  3 2Ppy       0.03090   0.00000      0.000   0.000   0.000
   24  4 2Ppz       0.02927   0.00000      0.000  -0.000  -0.000
   24  5 2Ppx       0.01792   0.00000     -0.000  -0.000  -0.000
   24     Total     1.21164   0.00000     -0.000  -0.000  -0.000

   25  1 1s         1.04572   0.00000     -0.000   0.000  -0.000
   25  2 1s         0.08544   0.00000      0.000  -0.000   0.000
   25  3 2Ppy       0.01151   0.00000      0.000   0.000  -0.000
   25  4 2Ppz       0.01956   0.00000     -0.000  -0.000  -0.000
   25  5 2Ppx       0.03567   0.00000     -0.000   0.000  -0.000
   25     Total     1.19791   0.00000     -0.000  -0.000  -0.000

   26  1 1s         0.51137   0.00000      0.000   0.000  -0.000
   26  2 1s         0.19071   0.00000     -0.000  -0.000  -0.000
   26  3 2Ppy       0.03207   0.00000      0.000  -0.000  -0.000
   26  4 2Ppz       0.04737   0.00000      0.000  -0.000  -0.000
   26  5 2Ppx       0.03167   0.00000     -0.000   0.000  -0.000
   26     Total     0.81319   0.00000      0.000  -0.000  -0.000

   27  1 1s         0.21929   0.00000      0.000   0.000  -0.000
   27  2 1s         0.29624   0.00000     -0.000  -0.000  -0.000
   27  3 2Ppy       0.10249   0.00000      0.000  -0.000  -0.000
   27  4 2Ppz       0.08504   0.00000      0.000  -0.000  -0.000
   27  5 2Ppx       0.15174   0.00000      0.000  -0.000  -0.000
   27     Total     0.85480   0.00000      0.000  -0.000  -0.000

   29  1 1s         0.49257   0.00000     -0.000   0.000   0.000
   29  2 1s         0.18769   0.00000      0.000   0.000   0.000
   29  3 2Ppy       0.02477   0.00000     -0.000  -0.000   0.000
   29  4 2Ppz       0.03536   0.00000     -0.000  -0.000  -0.000
   29  5 2Ppx       0.02900   0.00000     -0.000  -0.000   0.000
   29     Total     0.76939   0.00000     -0.000  -0.000   0.000

----------------------------------------------------------------
Total              98.00000   0.00000     -0.000  -0.000   0.000


siesta: Eigenvalues (eV):
ik =     1
  -25.1166  -25.1166  -25.0251  -25.0251  -21.7176  -21.7176  -21.2592  -21.2592  -20.7790  -20.7790
  -20.3327  -20.3327  -19.8081  -19.8081  -19.4553  -19.4553  -19.3993  -19.3993  -19.1356  -19.1356
  -14.9857  -14.9857  -14.6172  -14.6172  -14.2042  -14.2042  -13.6080  -13.6080  -13.1806  -13.1806
  -13.0987  -13.0987  -12.6098  -12.6098  -12.4149  -12.4149  -12.1574  -12.1574  -12.0699  -12.0699
  -10.9858  -10.9858  -10.7098  -10.7098  -10.5552  -10.5552  -10.2406  -10.2406   -9.9984   -9.9984
   -9.7810   -9.7810   -9.1815   -9.1815   -9.1741   -9.1741   -8.8731   -8.8731   -8.8031   -8.8031
   -8.5387   -8.5387   -8.5082   -8.5082   -8.4749   -8.4749   -8.3025   -8.3025   -8.0743   -8.0743
   -7.7796   -7.7796   -7.5829   -7.5829   -7.5075   -7.5075   -7.4582   -7.4582   -6.8674   -6.8674
   -6.7325   -6.7325   -6.3748   -6.3748   -6.2652   -6.2652   -6.0671   -6.0671   -6.0558   -6.0558
   -5.7088   -5.7088   -5.4712   -5.4712   -5.4292   -5.4292   -4.3221   -4.3221   -3.1831   -3.1831
   -2.4289   -2.4289   -2.2552   -2.2552   -2.1419   -2.1419   -2.0689   -2.0689   -1.9581   -1.9581
   -1.8643   -1.8643   -1.6279   -1.6279   -1.4793   -1.4793   -1.2249   -1.2249   -0.9514   -0.9514
   -0.8742   -0.8742   -0.6368   -0.6368   -0.3492   -0.3492   -0.2426   -0.2426    0.4619    0.4619
    0.5316    0.5316    0.5420    0.5420    0.7209    0.7209    0.9436    0.9436    1.1551    1.1551
    1.4390    1.4390    1.4501    1.4501    1.5998    1.5998    1.6820    1.6820    2.1165    2.1165
    2.3189    2.3189    2.6096    2.6096    2.6619    2.6619    2.7710    2.7710    2.9318    2.9318
    3.1377    3.1377    3.3788    3.3788    3.3927    3.3927    3.6028    3.6028    3.7866    3.7866
    4.1113    4.1113    4.1164    4.1164    4.2518    4.2518    4.3836    4.3836    4.5059    4.5059
    4.6941    4.6941    4.8304    4.8304    4.9950    4.9950    5.2189    5.2189    5.3534    5.3534
    5.4598    5.4598    5.7093    5.7093    5.8114    5.8114    5.8223    5.8223    5.9444    5.9444
    6.2831    6.2831    6.4716    6.4716    6.6082    6.6082    6.6314    6.6314    6.6380    6.6380
    7.1933    7.1933    7.1981    7.1981    7.2973    7.2973    7.5160    7.5160    7.5948    7.5948
    7.6358    7.6358    7.7875    7.7875    7.8344    7.8344    8.0866    8.0866    8.2071    8.2071
    8.3769    8.3769    8.6790    8.6790    8.7046    8.7046    8.7434    8.7434    8.9798    8.9798
    9.1026    9.1026    9.1858    9.1858    9.6535    9.6535    9.7048    9.7048    9.9908    9.9908
   10.0459   10.0459   10.1626   10.1626   10.3026   10.3026   10.6865   10.6865   10.8648   10.8648
   11.1182   11.1182   11.3894   11.3894   11.4471   11.4471   11.5506   11.5506   11.6600   11.6600
   12.2647   12.2647   12.4290   12.4290   12.5925   12.5925   12.6981   12.6981   12.8761   12.8761
   12.9538   12.9538   13.1700   13.1700   13.5545   13.5545   13.7334   13.7334   13.9373   13.9373
   14.0646   14.0646   14.4836   14.4836   14.6198   14.6198   14.8743   14.8743   14.9940   14.9940
   15.3624   15.3624   15.7389   15.7389   16.2217   16.2217   16.4474   16.4474   16.8278   16.8278
   16.8993   16.8993   17.1334   17.1334   17.3568   17.3568   17.5412   17.5412   17.9378   17.9378
   18.5511   18.5511   18.7583   18.7583   19.2126   19.2126   19.4960   19.4960   20.3230   20.3230
   20.5451   20.5451   20.8122   20.8122   21.3035   21.3035   21.5737   21.5737   22.0258   22.0258
   22.5493   22.5493   22.9403   22.9403   23.6276   23.6276   23.8690   23.8690   24.1135   24.1135
   24.5307   24.5307   24.8488   24.8488   25.1471   25.1471   25.3337   25.3337   26.0456   26.0456
   27.3033   27.3033   27.8140   27.8140   27.9515   27.9515   28.7345   28.7345   29.3170   29.3170
   29.5754   29.5754   30.0231   30.0231   30.4151   30.4151   30.5732   30.5732   30.9238   30.9238
   30.9799   30.9799   31.4034   31.4034   31.5805   31.5805   32.0208   32.0208   32.2126   32.2126
   33.4211   33.4211   33.9344   33.9344   34.3604   34.3604   35.3097   35.3097   35.4676   35.4676
   35.7542   35.7542   35.7786   35.7786   36.4557   36.4557   37.1096   37.1096   37.2739   37.2739
   37.4751   37.4751   37.9415   37.9415   38.6688   38.6688   39.1018   39.1018   39.6146   39.6146
   40.0434   40.0434   40.5795   40.5795   40.6088   40.6088   40.8270   40.8270   40.8401   40.8401
   41.2089   41.2089   42.0779   42.0779   42.6837   42.6837   42.9574   42.9574   43.1852   43.1852
   43.5326   43.5326   43.6527   43.6527   43.6850   43.6850   44.1548   44.1548   44.7963   44.7963
   45.3292   45.3292   45.5719   45.5719   45.7798   45.7798   46.0361   46.0361   46.1764   46.1764
   46.2828   46.2828   46.5824   46.5824   46.8531   46.8531   47.0777   47.0777   47.8640   47.8640
   48.4394   48.4394   49.0601   49.0601   49.3550   49.3550   49.7427   49.7427   50.4730   50.4730
   51.0071   51.0071   51.1283   51.1283   51.7327   51.7327   52.3419   52.3419   54.1539   54.1539
   54.4489   54.4489   54.6402   54.6402   55.0101   55.0101   55.4353   55.4353   55.6260   55.6260
   56.8803   56.8803   56.9084   56.9084   58.3677   58.3677   59.0782   59.0782   59.2301   59.2301
   59.2669   59.2669   59.6135   59.6135   59.6429   59.6429   60.4405   60.4405   60.8712   60.8712
   61.6923   61.6923   62.5356   62.5356   62.8685   62.8685   64.4678   64.4678   64.6580   64.6580
   67.2468   67.2468   67.5461   67.5461   68.8945   68.8945   69.3275   69.3275   69.4224   69.4224
   71.5741   71.5741   72.8504   72.8504   73.9768   73.9768   76.9269   76.9269   82.8634   82.8634
   86.8927   86.8927   87.5267   87.5267   90.0210   90.0210   91.2800   91.2800   91.7986   91.7986
   93.6979   93.6979   95.5365   95.5365   98.7147   98.7147  100.0158  100.0158  101.6219  101.6219
  103.3888  103.3888  104.3389  104.3389  106.3642  106.3642  117.7812  117.7812  120.1081  120.1081
  127.4751  127.4751  128.3789  128.3789  136.3371  136.3371  137.9192  137.9192  144.9248  144.9248
  152.2825  152.2825  154.5931  154.5931
siesta: Fermi energy =      -3.754427 eV

siesta: Program's energy decomposition (eV):
siesta: Ebs     =     -1149.596367
siesta: Eions   =      3585.165840
siesta: Ena     =       392.906613
siesta: Ekin    =      2950.654619
siesta: Enl     =     -2831.723327
siesta: Eso     =        -0.004445
siesta: Edftu   =         0.000000
siesta: DEna    =        48.558019
siesta: DUscf   =        14.336495
siesta: DUext   =         0.000000
siesta: Exc     =     -1132.384706
siesta: eta*DQ  =         0.000000
siesta: Emadel  =         0.000000
siesta: Emeta   =         0.000000
siesta: Emolmec =         0.000000
siesta: Ekinion =         0.000000
siesta: Eharris =     -4142.822571
siesta: Etot    =     -4142.822571
siesta: FreeEng =     -4142.822571

siesta: Final energy (eV):
siesta:  Band Struct. =   -1149.596367
siesta:       Kinetic =    2950.654619
siesta:       Hartree =    9498.910852
siesta:       Edftu   =       0.000000
siesta:       Eso     =      -0.004445
siesta:    Ext. field =       0.000000
siesta:   Exch.-corr. =   -1132.384706
siesta:  Ion-electron =  -21627.531721
siesta:       Ion-ion =    6167.532829
siesta:       Ekinion =       0.000000
siesta:         Total =   -4142.822571
siesta:         Fermi =      -3.754427

siesta: Atomic forces (eV/Ang):
siesta:      1   -8.606548  -12.010033   -0.000000
siesta:      2   -0.054782   -0.000075   -0.000000
siesta:      3   -1.553961   -0.380766    0.000000
siesta:      4   -0.828070   -0.036007   -0.000000
siesta:      5   -0.069137    0.112173    0.000000
siesta:      6   -6.566232   -4.521337    0.000000
siesta:      7   -0.030428    0.273859    0.000000
siesta:      8    0.370565   -0.327823   -0.000000
siesta:      9   -0.187127   -1.663382    0.000000
siesta:     10    0.725297   -0.687940   -0.000000
siesta:     11    0.033413    0.010822   -0.000000
siesta:     12    0.366050    0.443998   -0.000000
siesta:     13   -0.194608    0.016870    0.000000
siesta:     14   -0.377004   -0.475712    0.000000
siesta:     15   -2.767503   -2.411014   -0.000000
siesta:     16    0.031642   -0.188327    0.000000
siesta:     17   -0.651637    1.531437    0.000000
siesta:     18    0.209349   -0.259480    0.000000
siesta:     19    0.675985    1.321823   -0.000000
siesta:     20    0.086170    0.489321    0.000000
siesta:     21    1.072057   -0.350802    0.000000
siesta:     22    7.720765    5.443760   -0.000000
siesta:     23   -0.333129   -0.492028   -0.000000
siesta:     24   -0.024213    0.067768   -0.000000
siesta:     25    0.064649   -0.057240   -0.000000
siesta:     26    0.498333    0.361755   -0.000000
siesta:     27    4.113848    4.239266   -0.000000
siesta:     28   11.084470    5.353065   -0.000000
siesta:     29   -0.071033    0.091229    0.000000
siesta: ----------------------------------------
siesta:    Tot    4.737182   -4.104819    0.000000

siesta: Stress tensor (static) (eV/Ang**3):
siesta:    -0.007527   -0.007022   -0.000000
siesta:    -0.007022   -0.006211   -0.000000
siesta:    -0.000000    0.000000   -0.000065

siesta: Cell volume =       4198.849093 Ang**3

siesta: Pressure (static):
siesta:                Solid            Molecule  Units
siesta:           0.00005011          0.00000168  Ry/Bohr**3
siesta:           0.00460097          0.00015446  eV/Ang**3
siesta:           7.37163882          0.24746858  kBar
(Free)E+ p_basis*V_orbitals  =       -4122.972154
(Free)Eharris+ p_basis*V_orbitals  =       -4122.972154
     spin moment: S , {S} =    0.00000  -0.00000  -0.00000   0.00000

siesta: Electric dipole (a.u.)  =    1.535584    0.199538    0.000000
siesta: Electric dipole (Debye) =    3.903067    0.507176    0.000000

cite: Please see "GC.bib" for an exhaustive BiBTeX file.
cite: Please clearly indicate Siesta version in published work: v4.1.5-1-g384057250
cite: This calculation has made use of the following articles
cite: which are encouraged to be cited in a published work.
        Primary SIESTA paper
          DOI: www.doi.org/10.1088/0953-8984/14/11/302
        Spin-orbit coupling (on-site approximation)
          DOI: www.doi.org/10.1088/0953-8984/19/19/489001


WARNING: alloc-realloc-dealloc name mismatch
         Name: atomlist isa
         Size:              -116. Bytes
         Node:     0
         Subsequent mismatches will not be reported
>> End of run:   4-JUL-2023  10:16:46
Job completed
