Siesta Version  : v4.1.5-1-g384057250
Architecture    : gcc
Compiler version: GNU Fortran (Ubuntu 11.4.0-1ubuntu1~22.04) 11.4.0
Compiler flags  : mpifort -O2 -fPIC -ftree-vectorize -fallow-argument-mismatch
PP flags        : -DFC_HAVE_ABORT -DMPI -DSIESTA__FLOOK -DSIESTA__METIS -DSIESTA__MUMPS -DCDF -DNCDF -DNCDF_4 -DNCDF_PARALLEL -DSIESTA__MRRR -DSIESTA__ELPA
Libraries       : libncdf.a libfdict.a  -lflookall -ldl -lnetcdff -lnetcdf -lhdf5_hl -lhdf5 -lhdf5_fortran -lz -lscalapack-openmpi -lopenblas -lmetis -lzmumps -lcmumps -ldmumps -lmumps_common -lpord -lsmumps -lesmumps -lscotch -lscotcherr -fopenmp -lelpa
PARALLEL version
NetCDF support
NetCDF-4 support
NetCDF-4 MPI-IO support
METIS ordering support
Lua support

* Running on 8 nodes in parallel
>> Start of run:   1-FEB-2024  20:43:21

                           ***********************       
                           *  WELCOME TO SIESTA  *       
                           ***********************       

reinit: Reading from standard input
reinit: Dumped input in INPUT_TMP.72273
************************** Dump of input data file ****************************
# mpirun -np 4 siesta-4.1.5 < AT.fdf > AT.out &
SystemLabel      AT
NumberOfAtoms    30
NumberOfSpecies  4
%block ChemicalSpeciesLabel
    1    1  H
    2    7  N
    3   14  Si
    4    8  O
%endblock ChemicalSpeciesLabel
############################################
# This overrides Defaults.fdf configuration
############################################
MD.TypeOfRun                Verlet # CG, Verlet
MD.Steps                    0
MaxSCFIterations            200
SCF.MustConverge            F
AtomicCoordinatesFormat NotScaledCartesianAng
%block AtomicCoordinatesAndAtomicSpecies
    2.28494382 -5.19529124 0.0  1  1  H
    1.37433094 -4.6647107 0.0  2  2  N
    -0.21830245 -5.49458215 0.0  3  3  Si
    -0.17484108 -6.98516892 0.0  1  4  H
    -1.66171682 -4.58600741 0.0  2  5  N
    -1.09026419 -2.87456374 0.0  3  6  Si
    -1.53038332 -0.70765692 0.0  3  7  Si
    -3.14415959 -0.09186471 0.0  2  8  N
    -3.40268075 0.95848335 0.0  1  9  H
    -3.95073599 -0.76720972 0.0  1  10  H
    -0.17836637 0.41349951 0.0  2  11  N
    1.49520211 -0.0473996 0.0  3  12  Si
    2.45603905 1.10727302 0.0  1  13  H
    2.30451743 -1.58574382 0.0  2  14  N
    1.10725559 -2.84610319 0.0  3  15  Si
    0.0764406133092268 11.08859217443627 0.0  1  16  H
    -0.7322700666907732 10.396386294436269 0.0  2  17  N
    -2.388859906690773 11.10950639443627 0.0  3  18  Si
    -2.291994736690773 12.62023160443627 0.0  1  19  H
    -4.115016256690773 9.76645826443627 0.0  3  20  Si
    -6.469470506690773 9.758471334436269 0.0  3  21  Si
    -7.031888626690773 10.49296098443627 -1.20183078  1  22  H
    -6.769284256690773 8.279380204436269 -0.08618332  1  23  H
    -7.032001086690773 10.32330379443627 1.28814761  1  24  H
    -3.185625616690773 7.69588703443627 0.0  3  25  Si
    -4.135093976690773 6.407350904436269 0.0  4  26  O
    -1.3946807466907734 7.522151564436269 0.0  2  27  N
    -1.0636893866907733 6.48979458443627 0.0  1  28  H
    -0.08622252669077324 8.71669798443627 0.0  3  29  Si
    1.4797144033092267 8.44945113443627 0.0  4  30  O
%endblock AtomicCoordinatesAndAtomicSpecies
#############
# Unit Cell
#############
LatticeConstant 1.0 Ang
%block LatticeVectors
    30.00000    0.000000    0.000000
    0.000000    45.00000    0.000000
    0.000000    0.000000    10.00000
%endblock LatticeVectors
%include ../../../../Defaults.fdf
************************** End of input data file *****************************

reinit: -----------------------------------------------------------------------
reinit: System Name: 
reinit: -----------------------------------------------------------------------
reinit: System Label: AT
reinit: -----------------------------------------------------------------------

initatom: Reading input for the pseudopotentials and atomic orbitals ----------
Species number:   1 Atomic number:    1 Label: H
Species number:   2 Atomic number:    7 Label: N
Species number:   3 Atomic number:   14 Label: Si
Species number:   4 Atomic number:    8 Label: O

Ground state valence configuration:   1s01
Reading pseudopotential information in formatted form from H.psf

Pseudopotential generated from a relativistic atomic calculation

Valence configuration for pseudopotential generation:
1s( 1.00) rc: 0.01
2p( 0.00) rc: 0.60
3d( 0.00) rc: 1.99
4f( 0.00) rc: 2.49
Ground state valence configuration:   2s02  2p03
Reading pseudopotential information in formatted form from N.psf

Pseudopotential generated from a relativistic atomic calculation

Valence configuration for pseudopotential generation:
2s( 2.00) rc: 0.94
2p( 3.00) rc: 0.59
3d( 0.00) rc: 3.46
4f( 0.00) rc: 2.47
Ground state valence configuration:   3s02  3p02
Reading pseudopotential information in formatted form from Si.psf

Pseudopotential generated from a relativistic atomic calculation

Valence configuration for pseudopotential generation:
3s( 2.00) rc: 1.67
3p( 2.00) rc: 2.04
3d( 0.00) rc: 2.89
4f( 0.00) rc: 2.49
Ground state valence configuration:   2s02  2p04
Reading pseudopotential information in formatted form from O.psf

Pseudopotential generated from a relativistic atomic calculation

Valence configuration for pseudopotential generation:
2s( 2.00) rc: 0.45
2p( 4.00) rc: 0.92
3d( 0.00) rc: 2.24
4f( 0.00) rc: 0.25
For H, standard SIESTA heuristics set lmxkb to 2
 (one more than the basis l, including polarization orbitals).
Use PS.lmax or PS.KBprojectors blocks to override.
For N, standard SIESTA heuristics set lmxkb to 3
 (one more than the basis l, including polarization orbitals).
Use PS.lmax or PS.KBprojectors blocks to override.
For Si, standard SIESTA heuristics set lmxkb to 3
 (one more than the basis l, including polarization orbitals).
Use PS.lmax or PS.KBprojectors blocks to override.
For O, standard SIESTA heuristics set lmxkb to 3
 (one more than the basis l, including polarization orbitals).
Use PS.lmax or PS.KBprojectors blocks to override.

<basis_specs>
===============================================================================
H                    Z=   1    Mass=  1.0100        Charge= 0.17977+309
Lmxo=0 Lmxkb= 2    BasisType=split      Semic=F
L=0  Nsemic=0  Cnfigmx=1
          i=1  nzeta=2  polorb=1  (1s)
            splnorm:   0.62000    
               vcte:    0.0000    
               rinn:    0.0000    
               qcoe:    0.0000    
               qyuk:    0.0000    
               qwid:   0.10000E-01
                rcs:    0.0000      0.0000    
            lambdas:    1.0000      1.0000    
-------------------------------------------------------------------------------
L=0  Nkbl=1  erefs: 0.17977+309
L=1  Nkbl=1  erefs: 0.17977+309
L=2  Nkbl=1  erefs: 0.17977+309
===============================================================================
</basis_specs>

atom: Called for H                     (Z =   1)

read_vps: Pseudopotential generation method:
read_vps: ATM4.2.7  Troullier-Martins                       
Valence charge for ps generation:    1.00000

xc_check: Exchange-correlation functional:
xc_check: GGA Perdew, Burke & Ernzerhof 1996
V l=0 = -2*Zval/r beyond r=  0.0098
V l=1 = -2*Zval/r beyond r=  0.5817
V l=2 = -2*Zval/r beyond r=  1.9372
All V_l potentials equal beyond r=  1.9372
This should be close to max(r_c) in ps generation
All pots = -2*Zval/r beyond r=  1.9372

VLOCAL1: 99.0% of the norm of Vloc inside     11.567 Ry
VLOCAL1: 99.9% of the norm of Vloc inside     26.362 Ry
atom: Maximum radius for 4*pi*r*r*local-pseudopot. charge    2.25106
atom: Maximum radius for r*vlocal+2*Zval:    1.91306
GHOST: No ghost state for L =  0
GHOST: No ghost state for L =  1
GHOST: No ghost state for L =  2

KBgen: Kleinman-Bylander projectors: 
   l= 0   rc=  2.036604   el= -0.477180   Ekb= -6.081590   kbcos= -0.277285
   l= 1   rc=  2.195416   el=  0.001076   Ekb= -0.926943   kbcos= -0.034643
   l= 2   rc=  2.251056   el=  0.002010   Ekb= -0.130941   kbcos= -0.009788

KBgen: Total number of Kleinman-Bylander projectors:    9
atom: -------------------------------------------------------------------------

atom: SANKEY-TYPE ORBITALS:
atom: Selected multiple-zeta basis: split     

SPLIT: Orbitals with angular momentum L= 0

SPLIT: Basis orbitals for state 1s

SPLIT: PAO cut-off radius determined from an
SPLIT: energy shift=  0.002000 Ry

   izeta = 1
                 lambda =    1.000000
                     rc =    6.518340
                 energy =   -0.475305
                kinetic =    0.912139
    potential(screened) =   -1.387444
       potential(ionic) =   -1.907295

   izeta = 2
                 rmatch =    2.141150
              splitnorm =    0.620000
                 energy =    0.566467
                kinetic =    3.772856
    potential(screened) =   -3.206389
       potential(ionic) =   -3.759093

POLgen: Perturbative polarization orbital with L=  1

POLgen: Polarization orbital for state 1s

   izeta = 1
                     rc =    6.518340
                 energy =    0.533861
                kinetic =    1.121086
    potential(screened) =   -0.587225
       potential(ionic) =   -1.053027
atom: Total number of Sankey-type orbitals:  5

atm_pop: Valence configuration (for local Pseudopot. screening):
 1s( 1.00)                                                            
Vna: chval, zval:    1.00000   1.00000

Vna:  Cut-off radius for the neutral-atom potential:   6.518340

atom: _________________________________________________________________________

<basis_specs>
===============================================================================
N                    Z=   7    Mass=  14.010        Charge= 0.17977+309
Lmxo=1 Lmxkb= 3    BasisType=split      Semic=F
L=0  Nsemic=0  Cnfigmx=2
          i=1  nzeta=2  polorb=0  (2s)
            splnorm:   0.28000    
               vcte:    0.0000    
               rinn:    0.0000    
               qcoe:    0.0000    
               qyuk:    0.0000    
               qwid:   0.10000E-01
                rcs:    0.0000      0.0000    
            lambdas:    1.0000      1.0000    
L=1  Nsemic=0  Cnfigmx=2
          i=1  nzeta=2  polorb=1  (2p)
            splnorm:   0.28000    
               vcte:    0.0000    
               rinn:    0.0000    
               qcoe:    0.0000    
               qyuk:    0.0000    
               qwid:   0.10000E-01
                rcs:    0.0000      0.0000    
            lambdas:    1.0000      1.0000    
-------------------------------------------------------------------------------
L=0  Nkbl=1  erefs: 0.17977+309
L=1  Nkbl=1  erefs: 0.17977+309
L=2  Nkbl=1  erefs: 0.17977+309
L=3  Nkbl=1  erefs: 0.17977+309
===============================================================================
</basis_specs>

atom: Called for N                     (Z =   7)

read_vps: Pseudopotential generation method:
read_vps: ATM4.2.7  Troullier-Martins                       
Valence charge for ps generation:    5.00000

xc_check: Exchange-correlation functional:
xc_check: GGA Perdew, Burke & Ernzerhof 1996
V l=0 = -2*Zval/r beyond r=  1.2889
V l=1 = -2*Zval/r beyond r=  1.2889
V l=2 = -2*Zval/r beyond r=  3.4178
V l=3 = -2*Zval/r beyond r=  2.4084
All V_l potentials equal beyond r=  3.3753
This should be close to max(r_c) in ps generation
All pots = -2*Zval/r beyond r=  3.4178

VLOCAL1: 99.0% of the norm of Vloc inside      3.810 Ry
VLOCAL1: 99.9% of the norm of Vloc inside      8.683 Ry
atom: Maximum radius for 4*pi*r*r*local-pseudopot. charge    4.02088
atom: Maximum radius for r*vlocal+2*Zval:    3.54838
GHOST: No ghost state for L =  0
GHOST: No ghost state for L =  1
GHOST: No ghost state for L =  2
GHOST: No ghost state for L =  3

KBgen: Kleinman-Bylander projectors: 
   l= 0   rc=  3.417763   el= -1.365098   Ekb= -4.433130   kbcos= -0.707855
   l= 1   rc=  3.375302   el= -0.521201   Ekb=-13.264039   kbcos= -0.535594
   l= 2   rc=  3.872880   el=  0.001991   Ekb= -0.641094   kbcos= -0.062456
   l= 3   rc=  3.970931   el=  0.003093   Ekb= -0.474517   kbcos= -0.018236

KBgen: Total number of Kleinman-Bylander projectors:   16
atom: -------------------------------------------------------------------------

atom: SANKEY-TYPE ORBITALS:
atom: Selected multiple-zeta basis: split     

SPLIT: Orbitals with angular momentum L= 0

SPLIT: Basis orbitals for state 2s

SPLIT: PAO cut-off radius determined from an
SPLIT: energy shift=  0.002000 Ry

   izeta = 1
                 lambda =    1.000000
                     rc =    4.730425
                 energy =   -1.363399
                kinetic =    1.245246
    potential(screened) =   -2.608645
       potential(ionic) =   -8.121105

   izeta = 2
                 rmatch =    2.531849
              splitnorm =    0.280000
                 energy =   -0.959908
                kinetic =    2.409435
    potential(screened) =   -3.369343
       potential(ionic) =   -9.427975

SPLIT: Orbitals with angular momentum L= 1

SPLIT: Basis orbitals for state 2p

SPLIT: PAO cut-off radius determined from an
SPLIT: energy shift=  0.002000 Ry

   izeta = 1
                 lambda =    1.000000
                     rc =    5.924108
                 energy =   -0.519262
                kinetic =    3.672940
    potential(screened) =   -4.192202
       potential(ionic) =   -9.518354

   izeta = 2
                 rmatch =    2.531849
              splitnorm =    0.280000
                 energy =   -0.104258
                kinetic =    6.807538
    potential(screened) =   -6.911796
       potential(ionic) =  -13.149920

POLgen: Perturbative polarization orbital with L=  2

POLgen: Polarization orbital for state 2p

   izeta = 1
                     rc =    5.924108
                 energy =    1.427508
                kinetic =    2.872379
    potential(screened) =   -1.444871
       potential(ionic) =   -5.563644
atom: Total number of Sankey-type orbitals: 13

atm_pop: Valence configuration (for local Pseudopot. screening):
 2s( 2.00)                                                            
 2p( 3.00)                                                            
Vna: chval, zval:    5.00000   5.00000

Vna:  Cut-off radius for the neutral-atom potential:   5.924108

atom: _________________________________________________________________________

<basis_specs>
===============================================================================
Si                   Z=  14    Mass=  28.090        Charge= 0.17977+309
Lmxo=1 Lmxkb= 3    BasisType=split      Semic=F
L=0  Nsemic=0  Cnfigmx=3
          i=1  nzeta=2  polorb=0  (3s)
            splnorm:   0.28000    
               vcte:    0.0000    
               rinn:    0.0000    
               qcoe:    0.0000    
               qyuk:    0.0000    
               qwid:   0.10000E-01
                rcs:    0.0000      0.0000    
            lambdas:    1.0000      1.0000    
L=1  Nsemic=0  Cnfigmx=3
          i=1  nzeta=2  polorb=1  (3p)
            splnorm:   0.28000    
               vcte:    0.0000    
               rinn:    0.0000    
               qcoe:    0.0000    
               qyuk:    0.0000    
               qwid:   0.10000E-01
                rcs:    0.0000      0.0000    
            lambdas:    1.0000      1.0000    
-------------------------------------------------------------------------------
L=0  Nkbl=1  erefs: 0.17977+309
L=1  Nkbl=1  erefs: 0.17977+309
L=2  Nkbl=1  erefs: 0.17977+309
L=3  Nkbl=1  erefs: 0.17977+309
===============================================================================
</basis_specs>

atom: Called for Si                    (Z =  14)

read_vps: Pseudopotential generation method:
read_vps: ATM4.2.7  Troullier-Martins                       
Valence charge for ps generation:    4.00000

xc_check: Exchange-correlation functional:
xc_check: GGA Perdew, Burke & Ernzerhof 1996
V l=0 = -2*Zval/r beyond r=  2.7826
V l=1 = -2*Zval/r beyond r=  2.7826
V l=2 = -2*Zval/r beyond r=  2.9253
V l=3 = -2*Zval/r beyond r=  2.7826
All V_l potentials equal beyond r=  2.8530
This should be close to max(r_c) in ps generation
All pots = -2*Zval/r beyond r=  2.9253

VLOCAL1: 99.0% of the norm of Vloc inside      5.333 Ry
VLOCAL1: 99.9% of the norm of Vloc inside     12.154 Ry
atom: Maximum radius for 4*pi*r*r*local-pseudopot. charge    3.39869
atom: Maximum radius for r*vlocal+2*Zval:    2.96205
GHOST: No ghost state for L =  0
GHOST: No ghost state for L =  1
GHOST: No ghost state for L =  2
GHOST: No ghost state for L =  3

KBgen: Kleinman-Bylander projectors: 
   l= 0   rc=  3.075247   el= -0.794092   Ekb=  5.879390   kbcos=  0.167461
   l= 1   rc=  3.153101   el= -0.300068   Ekb=  2.642817   kbcos=  0.058301
   l= 2   rc=  3.273594   el=  0.001958   Ekb= -1.185135   kbcos= -0.104411
   l= 3   rc=  3.232927   el=  0.003046   Ekb= -0.497174   kbcos= -0.015889

KBgen: Total number of Kleinman-Bylander projectors:   16
atom: -------------------------------------------------------------------------

atom: SANKEY-TYPE ORBITALS:
atom: Selected multiple-zeta basis: split     

SPLIT: Orbitals with angular momentum L= 0

SPLIT: Basis orbitals for state 3s

SPLIT: PAO cut-off radius determined from an
SPLIT: energy shift=  0.002000 Ry

   izeta = 1
                 lambda =    1.000000
                     rc =    6.429618
                 energy =   -0.792283
                kinetic =    0.525293
    potential(screened) =   -1.317576
       potential(ionic) =   -3.744923

   izeta = 2
                 rmatch =    3.998416
              splitnorm =    0.280000
                 energy =   -0.583081
                kinetic =    1.069570
    potential(screened) =   -1.652651
       potential(ionic) =   -4.235185

SPLIT: Orbitals with angular momentum L= 1

SPLIT: Basis orbitals for state 3p

SPLIT: PAO cut-off radius determined from an
SPLIT: energy shift=  0.002000 Ry

   izeta = 1
                 lambda =    1.000000
                     rc =    8.464845
                 energy =   -0.298236
                kinetic =    0.785360
    potential(screened) =   -1.083596
       potential(ionic) =   -3.273779

   izeta = 2
                 rmatch =    4.587816
              splitnorm =    0.280000
                 energy =   -0.131871
                kinetic =    1.403687
    potential(screened) =   -1.535557
       potential(ionic) =   -4.015310

POLgen: Perturbative polarization orbital with L=  2

POLgen: Polarization orbital for state 3p

   izeta = 1
                     rc =    8.464845
                 energy =    0.321949
                kinetic =    1.055677
    potential(screened) =   -0.733728
       potential(ionic) =   -2.672950
atom: Total number of Sankey-type orbitals: 13

atm_pop: Valence configuration (for local Pseudopot. screening):
 3s( 2.00)                                                            
 3p( 2.00)                                                            
Vna: chval, zval:    4.00000   4.00000

Vna:  Cut-off radius for the neutral-atom potential:   8.464845

atom: _________________________________________________________________________

<basis_specs>
===============================================================================
O                    Z=   8    Mass=  16.000        Charge= 0.17977+309
Lmxo=1 Lmxkb= 3    BasisType=split      Semic=F
L=0  Nsemic=0  Cnfigmx=2
          i=1  nzeta=2  polorb=0  (2s)
            splnorm:   0.28000    
               vcte:    0.0000    
               rinn:    0.0000    
               qcoe:    0.0000    
               qyuk:    0.0000    
               qwid:   0.10000E-01
                rcs:    0.0000      0.0000    
            lambdas:    1.0000      1.0000    
L=1  Nsemic=0  Cnfigmx=2
          i=1  nzeta=2  polorb=1  (2p)
            splnorm:   0.28000    
               vcte:    0.0000    
               rinn:    0.0000    
               qcoe:    0.0000    
               qyuk:    0.0000    
               qwid:   0.10000E-01
                rcs:    0.0000      0.0000    
            lambdas:    1.0000      1.0000    
-------------------------------------------------------------------------------
L=0  Nkbl=1  erefs: 0.17977+309
L=1  Nkbl=1  erefs: 0.17977+309
L=2  Nkbl=1  erefs: 0.17977+309
L=3  Nkbl=1  erefs: 0.17977+309
===============================================================================
</basis_specs>

atom: Called for O                     (Z =   8)

read_vps: Pseudopotential generation method:
read_vps: ATM4.2.7  Troullier-Martins                       
Valence charge for ps generation:    6.00000

xc_check: Exchange-correlation functional:
xc_check: GGA Perdew, Burke & Ernzerhof 1996
V l=0 = -2*Zval/r beyond r=  1.1000
V l=1 = -2*Zval/r beyond r=  1.1000
V l=2 = -2*Zval/r beyond r=  2.2154
V l=3 = -2*Zval/r beyond r=  1.1000
All V_l potentials equal beyond r=  2.2154
This should be close to max(r_c) in ps generation
All pots = -2*Zval/r beyond r=  2.2154

VLOCAL1: 99.0% of the norm of Vloc inside      8.845 Ry
VLOCAL1: 99.9% of the norm of Vloc inside     20.157 Ry
atom: Maximum radius for 4*pi*r*r*local-pseudopot. charge    2.67231
atom: Maximum radius for r*vlocal+2*Zval:    2.32897
GHOST: No ghost state for L =  0
GHOST: No ghost state for L =  1
GHOST: No ghost state for L =  2
GHOST: No ghost state for L =  3

KBgen: Kleinman-Bylander projectors: 
   l= 0   rc=  2.243238   el= -1.759686   Ekb=**********   kbcos= -0.171774
   l= 1   rc=  2.328968   el= -0.663873   Ekb=-14.506792   kbcos= -0.519897
   l= 2   rc=  2.573941   el=  0.002031   Ekb= -1.137373   kbcos= -0.019581
   l= 3   rc=  2.606321   el=  0.003153   Ekb= -1.013546   kbcos= -0.003122

KBgen: Total number of Kleinman-Bylander projectors:   16
atom: -------------------------------------------------------------------------

atom: SANKEY-TYPE ORBITALS:
atom: Selected multiple-zeta basis: split     

SPLIT: Orbitals with angular momentum L= 0

SPLIT: Basis orbitals for state 2s

SPLIT: PAO cut-off radius determined from an
SPLIT: energy shift=  0.002000 Ry

   izeta = 1
                 lambda =    1.000000
                     rc =    4.243912
                 energy =   -1.758270
                kinetic =    3.286084
    potential(screened) =   -5.044353
       potential(ionic) =  -12.921184

   izeta = 2
                 rmatch =    2.187845
              splitnorm =    0.280000
                 energy =   -0.885018
                kinetic =    8.134434
    potential(screened) =   -9.019452
       potential(ionic) =  -17.710645

SPLIT: Orbitals with angular momentum L= 1

SPLIT: Basis orbitals for state 2p

SPLIT: PAO cut-off radius determined from an
SPLIT: energy shift=  0.002000 Ry

   izeta = 1
                 lambda =    1.000000
                     rc =    5.314825
                 energy =   -0.661986
                kinetic =    4.917472
    potential(screened) =   -5.579458
       potential(ionic) =  -13.236259

   izeta = 2
                 rmatch =    2.160663
              splitnorm =    0.280000
                 energy =   -0.068760
                kinetic =    9.183374
    potential(screened) =   -9.252135
       potential(ionic) =  -18.274251

POLgen: Perturbative polarization orbital with L=  2

POLgen: Polarization orbital for state 2p

   izeta = 1
                     rc =    5.314825
                 energy =    1.970580
                kinetic =    3.886128
    potential(screened) =   -1.915547
       potential(ionic) =   -7.749584
atom: Total number of Sankey-type orbitals: 13

atm_pop: Valence configuration (for local Pseudopot. screening):
 2s( 2.00)                                                            
 2p( 4.00)                                                            
Vna: chval, zval:    6.00000   6.00000

Vna:  Cut-off radius for the neutral-atom potential:   5.314825

atom: _________________________________________________________________________

prinput: Basis input ----------------------------------------------------------

PAO.BasisType split     

%block ChemicalSpeciesLabel
    1    1 H                       # Species index, atomic number, species label
    2    7 N                       # Species index, atomic number, species label
    3   14 Si                      # Species index, atomic number, species label
    4    8 O                       # Species index, atomic number, species label
%endblock ChemicalSpeciesLabel

%block PAO.Basis                 # Define Basis set
H                     1                    # Species label, number of l-shells
 n=1   0   2 P   1                   # n, l, Nzeta, Polarization, NzetaPol
   6.518      2.141   
   1.000      1.000   
N                     2                    # Species label, number of l-shells
 n=2   0   2                         # n, l, Nzeta 
   4.730      2.532   
   1.000      1.000   
 n=2   1   2 P   1                   # n, l, Nzeta, Polarization, NzetaPol
   5.924      2.532   
   1.000      1.000   
Si                    2                    # Species label, number of l-shells
 n=3   0   2                         # n, l, Nzeta 
   6.430      3.998   
   1.000      1.000   
 n=3   1   2 P   1                   # n, l, Nzeta, Polarization, NzetaPol
   8.465      4.588   
   1.000      1.000   
O                     2                    # Species label, number of l-shells
 n=2   0   2                         # n, l, Nzeta 
   4.244      2.188   
   1.000      1.000   
 n=2   1   2 P   1                   # n, l, Nzeta, Polarization, NzetaPol
   5.315      2.161   
   1.000      1.000   
%endblock PAO.Basis

prinput: ----------------------------------------------------------------------

Dumping basis to NetCDF file H.ion.nc
Dumping basis to NetCDF file N.ion.nc
Dumping basis to NetCDF file Si.ion.nc
Dumping basis to NetCDF file O.ion.nc
coor:   Atomic-coordinates input format  =     Cartesian coordinates
coor:                                          (in Angstroms)

siesta: Atomic coordinates (Bohr) and species
siesta:      4.31792  -9.81768   0.00000  1        1
siesta:      2.59711  -8.81503   0.00000  2        2
siesta:     -0.41253 -10.38326   0.00000  3        3
siesta:     -0.33040 -13.20006   0.00000  1        4
siesta:     -3.14019  -8.66630   0.00000  2        5
siesta:     -2.06030  -5.43214   0.00000  3        6
siesta:     -2.89201  -1.33728   0.00000  3        7
siesta:     -5.94160  -0.17360   0.00000  2        8
siesta:     -6.43014   1.81127   0.00000  1        9
siesta:     -7.46581  -1.44982   0.00000  1       10
siesta:     -0.33706   0.78140   0.00000  2       11
siesta:      2.82552  -0.08957   0.00000  3       12
siesta:      4.64124   2.09244   0.00000  1       13
siesta:      4.35491  -2.99662   0.00000  2       14
siesta:      2.09241  -5.37836   0.00000  3       15
siesta:      0.14445  20.95441   0.00000  1       16
siesta:     -1.38379  19.64633   0.00000  2       17
siesta:     -4.51429  20.99393   0.00000  3       18
siesta:     -4.33124  23.84879   0.00000  1       19
siesta:     -7.77626  18.45594   0.00000  3       20
siesta:    -12.22553  18.44085   0.00000  3       21
siesta:    -13.28835  19.82883  -2.27113  1       22
siesta:    -12.79210  15.64577  -0.16286  1       23
siesta:    -13.28856  19.50822   2.43425  1       24
siesta:     -6.01996  14.54312   0.00000  3       25
siesta:     -7.81420  12.10814   0.00000  4       26
siesta:     -2.63557  14.21481   0.00000  2       27
siesta:     -2.01008  12.26394   0.00000  1       28
siesta:     -0.16294  16.47218   0.00000  3       29
siesta:      2.79626  15.96715   0.00000  4       30

siesta: System type = molecule  

initatomlists: Number of atoms, orbitals, and projectors:     30   302   403

siesta: ******************** Simulation parameters ****************************
siesta:
siesta: The following are some of the parameters of the simulation.
siesta: A complete list of the parameters used, including default values,
siesta: can be found in file out.fdf
siesta:
redata: Spin configuration                          = spin-orbit
redata: Number of spin components                   = 8
redata: Time-Reversal Symmetry                      = F
redata: Spin spiral                                 = F
############################################################
This spin-orbit implementation uses a local approximation.
From 4.2 and onwards the full non-local approximation is implemented
You are strongly advised to use >=4.2 versions!
############################################################
redata: Long output                                 =   F
redata: Number of Atomic Species                    =        4
redata: Charge density info will appear in .RHO file
redata: Write Mulliken Pop.                         = NO
redata: Matel table size (NRTAB)                    =     1024
redata: Mesh Cutoff                                 =   340.0000 Ry
redata: Net charge of the system                    =     0.0000 |e|
redata: Min. number of SCF Iter                     =        1
redata: Max. number of SCF Iter                     =      200
redata: SCF mix quantity                            = Hamiltonian
redata: Mix DM or H after convergence               =   F
redata: Recompute H after scf cycle                 =   F
redata: Mix DM in first SCF step                    =   T
redata: Write Pulay info on disk                    =   F
redata: New DM Occupancy tolerance                  = 0.000000000001
redata: No kicks to SCF
redata: DM Mixing Weight for Kicks                  =     0.5000
redata: Require Harris convergence for SCF          =   F
redata: Harris energy tolerance for SCF             =     0.000100 eV
redata: Require DM convergence for SCF              =   T
redata: DM tolerance for SCF                        =     0.000008
redata: Require EDM convergence for SCF             =   F
redata: EDM tolerance for SCF                       =     0.001000 eV
redata: Require H convergence for SCF               =   T
redata: Hamiltonian tolerance for SCF               =     0.000001 eV
redata: Require (free) Energy convergence for SCF   =   F
redata: (free) Energy tolerance for SCF             =     0.000100 eV
redata: Using Saved Data (generic)                  =   F
redata: Use continuation files for DM               =   T
redata: Neglect nonoverlap interactions             =   F
redata: Method of Calculation                       = Diagonalization
redata: Electronic Temperature                      =   299.9978 K
redata: Fix the spin of the system                  =   F
redata: Dynamics option                             = Verlet MD run
redata: Initial MD time step                        =        1
redata:   Final MD time step                        =        1
redata: Length of MD time step                      =     0.5000 fs
redata: Initial Temperature of MD run               =     0.0000 K
redata: Perform a MD quench                         =   F
mix.SCF: Pulay mixing                            = Pulay
mix.SCF:    Variant                              = stable
mix.SCF:    History steps                        = 6
mix.SCF:    Linear mixing weight                 =     0.250000
mix.SCF:    Mixing weight                        =     0.250000
mix.SCF:    SVD condition                        = 0.1000E-07
mix.SCF:    Restart steps                        = 24
mix.SCF:    Restart save steps                   = 3
mix.SCF: Spin-component mixing                   all
redata: Save all siesta data in one NC              =   F
redata: ***********************************************************************

%block SCF.Mixers
  Pulay
%endblock SCF.Mixers

%block SCF.Mixer.Pulay
  # Mixing method
  method pulay
  variant stable

  # Mixing options
  weight 0.2500
  weight.linear 0.2500
  history 6
  restart 24
  restart.save 3
%endblock SCF.Mixer.Pulay

Size of DM history Fstack: 3
Total number of electrons:    98.000000
Total ionic charge:    98.000000

* ProcessorY, Blocksize:    2  24


* Orbital distribution balance (max,min):    48    24


Time-reversal symmetry not used.

siesta: k-grid: Number of k-points =     1
siesta: k-grid: Cutoff (effective) =     5.000 Ang
siesta: k-grid: Supercell and displacements
siesta: k-grid:    1   0   0      0.000
siesta: k-grid:    0   1   0      0.000
siesta: k-grid:    0   0   1      0.000

diag: Algorithm                                     = ELPA-1stage
diag: Parallel over k                               =   F
diag: Use parallel 2D distribution                  =   T
diag: Parallel block-size                           = 24
diag: Parallel distribution                         =     2 x     4
diag: Used triangular part                          = Lower
diag: Absolute tolerance                            =  0.100E-15
diag: Orthogonalization factor                      =  0.100E-05
diag: Memory factor                                 =  1.0000


ts: **************************************************************
ts: Save H and S matrices                           =    F
ts: Save DM and EDM matrices                        =    F
ts: Only save the overlap matrix S                  =    F
ts: **************************************************************

************************ Begin: TS CHECKS AND WARNINGS ************************
************************ End: TS CHECKS AND WARNINGS **************************


                     ====================================
                        Begin MD step =      1
                     ====================================

outcoor: Atomic coordinates (Ang):                          
    2.28494382   -5.19529124    0.00000000   1       1  H
    1.37433094   -4.66471070    0.00000000   2       2  N
   -0.21830245   -5.49458215    0.00000000   3       3  Si
   -0.17484108   -6.98516892    0.00000000   1       4  H
   -1.66171682   -4.58600741    0.00000000   2       5  N
   -1.09026419   -2.87456374    0.00000000   3       6  Si
   -1.53038332   -0.70765692    0.00000000   3       7  Si
   -3.14415959   -0.09186471    0.00000000   2       8  N
   -3.40268075    0.95848335    0.00000000   1       9  H
   -3.95073599   -0.76720972    0.00000000   1      10  H
   -0.17836637    0.41349951    0.00000000   2      11  N
    1.49520211   -0.04739960    0.00000000   3      12  Si
    2.45603905    1.10727302    0.00000000   1      13  H
    2.30451743   -1.58574382    0.00000000   2      14  N
    1.10725559   -2.84610319    0.00000000   3      15  Si
    0.07644061   11.08859217    0.00000000   1      16  H
   -0.73227007   10.39638629    0.00000000   2      17  N
   -2.38885991   11.10950639    0.00000000   3      18  Si
   -2.29199474   12.62023160    0.00000000   1      19  H
   -4.11501626    9.76645826    0.00000000   3      20  Si
   -6.46947051    9.75847133    0.00000000   3      21  Si
   -7.03188863   10.49296098   -1.20183078   1      22  H
   -6.76928426    8.27938020   -0.08618332   1      23  H
   -7.03200109   10.32330379    1.28814761   1      24  H
   -3.18562562    7.69588703    0.00000000   3      25  Si
   -4.13509398    6.40735090    0.00000000   4      26  O
   -1.39468075    7.52215156    0.00000000   2      27  N
   -1.06368939    6.48979458    0.00000000   1      28  H
   -0.08622253    8.71669798    0.00000000   3      29  Si
    1.47971440    8.44945113    0.00000000   4      30  O

outcell: Unit cell vectors (Ang):
       30.000000    0.000000    0.000000
        0.000000   45.000000    0.000000
        0.000000    0.000000   10.000000

outcell: Cell vector modules (Ang)   :   30.000000   45.000000   10.000000
outcell: Cell angles (23,13,12) (deg):     90.0000     90.0000     90.0000
outcell: Cell volume (Ang**3)        :  13500.0000
<dSpData1D:S at geom step 1
  <sparsity:sparsity for geom step 1
    nrows_g=302 nrows=48 sparsity=.0767 nnzs=6994, refcount: 8>
  <dData1D:(new from dSpData1D) n=6994, refcount: 1>
refcount: 1>
new_DM -- step:     1
Initializing Density Matrix...

Attempting to read DM from file... Failed...
DM filled with atomic data:
<dSpData2D:DM initialized from atoms
  <sparsity:sparsity for geom step 1
    nrows_g=302 nrows=48 sparsity=.0767 nnzs=6994, refcount: 9>
  <dData2D:DM n=6994 m=8, refcount: 1>
refcount: 1>
     spin moment: S , {S} =   56.00000   0.00000   0.00000  56.00000
No. of atoms with KB's overlaping orbs in proc 0. Max # of overlaps:      27     134

Initializing spin-orbit part of the Hamiltonian
  Adding spin-orbit effects for H 
  Adding spin-orbit effects for N 
  Adding spin-orbit effects for Si
  Adding spin-orbit effects for O 


New grid distribution:   1
           1       1:  180    1:  125    1:   15
           2       1:  180    1:  125   16:   30
           3       1:  180    1:  125   31:   45
           4       1:  180    1:  125   46:   60
           5       1:  180  126:  250    1:   15
           6       1:  180  126:  250   16:   30
           7       1:  180  126:  250   31:   45
           8       1:  180  126:  250   46:   60

InitMesh: MESH =   360 x   500 x   120 =    21600000
InitMesh: (bp) =   180 x   250 x    60 =     2700000
InitMesh: Mesh cutoff (required, used) =   340.000   341.206 Ry
ExtMesh (bp) on 0 =   288 x   225 x   123 =     7970400
New grid distribution:   2
           1       1:  158    1:   46    1:   60
           2       1:  151  233:  250    1:   60
           3       1:  158   47:   63    1:   60
           4     159:  180   47:   63    1:   60
           5       1:  151   64:  232    1:   60
           6     152:  180   64:  231    1:   60
           7     159:  180    1:   46    1:   60
           8     152:  180  232:  250    1:   60
New grid distribution:   3
           1       1:  143    1:   40    1:   60
           2       1:  146  220:  250    1:   60
           3       1:  143   41:   62    1:   60
           4     144:  180   37:   62    1:   60
           5       1:  146   63:  219    1:   60
           6     147:  180   63:  216    1:   60
           7     144:  180    1:   36    1:   60
           8     147:  180  217:  250    1:   60
Setting up quadratic distribution...
ExtMesh (bp) on 0 =   266 x   146 x   168 =     6524448
PhiOnMesh: Number of (b)points on node 0 =               436080
PhiOnMesh: nlist on node 0 =              1746954

stepf: Fermi-Dirac step function

siesta: Program's energy decomposition (eV):
siesta: Ebs     =      -625.975002
siesta: Eions   =      3553.971015
siesta: Ena     =       374.984508
siesta: Ekin    =      3171.351826
siesta: Enl     =     -2984.720914
siesta: Eso     =        -0.003884
siesta: Edftu   =         0.000000
siesta: DEna    =       129.706061
siesta: DUscf   =        75.682238
siesta: DUext   =         0.000000
siesta: Exc     =     -1168.706686
siesta: eta*DQ  =         0.000000
siesta: Emadel  =         0.000000
siesta: Emeta   =         0.000000
siesta: Emolmec =         0.000000
siesta: Ekinion =         0.000000
siesta: Eharris =     -3884.584607
siesta: Etot    =     -3955.677866
siesta: FreeEng =     -3955.681178

        iscf     Eharris(eV)        E_KS(eV)     FreeEng(eV)     dDmax    Ef(eV) dHmax(eV)
   scf:    1    -3884.584607    -3955.677866    -3955.681178  0.970539 -4.935306 21.630187
     spin moment: S , {S} =    2.02352  -0.00000  -0.00000   2.02352
timer: Routine,Calls,Time,% = IterSCF        1      17.521  30.28
   scf:    2    -3995.188317    -3988.424724    -3988.424732  0.465997 -4.251072 11.947467
     spin moment: S , {S} =    2.00009   0.00000  -0.00000   2.00009
   scf:    3    -3956.070005    -3985.049215    -3985.080394  0.422446 -4.204999 12.591917
     spin moment: S , {S} =    1.99716  -0.00000  -0.00000   1.99716
   scf:    4    -4002.463423    -3997.301427    -3997.301428  0.212485 -3.863623  6.197095
     spin moment: S , {S} =    0.00010  -0.00000   0.00000   0.00010
   scf:    5    -3998.716283    -3998.081487    -3998.081487  0.038155 -3.743004  4.017370
     spin moment: S , {S} =    0.00006  -0.00000   0.00000   0.00006
   scf:    6    -3998.884909    -3998.482354    -3998.482354  0.027005 -3.716792  1.906448
     spin moment: S , {S} =    0.00003  -0.00000   0.00000   0.00003
   scf:    7    -3998.867686    -3998.669321    -3998.669321  0.022429 -3.754791  0.778311
     spin moment: S , {S} =    0.00001  -0.00000   0.00000   0.00001
   scf:    8    -3998.800094    -3998.732523    -3998.732523  0.012409 -3.817490  0.521629
     spin moment: S , {S} =    0.00000  -0.00000   0.00000   0.00000
   scf:    9    -3998.783330    -3998.756787    -3998.756787  0.007231 -3.833840  0.414603
     spin moment: S , {S} =    0.00000  -0.00000   0.00000   0.00000
   scf:   10    -3998.818479    -3998.776744    -3998.776744  0.025368 -3.866575  0.229957
     spin moment: S , {S} =    0.00000  -0.00000  -0.00000  -0.00000
   scf:   11    -3998.782934    -3998.780019    -3998.780020  0.004263 -3.850562  0.085852
     spin moment: S , {S} =    0.00000  -0.00000  -0.00000  -0.00000
   scf:   12    -3998.781280    -3998.780683    -3998.780684  0.001164 -3.847173  0.049874
     spin moment: S , {S} =    0.00000   0.00000  -0.00000   0.00000
   scf:   13    -3998.781736    -3998.781200    -3998.781201  0.001115 -3.844863  0.027096
     spin moment: S , {S} =    0.00000   0.00000  -0.00000   0.00000
   scf:   14    -3998.781680    -3998.781431    -3998.781432  0.000866 -3.843764  0.017005
     spin moment: S , {S} =    0.00000   0.00000  -0.00000   0.00000
   scf:   15    -3998.781640    -3998.781529    -3998.781530  0.000599 -3.843385  0.009785
     spin moment: S , {S} =    0.00000   0.00000  -0.00000  -0.00000
   scf:   16    -3998.781614    -3998.781568    -3998.781569  0.000462 -3.843328  0.003982
     spin moment: S , {S} =    0.00000   0.00000  -0.00000   0.00000
   scf:   17    -3998.781582    -3998.781575    -3998.781576  0.000154 -3.843498  0.002159
     spin moment: S , {S} =    0.00000   0.00000   0.00000   0.00000
   scf:   18    -3998.781581    -3998.781578    -3998.781579  0.000125 -3.843624  0.001205
     spin moment: S , {S} =    0.00000   0.00000   0.00000   0.00000
   scf:   19    -3998.781580    -3998.781579    -3998.781580  0.000072 -3.843663  0.000870
     spin moment: S , {S} =    0.00000   0.00000   0.00000   0.00000
   scf:   20    -3998.781579    -3998.781579    -3998.781580  0.000034 -3.843685  0.000581
     spin moment: S , {S} =    0.00000   0.00000   0.00000   0.00000
   scf:   21    -3998.781579    -3998.781579    -3998.781580  0.000031 -3.843697  0.000421
     spin moment: S , {S} =    0.00000   0.00000   0.00000   0.00000
   scf:   22    -3998.781579    -3998.781579    -3998.781580  0.000038 -3.843714  0.000206
     spin moment: S , {S} =    0.00000   0.00000   0.00000   0.00000
   scf:   23    -3998.781579    -3998.781579    -3998.781580  0.000018 -3.843718  0.000157
     spin moment: S , {S} =    0.00000   0.00000   0.00000   0.00000
   scf:   24    -3998.781579    -3998.781579    -3998.781580  0.000016 -3.843717  0.000084
     spin moment: S , {S} =    0.00000   0.00000   0.00000   0.00000
mix: Pulay -- resetting history
   scf:   25    -3998.781579    -3998.781579    -3998.781580  0.000012 -3.843713  0.000041
     spin moment: S , {S} =    0.00000   0.00000   0.00000   0.00000
   scf:   26    -3998.781579    -3998.781579    -3998.781580  0.000005 -3.843711  0.000026
     spin moment: S , {S} =    0.00000   0.00000   0.00000   0.00000
   scf:   27    -3998.781579    -3998.781579    -3998.781580  0.000003 -3.843709  0.000016
     spin moment: S , {S} =    0.00000   0.00000   0.00000   0.00000
   scf:   28    -3998.781579    -3998.781579    -3998.781580  0.000003 -3.843710  0.000008
     spin moment: S , {S} =    0.00000   0.00000   0.00000   0.00000
   scf:   29    -3998.781579    -3998.781579    -3998.781580  0.000001 -3.843710  0.000006
     spin moment: S , {S} =    0.00000   0.00000   0.00000   0.00000
   scf:   30    -3998.781579    -3998.781579    -3998.781580  0.000001 -3.843710  0.000003
     spin moment: S , {S} =    0.00000  -0.00000   0.00000   0.00000
   scf:   31    -3998.781579    -3998.781579    -3998.781580  0.000000 -3.843711  0.000003
     spin moment: S , {S} =    0.00000  -0.00000   0.00000   0.00000
   scf:   32    -3998.781579    -3998.781579    -3998.781580  0.000000 -3.843712  0.000002
     spin moment: S , {S} =    0.00000  -0.00000   0.00000   0.00000
   scf:   33    -3998.781579    -3998.781579    -3998.781580  0.000000 -3.843712  0.000001
     spin moment: S , {S} =    0.00000  -0.00000   0.00000   0.00000

SCF Convergence by DM+H criterion
max |DM_out - DM_in|         :     0.0000001602
max |H_out - H_in|      (eV) :     0.0000009591
SCF cycle converged after 33 iterations

Using DM_out to compute the final energy and forces
No. of atoms with KB's overlaping orbs in proc 0. Max # of overlaps:      27     134

siesta: E_KS(eV) =            -3998.7816

siesta: E_KS - E_eggbox =     -3998.7816
     spin moment: S , {S} =    0.00000  -0.00000   0.00000   0.00000

siesta: Atomic forces (eV/Ang):
     1    0.143109   -0.027391   -0.000000
     2   -0.035165    0.043635    0.000000
     3   -0.031019   -0.017857   -0.000000
     4    0.068494   -0.134418   -0.000000
     5    0.054197    0.005265   -0.000000
     6   -0.192674    0.018570    0.000000
     7    1.069764   -0.040974   -0.000000
     8   -0.653658    1.416016    0.000000
     9    0.169042   -1.011852   -0.000000
    10   -0.111120    0.135050    0.000000
    11   -0.191482   -0.374814    0.000000
    12   -0.280925    0.048269   -0.000000
    13   -0.123065   -0.051663    0.000000
    14    0.031836   -0.117614   -0.000000
    15    0.110596    0.096113    0.000000
    16   -0.051666   -0.162215   -0.000950
    17    0.045073   -0.083666   -0.000793
    18   -0.152099    0.038845    0.005199
    19    0.070017   -0.146702   -0.001424
    20    0.125225    0.079597   -0.001066
    21    0.057406   -0.027395   -0.007018
    22    0.074872    0.012474    0.115985
    23    0.125474    0.062045   -0.000382
    24    0.071121    0.068111   -0.092152
    25   -0.646280   -0.398272    0.001045
    26   -0.976757   -3.872705    0.000510
    27    0.351947   -0.446995   -0.000554
    28   -0.246255    0.681616   -0.000073
    29    0.144362    0.167277   -0.000223
    30    1.727898    2.485805    0.000254
----------------------------------------
   Tot    0.748267   -1.555844    0.018358
----------------------------------------
   Max    3.872705
   Res    0.594660    sqrt( Sum f_i^2 / 3N )
----------------------------------------
   Max    3.872705    constrained

Stress tensor Voigt[x,y,z,yz,xz,xy] (kbar):        0.14        0.24       -0.01       -0.01        0.00        0.12
(Free)E + p*V (eV/cell)    -3999.7797
Target enthalpy (eV/cell)    -3998.7816

siesta: Stress tensor (static) (eV/Ang**3):
         0.000084    0.000077    0.000000
         0.000077    0.000147   -0.000004
         0.000000   -0.000004   -0.000009

siesta: Pressure (static):         -0.11846365  kBar

siesta: Stress tensor (total) (eV/Ang**3):
         0.000084    0.000077    0.000000
         0.000077    0.000147   -0.000004
         0.000000   -0.000004   -0.000009

siesta: Pressure (total):         -0.11846365  kBar

siesta: Temp_ion =       0.000 K

siesta: Eigenvalues (eV):
ik =     1
  -22.8475  -22.8475  -22.3325  -22.3325  -21.7186  -21.7186  -21.2709  -21.2709  -21.0211  -21.0211
  -20.9396  -20.9396  -19.3977  -19.3977  -19.2339  -19.2339  -18.6109  -18.6109  -15.0100  -15.0100
  -14.0983  -14.0983  -13.6478  -13.6478  -13.5610  -13.5610  -13.0654  -13.0654  -12.8892  -12.8892
  -12.5340  -12.5340  -12.1600  -12.1600  -11.8989  -11.8989  -11.6105  -11.6105  -11.4775  -11.4775
  -10.9861  -10.9861  -10.6049  -10.6049  -10.2023  -10.2023   -9.5342   -9.5342   -9.3154   -9.3154
   -9.1567   -9.1567   -9.0879   -9.0879   -9.0125   -9.0125   -8.7937   -8.7937   -8.5890   -8.5890
   -8.3836   -8.3836   -8.2363   -8.2363   -8.1321   -8.1321   -7.9944   -7.9944   -7.9191   -7.9191
   -7.7083   -7.7083   -7.3944   -7.3944   -7.3014   -7.3014   -7.2563   -7.2563   -6.8403   -6.8403
   -6.8281   -6.8281   -6.7096   -6.7096   -6.4080   -6.4080   -6.2576   -6.2576   -6.1672   -6.1672
   -5.8053   -5.8053   -5.6901   -5.6901   -5.5439   -5.5439   -4.2134   -4.2134   -3.4740   -3.4740
   -2.6868   -2.6868   -2.1891   -2.1891   -2.1710   -2.1710   -2.1075   -2.1075   -1.9754   -1.9754
   -1.9424   -1.9424   -1.7093   -1.7093   -1.6152   -1.6152   -1.5872   -1.5872   -1.4004   -1.4004
   -1.1436   -1.1436   -0.5710   -0.5710   -0.3095   -0.3095   -0.1999   -0.1999   -0.1708   -0.1708
   -0.0069   -0.0069    0.0635    0.0635    0.2611    0.2611    0.5377    0.5377    0.5768    0.5768
    0.6416    0.6416    0.7609    0.7609    1.2219    1.2219    1.2790    1.2790    1.3068    1.3068
    1.4605    1.4605    1.5812    1.5812    1.9251    1.9251    1.9684    1.9684    2.1831    2.1831
    2.4431    2.4431    2.7637    2.7637    2.8080    2.8080    2.8201    2.8201    2.8523    2.8523
    3.0835    3.0835    3.1202    3.1202    3.1550    3.1550    3.2633    3.2633    3.3270    3.3270
    3.6864    3.6864    3.9269    3.9269    4.2165    4.2165    4.2222    4.2222    4.2476    4.2476
    4.3807    4.3807    4.6942    4.6942    4.6988    4.6988    4.8145    4.8145    5.0790    5.0790
    5.0792    5.0792    5.2243    5.2243    5.5676    5.5676    5.7171    5.7171    5.7596    5.7596
    5.8992    5.8992    6.0718    6.0718    6.1692    6.1692    6.2294    6.2294    6.3304    6.3304
    6.6045    6.6045    6.6286    6.6286    6.8327    6.8327    7.0542    7.0542    7.2251    7.2251
    7.2682    7.2682    7.4894    7.4894    7.6463    7.6463    7.8598    7.8598    7.9871    7.9871
    7.9993    7.9993    8.1763    8.1763    8.3752    8.3752    8.3860    8.3860    8.6999    8.6999
    8.9437    8.9437    8.9863    8.9863    9.0273    9.0273    9.2989    9.2989    9.6221    9.6221
    9.6730    9.6730    9.8087    9.8087    9.8478    9.8478    9.9350    9.9350    9.9495    9.9495
   10.1806   10.1806   10.4711   10.4711   10.6608   10.6608   10.9551   10.9551   10.9939   10.9939
   11.3065   11.3065   11.4334   11.4334   11.6351   11.6351   11.6848   11.6848   11.7088   11.7088
   11.9381   11.9381   12.3205   12.3205   12.3460   12.3460   12.4169   12.4169   12.6375   12.6375
   12.9450   12.9450   12.9565   12.9565   13.0569   13.0569   13.2887   13.2887   13.4032   13.4032
   13.4792   13.4792   13.7473   13.7473   14.5098   14.5098   14.6642   14.6642   14.7528   14.7528
   14.8228   14.8228   14.9531   14.9531   15.1555   15.1555   16.1115   16.1115   16.5638   16.5638
   16.8097   16.8097   16.9271   16.9271   17.0299   17.0299   17.1899   17.1899   17.4564   17.4564
   18.2446   18.2446   18.2612   18.2612   18.5863   18.5863   18.7661   18.7661   18.8530   18.8530
   18.9009   18.9009   19.5499   19.5499   19.8945   19.8945   20.0275   20.0275   20.2569   20.2569
   20.7353   20.7353   21.1152   21.1152   21.2004   21.2004   21.7039   21.7039   22.2873   22.2873
   22.3283   22.3283   22.8957   22.8957   22.9955   22.9955   23.2027   23.2027   23.8435   23.8435
   24.5958   24.5958   24.8336   24.8336   24.8592   24.8592   25.8122   25.8122   25.9428   25.9428
   26.1544   26.1544   26.5626   26.5626   26.6135   26.6135   27.7776   27.7776   28.0571   28.0571
   28.4338   28.4338   28.5113   28.5113   29.2460   29.2460   29.5188   29.5188   30.4862   30.4862
   30.8090   30.8090   30.8617   30.8617   30.9581   30.9581   31.4040   31.4040   31.6556   31.6556
   31.7832   31.7832   32.0472   32.0472   32.1855   32.1855   33.4034   33.4034   33.5039   33.5039
   33.7538   33.7538   34.0857   34.0857   34.5130   34.5130   34.9103   34.9103   34.9361   34.9361
   35.5140   35.5140   36.0256   36.0256   36.1724   36.1724   37.1985   37.1985   37.5771   37.5771
   37.5967   37.5967   37.8348   37.8348   38.1587   38.1587   38.4658   38.4658   38.4980   38.4980
   39.1512   39.1512   40.2718   40.2718   40.3063   40.3063   40.7774   40.7774   41.2255   41.2255
   41.7369   41.7369   41.8976   41.8976   41.9456   41.9456   43.3361   43.3361   43.4988   43.4988
   43.9369   43.9369   44.5988   44.5988   44.9012   44.9012   44.9431   44.9431   45.1996   45.1996
   45.6325   45.6325   45.8067   45.8067   46.0075   46.0075   46.6328   46.6328   47.0506   47.0507
   47.1279   47.1279   47.4561   47.4561   48.6555   48.6555   48.8297   48.8297   49.3917   49.3917
   49.7319   49.7319   50.2440   50.2440   50.3280   50.3280   50.3456   50.3456   50.4781   50.4781
   51.7654   51.7654   52.6807   52.6807   52.7683   52.7683   53.9875   53.9875   54.3942   54.3942
   54.8729   54.8729   54.9145   54.9145   56.0969   56.0969   56.1284   56.1284   56.2457   56.2457
   56.9569   56.9569   57.7850   57.7850   58.0186   58.0186   58.4204   58.4204   59.7028   59.7028
   60.0785   60.0785   61.2508   61.2508   61.7539   61.7539   62.8695   62.8695   63.3811   63.3811
   65.3098   65.3098   65.4719   65.4719   67.0924   67.0924   67.3150   67.3150   68.4502   68.4502
   68.4674   68.4674   70.6083   70.6083   72.0272   72.0272   76.5618   76.5618   88.6892   88.6892
   91.9087   91.9087   93.0946   93.0946   95.1213   95.1213   96.4922   96.4922  100.2065  100.2065
  100.7514  100.7514  102.6094  102.6094  114.3427  114.3427  118.3794  118.3794  123.3057  123.3057
  132.4964  132.4964  138.8298  138.8298
siesta: Fermi energy =      -3.843712 eV

siesta: Program's energy decomposition (eV):
siesta: Ebs     =     -1110.794802
siesta: Eions   =      3553.971015
siesta: Ena     =       374.984508
siesta: Ekin    =      2743.198954
siesta: Enl     =     -2522.842829
siesta: Eso     =        -0.004664
siesta: Edftu   =         0.000000
siesta: DEna    =        36.855641
siesta: DUscf   =        13.897815
siesta: DUext   =         0.000000
siesta: Exc     =     -1090.899989
siesta: eta*DQ  =         0.000000
siesta: Emadel  =         0.000000
siesta: Emeta   =         0.000000
siesta: Emolmec =         0.000000
siesta: Ekinion =         0.000000
siesta: Eharris =     -3998.781579
siesta: Etot    =     -3998.781579
siesta: FreeEng =     -3998.781580

siesta: Final energy (eV):
siesta:  Band Struct. =   -1110.794802
siesta:       Kinetic =    2743.198954
siesta:       Hartree =   12149.131949
siesta:       Edftu   =       0.000000
siesta:       Eso     =      -0.004664
siesta:    Ext. field =       0.000000
siesta:   Exch.-corr. =   -1090.899989
siesta:  Ion-electron =  -26736.486396
siesta:       Ion-ion =    8936.278566
siesta:       Ekinion =       0.000000
siesta:         Total =   -3998.781579
siesta:         Fermi =      -3.843712

siesta: Atomic forces (eV/Ang):
siesta:      1    0.143109   -0.027391   -0.000000
siesta:      2   -0.035165    0.043635    0.000000
siesta:      3   -0.031019   -0.017857   -0.000000
siesta:      4    0.068494   -0.134418   -0.000000
siesta:      5    0.054197    0.005265   -0.000000
siesta:      6   -0.192674    0.018570    0.000000
siesta:      7    1.069764   -0.040974   -0.000000
siesta:      8   -0.653658    1.416016    0.000000
siesta:      9    0.169042   -1.011852   -0.000000
siesta:     10   -0.111120    0.135050    0.000000
siesta:     11   -0.191482   -0.374814    0.000000
siesta:     12   -0.280925    0.048269   -0.000000
siesta:     13   -0.123065   -0.051663    0.000000
siesta:     14    0.031836   -0.117614   -0.000000
siesta:     15    0.110596    0.096113    0.000000
siesta:     16   -0.051666   -0.162215   -0.000950
siesta:     17    0.045073   -0.083666   -0.000793
siesta:     18   -0.152099    0.038845    0.005199
siesta:     19    0.070017   -0.146702   -0.001424
siesta:     20    0.125225    0.079597   -0.001066
siesta:     21    0.057406   -0.027395   -0.007018
siesta:     22    0.074872    0.012474    0.115985
siesta:     23    0.125474    0.062045   -0.000382
siesta:     24    0.071121    0.068111   -0.092152
siesta:     25   -0.646280   -0.398272    0.001045
siesta:     26   -0.976757   -3.872705    0.000510
siesta:     27    0.351947   -0.446995   -0.000554
siesta:     28   -0.246255    0.681616   -0.000073
siesta:     29    0.144362    0.167277   -0.000223
siesta:     30    1.727898    2.485805    0.000254
siesta: ----------------------------------------
siesta:    Tot    0.748267   -1.555844    0.018358

siesta: Stress tensor (static) (eV/Ang**3):
siesta:     0.000084    0.000077    0.000000
siesta:     0.000077    0.000147   -0.000004
siesta:     0.000000   -0.000004   -0.000009

siesta: Cell volume =      13500.000000 Ang**3

siesta: Pressure (static):
siesta:                Solid            Molecule  Units
siesta:          -0.00000081         -0.00000223  Ry/Bohr**3
siesta:          -0.00007394         -0.00020469  eV/Ang**3
siesta:          -0.11846365         -0.32794876  kBar
(Free)E+ p_basis*V_orbitals  =       -3977.653495
(Free)Eharris+ p_basis*V_orbitals  =       -3977.653495
     spin moment: S , {S} =    0.00000  -0.00000   0.00000   0.00000

siesta: Electric dipole (a.u.)  =   -1.164663    1.564463   -0.001844
siesta: Electric dipole (Debye) =   -2.960279    3.976472   -0.004687

cite: Please see "AT.bib" for an exhaustive BiBTeX file.
cite: Please clearly indicate Siesta version in published work: v4.1.5-1-g384057250
cite: This calculation has made use of the following articles
cite: which are encouraged to be cited in a published work.
        Primary SIESTA paper
          DOI: www.doi.org/10.1088/0953-8984/14/11/302
        Spin-orbit coupling (on-site approximation)
          DOI: www.doi.org/10.1088/0953-8984/19/19/489001


WARNING: alloc-realloc-dealloc name mismatch
         Name: atomlist isa
         Size:              -120. Bytes
         Node:     0
         Subsequent mismatches will not be reported
>> End of run:   1-FEB-2024  20:49:50
Job completed
