Siesta Version  : v4.1.5-1-g384057250
Architecture    : gcc
Compiler version: GNU Fortran (Ubuntu 11.3.0-1ubuntu1~22.04) 11.3.0
Compiler flags  : mpifort -O2 -fPIC -ftree-vectorize -fallow-argument-mismatch
PP flags        : -DFC_HAVE_ABORT -DMPI -DSIESTA__FLOOK -DSIESTA__METIS -DSIESTA__MUMPS -DCDF -DNCDF -DNCDF_4 -DNCDF_PARALLEL -DSIESTA__MRRR -DSIESTA__ELPA
Libraries       : libncdf.a libfdict.a  -lflookall -ldl -lnetcdff -lnetcdf -lhdf5_hl -lhdf5 -lhdf5_fortran -lz -lscalapack-openmpi -lopenblas -lmetis -lzmumps -lcmumps -ldmumps -lmumps_common -lpord -lsmumps -lesmumps -lscotch -lscotcherr -fopenmp -lelpa
PARALLEL version
NetCDF support
NetCDF-4 support
NetCDF-4 MPI-IO support
METIS ordering support
Lua support

* Running on 4 nodes in parallel
>> Start of run:  28-JUN-2023  19:57:08

                           ***********************       
                           *  WELCOME TO SIESTA  *       
                           ***********************       

reinit: Reading from standard input
reinit: Dumped input in INPUT_TMP.86166
************************** Dump of input data file ****************************
SystemLabel      GC
NumberOfAtoms    29
NumberOfSpecies  4
%block ChemicalSpeciesLabel
    1    8  O
    2    7  N
    3   14  Si
    4    1  H
%endblock ChemicalSpeciesLabel
# Single point calculation
MD.TypeOfRun                CG
MD.Steps                    0
SCF.MustConverge            F # In case it does not. There can be 2 very close atoms
AtomicCoordinatesFormat NotScaledCartesianAng
%block AtomicCoordinatesAndAtomicSpecies
1.043624880    3.939228610    0.000000000       1
-3.040641290   1.071078170    0.000000000       2
2.054601450    1.213582070    0.000000000       2
0.999014100    -1.732643800   0.000000000       2
-2.132351640   -1.812968220   0.000000000       2
3.860190550    -1.112298180   0.000000000       2
-1.236183220   1.152964460    0.000000000       3
-0.532924260   -0.939006270   0.000000000       3
0.635660470    2.374516770    0.000000000       3
2.245170240    -0.549967100   0.000000000       3
-3.449816660   -0.583665030   0.000000000       3
2.963714090    1.790992630    0.000000000       4
-4.845591350   -1.123549660   0.000000000       4
4.007020910    -2.152308560   0.000000000       4
4.772194380    -0.502318160   0.000000000       4
-2.265399090   -2.864605110   0.000000000       4
6.832479452    6.193981285    0.000000000       3
8.737363422    7.400620225    0.000000000       3
8.241609282    3.427646315    0.000000000       3
10.319079572   5.896863475    0.000000000       3
6.892102122    4.476553715    0.000000000       2
5.293344392    6.947658595    0.000000000       2
9.893904542    4.157483535    0.000000000       2
8.928708222    8.892773975    0.000000000       4
11.803447552   6.115594295    0.000000000       4
5.181999112    7.996853705    0.000000000       4
4.360786682    6.322744415    0.000000000       4
8.231382452    1.819535195    0.000000000       1
10.669330422   3.430791975    0.000000000       4
%endblock AtomicCoordinatesAndAtomicSpecies
%include ../../../Defaults.fdf
************************** End of input data file *****************************

reinit: -----------------------------------------------------------------------
reinit: System Name: 
reinit: -----------------------------------------------------------------------
reinit: System Label: GC
reinit: -----------------------------------------------------------------------

initatom: Reading input for the pseudopotentials and atomic orbitals ----------
Species number:   1 Atomic number:    8 Label: O
Species number:   2 Atomic number:    7 Label: N
Species number:   3 Atomic number:   14 Label: Si
Species number:   4 Atomic number:    1 Label: H

Ground state valence configuration:   2s02  2p04
Reading pseudopotential information in formatted form from O.psf

Pseudopotential generated from a relativistic atomic calculation

Valence configuration for pseudopotential generation:
2s( 2.00) rc: 0.45
2p( 4.00) rc: 0.92
3d( 0.00) rc: 2.24
4f( 0.00) rc: 0.25
Ground state valence configuration:   2s02  2p03
Reading pseudopotential information in formatted form from N.psf

Pseudopotential generated from a relativistic atomic calculation

Valence configuration for pseudopotential generation:
2s( 2.00) rc: 0.94
2p( 3.00) rc: 0.59
3d( 0.00) rc: 3.46
4f( 0.00) rc: 2.47
Ground state valence configuration:   3s02  3p02
Reading pseudopotential information in formatted form from Si.psf

Pseudopotential generated from a relativistic atomic calculation

Valence configuration for pseudopotential generation:
3s( 2.00) rc: 1.67
3p( 2.00) rc: 2.04
3d( 0.00) rc: 2.89
4f( 0.00) rc: 2.49
Ground state valence configuration:   1s01
Reading pseudopotential information in formatted form from H.psf

Pseudopotential generated from a relativistic atomic calculation

Valence configuration for pseudopotential generation:
1s( 1.00) rc: 0.01
2p( 0.00) rc: 0.60
3d( 0.00) rc: 1.99
4f( 0.00) rc: 2.49
For O, standard SIESTA heuristics set lmxkb to 3
 (one more than the basis l, including polarization orbitals).
Use PS.lmax or PS.KBprojectors blocks to override.
For N, standard SIESTA heuristics set lmxkb to 3
 (one more than the basis l, including polarization orbitals).
Use PS.lmax or PS.KBprojectors blocks to override.
For Si, standard SIESTA heuristics set lmxkb to 3
 (one more than the basis l, including polarization orbitals).
Use PS.lmax or PS.KBprojectors blocks to override.
For H, standard SIESTA heuristics set lmxkb to 2
 (one more than the basis l, including polarization orbitals).
Use PS.lmax or PS.KBprojectors blocks to override.

<basis_specs>
===============================================================================
O                    Z=   8    Mass=  16.000        Charge= 0.17977+309
Lmxo=1 Lmxkb= 3    BasisType=split      Semic=F
L=0  Nsemic=0  Cnfigmx=2
          i=1  nzeta=2  polorb=0  (2s)
            splnorm:   0.28000    
               vcte:    0.0000    
               rinn:    0.0000    
               qcoe:    0.0000    
               qyuk:    0.0000    
               qwid:   0.10000E-01
                rcs:    0.0000      0.0000    
            lambdas:    1.0000      1.0000    
L=1  Nsemic=0  Cnfigmx=2
          i=1  nzeta=2  polorb=1  (2p)
            splnorm:   0.28000    
               vcte:    0.0000    
               rinn:    0.0000    
               qcoe:    0.0000    
               qyuk:    0.0000    
               qwid:   0.10000E-01
                rcs:    0.0000      0.0000    
            lambdas:    1.0000      1.0000    
-------------------------------------------------------------------------------
L=0  Nkbl=1  erefs: 0.17977+309
L=1  Nkbl=1  erefs: 0.17977+309
L=2  Nkbl=1  erefs: 0.17977+309
L=3  Nkbl=1  erefs: 0.17977+309
===============================================================================
</basis_specs>

atom: Called for O                     (Z =   8)

read_vps: Pseudopotential generation method:
read_vps: ATM4.2.7  Troullier-Martins                       
Valence charge for ps generation:    6.00000

xc_check: Exchange-correlation functional:
xc_check: GGA Perdew, Burke & Ernzerhof 1996
V l=0 = -2*Zval/r beyond r=  1.1000
V l=1 = -2*Zval/r beyond r=  1.1000
V l=2 = -2*Zval/r beyond r=  2.2154
V l=3 = -2*Zval/r beyond r=  1.1000
All V_l potentials equal beyond r=  2.2154
This should be close to max(r_c) in ps generation
All pots = -2*Zval/r beyond r=  2.2154

VLOCAL1: 99.0% of the norm of Vloc inside      8.845 Ry
VLOCAL1: 99.9% of the norm of Vloc inside     20.157 Ry
atom: Maximum radius for 4*pi*r*r*local-pseudopot. charge    2.67231
atom: Maximum radius for r*vlocal+2*Zval:    2.32897
GHOST: No ghost state for L =  0
GHOST: No ghost state for L =  1
GHOST: No ghost state for L =  2
GHOST: No ghost state for L =  3

KBgen: Kleinman-Bylander projectors: 
   l= 0   rc=  2.243238   el= -1.759686   Ekb=**********   kbcos= -0.171774
   l= 1   rc=  2.328968   el= -0.663873   Ekb=-14.506792   kbcos= -0.519897
   l= 2   rc=  2.573941   el=  0.002031   Ekb= -1.137373   kbcos= -0.019581
   l= 3   rc=  2.606321   el=  0.003153   Ekb= -1.013546   kbcos= -0.003122

KBgen: Total number of Kleinman-Bylander projectors:   16
atom: -------------------------------------------------------------------------

atom: SANKEY-TYPE ORBITALS:
atom: Selected multiple-zeta basis: split     

SPLIT: Orbitals with angular momentum L= 0

SPLIT: Basis orbitals for state 2s

SPLIT: PAO cut-off radius determined from an
SPLIT: energy shift=  0.002000 Ry

   izeta = 1
                 lambda =    1.000000
                     rc =    4.243912
                 energy =   -1.758270
                kinetic =    3.286084
    potential(screened) =   -5.044353
       potential(ionic) =  -12.921184

   izeta = 2
                 rmatch =    2.187845
              splitnorm =    0.280000
                 energy =   -0.885018
                kinetic =    8.134434
    potential(screened) =   -9.019452
       potential(ionic) =  -17.710645

SPLIT: Orbitals with angular momentum L= 1

SPLIT: Basis orbitals for state 2p

SPLIT: PAO cut-off radius determined from an
SPLIT: energy shift=  0.002000 Ry

   izeta = 1
                 lambda =    1.000000
                     rc =    5.314825
                 energy =   -0.661986
                kinetic =    4.917472
    potential(screened) =   -5.579458
       potential(ionic) =  -13.236259

   izeta = 2
                 rmatch =    2.160663
              splitnorm =    0.280000
                 energy =   -0.068760
                kinetic =    9.183374
    potential(screened) =   -9.252135
       potential(ionic) =  -18.274251

POLgen: Perturbative polarization orbital with L=  2

POLgen: Polarization orbital for state 2p

   izeta = 1
                     rc =    5.314825
                 energy =    1.970580
                kinetic =    3.886128
    potential(screened) =   -1.915547
       potential(ionic) =   -7.749584
atom: Total number of Sankey-type orbitals: 13

atm_pop: Valence configuration (for local Pseudopot. screening):
 2s( 2.00)                                                            
 2p( 4.00)                                                            
Vna: chval, zval:    6.00000   6.00000

Vna:  Cut-off radius for the neutral-atom potential:   5.314825

atom: _________________________________________________________________________

<basis_specs>
===============================================================================
N                    Z=   7    Mass=  14.010        Charge= 0.17977+309
Lmxo=1 Lmxkb= 3    BasisType=split      Semic=F
L=0  Nsemic=0  Cnfigmx=2
          i=1  nzeta=2  polorb=0  (2s)
            splnorm:   0.28000    
               vcte:    0.0000    
               rinn:    0.0000    
               qcoe:    0.0000    
               qyuk:    0.0000    
               qwid:   0.10000E-01
                rcs:    0.0000      0.0000    
            lambdas:    1.0000      1.0000    
L=1  Nsemic=0  Cnfigmx=2
          i=1  nzeta=2  polorb=1  (2p)
            splnorm:   0.28000    
               vcte:    0.0000    
               rinn:    0.0000    
               qcoe:    0.0000    
               qyuk:    0.0000    
               qwid:   0.10000E-01
                rcs:    0.0000      0.0000    
            lambdas:    1.0000      1.0000    
-------------------------------------------------------------------------------
L=0  Nkbl=1  erefs: 0.17977+309
L=1  Nkbl=1  erefs: 0.17977+309
L=2  Nkbl=1  erefs: 0.17977+309
L=3  Nkbl=1  erefs: 0.17977+309
===============================================================================
</basis_specs>

atom: Called for N                     (Z =   7)

read_vps: Pseudopotential generation method:
read_vps: ATM4.2.7  Troullier-Martins                       
Valence charge for ps generation:    5.00000

xc_check: Exchange-correlation functional:
xc_check: GGA Perdew, Burke & Ernzerhof 1996
V l=0 = -2*Zval/r beyond r=  1.2889
V l=1 = -2*Zval/r beyond r=  1.2889
V l=2 = -2*Zval/r beyond r=  3.4178
V l=3 = -2*Zval/r beyond r=  2.4084
All V_l potentials equal beyond r=  3.3753
This should be close to max(r_c) in ps generation
All pots = -2*Zval/r beyond r=  3.4178

VLOCAL1: 99.0% of the norm of Vloc inside      3.810 Ry
VLOCAL1: 99.9% of the norm of Vloc inside      8.683 Ry
atom: Maximum radius for 4*pi*r*r*local-pseudopot. charge    4.02088
atom: Maximum radius for r*vlocal+2*Zval:    3.54838
GHOST: No ghost state for L =  0
GHOST: No ghost state for L =  1
GHOST: No ghost state for L =  2
GHOST: No ghost state for L =  3

KBgen: Kleinman-Bylander projectors: 
   l= 0   rc=  3.417763   el= -1.365098   Ekb= -4.433130   kbcos= -0.707855
   l= 1   rc=  3.375302   el= -0.521201   Ekb=-13.264039   kbcos= -0.535594
   l= 2   rc=  3.872880   el=  0.001991   Ekb= -0.641094   kbcos= -0.062456
   l= 3   rc=  3.970931   el=  0.003093   Ekb= -0.474517   kbcos= -0.018236

KBgen: Total number of Kleinman-Bylander projectors:   16
atom: -------------------------------------------------------------------------

atom: SANKEY-TYPE ORBITALS:
atom: Selected multiple-zeta basis: split     

SPLIT: Orbitals with angular momentum L= 0

SPLIT: Basis orbitals for state 2s

SPLIT: PAO cut-off radius determined from an
SPLIT: energy shift=  0.002000 Ry

   izeta = 1
                 lambda =    1.000000
                     rc =    4.730425
                 energy =   -1.363399
                kinetic =    1.245246
    potential(screened) =   -2.608645
       potential(ionic) =   -8.121105

   izeta = 2
                 rmatch =    2.531849
              splitnorm =    0.280000
                 energy =   -0.959908
                kinetic =    2.409435
    potential(screened) =   -3.369343
       potential(ionic) =   -9.427975

SPLIT: Orbitals with angular momentum L= 1

SPLIT: Basis orbitals for state 2p

SPLIT: PAO cut-off radius determined from an
SPLIT: energy shift=  0.002000 Ry

   izeta = 1
                 lambda =    1.000000
                     rc =    5.924108
                 energy =   -0.519262
                kinetic =    3.672940
    potential(screened) =   -4.192202
       potential(ionic) =   -9.518354

   izeta = 2
                 rmatch =    2.531849
              splitnorm =    0.280000
                 energy =   -0.104258
                kinetic =    6.807538
    potential(screened) =   -6.911796
       potential(ionic) =  -13.149920

POLgen: Perturbative polarization orbital with L=  2

POLgen: Polarization orbital for state 2p

   izeta = 1
                     rc =    5.924108
                 energy =    1.427508
                kinetic =    2.872379
    potential(screened) =   -1.444871
       potential(ionic) =   -5.563644
atom: Total number of Sankey-type orbitals: 13

atm_pop: Valence configuration (for local Pseudopot. screening):
 2s( 2.00)                                                            
 2p( 3.00)                                                            
Vna: chval, zval:    5.00000   5.00000

Vna:  Cut-off radius for the neutral-atom potential:   5.924108

atom: _________________________________________________________________________

<basis_specs>
===============================================================================
Si                   Z=  14    Mass=  28.090        Charge= 0.17977+309
Lmxo=1 Lmxkb= 3    BasisType=split      Semic=F
L=0  Nsemic=0  Cnfigmx=3
          i=1  nzeta=2  polorb=0  (3s)
            splnorm:   0.28000    
               vcte:    0.0000    
               rinn:    0.0000    
               qcoe:    0.0000    
               qyuk:    0.0000    
               qwid:   0.10000E-01
                rcs:    0.0000      0.0000    
            lambdas:    1.0000      1.0000    
L=1  Nsemic=0  Cnfigmx=3
          i=1  nzeta=2  polorb=1  (3p)
            splnorm:   0.28000    
               vcte:    0.0000    
               rinn:    0.0000    
               qcoe:    0.0000    
               qyuk:    0.0000    
               qwid:   0.10000E-01
                rcs:    0.0000      0.0000    
            lambdas:    1.0000      1.0000    
-------------------------------------------------------------------------------
L=0  Nkbl=1  erefs: 0.17977+309
L=1  Nkbl=1  erefs: 0.17977+309
L=2  Nkbl=1  erefs: 0.17977+309
L=3  Nkbl=1  erefs: 0.17977+309
===============================================================================
</basis_specs>

atom: Called for Si                    (Z =  14)

read_vps: Pseudopotential generation method:
read_vps: ATM4.2.7  Troullier-Martins                       
Valence charge for ps generation:    4.00000

xc_check: Exchange-correlation functional:
xc_check: GGA Perdew, Burke & Ernzerhof 1996
V l=0 = -2*Zval/r beyond r=  2.7826
V l=1 = -2*Zval/r beyond r=  2.7826
V l=2 = -2*Zval/r beyond r=  2.9253
V l=3 = -2*Zval/r beyond r=  2.7826
All V_l potentials equal beyond r=  2.8530
This should be close to max(r_c) in ps generation
All pots = -2*Zval/r beyond r=  2.9253

VLOCAL1: 99.0% of the norm of Vloc inside      5.333 Ry
VLOCAL1: 99.9% of the norm of Vloc inside     12.154 Ry
atom: Maximum radius for 4*pi*r*r*local-pseudopot. charge    3.39869
atom: Maximum radius for r*vlocal+2*Zval:    2.96205
GHOST: No ghost state for L =  0
GHOST: No ghost state for L =  1
GHOST: No ghost state for L =  2
GHOST: No ghost state for L =  3

KBgen: Kleinman-Bylander projectors: 
   l= 0   rc=  3.075247   el= -0.794092   Ekb=  5.879390   kbcos=  0.167461
   l= 1   rc=  3.153101   el= -0.300068   Ekb=  2.642817   kbcos=  0.058301
   l= 2   rc=  3.273594   el=  0.001958   Ekb= -1.185135   kbcos= -0.104411
   l= 3   rc=  3.232927   el=  0.003046   Ekb= -0.497174   kbcos= -0.015889

KBgen: Total number of Kleinman-Bylander projectors:   16
atom: -------------------------------------------------------------------------

atom: SANKEY-TYPE ORBITALS:
atom: Selected multiple-zeta basis: split     

SPLIT: Orbitals with angular momentum L= 0

SPLIT: Basis orbitals for state 3s

SPLIT: PAO cut-off radius determined from an
SPLIT: energy shift=  0.002000 Ry

   izeta = 1
                 lambda =    1.000000
                     rc =    6.429618
                 energy =   -0.792283
                kinetic =    0.525293
    potential(screened) =   -1.317576
       potential(ionic) =   -3.744923

   izeta = 2
                 rmatch =    3.998416
              splitnorm =    0.280000
                 energy =   -0.583081
                kinetic =    1.069570
    potential(screened) =   -1.652651
       potential(ionic) =   -4.235185

SPLIT: Orbitals with angular momentum L= 1

SPLIT: Basis orbitals for state 3p

SPLIT: PAO cut-off radius determined from an
SPLIT: energy shift=  0.002000 Ry

   izeta = 1
                 lambda =    1.000000
                     rc =    8.464845
                 energy =   -0.298236
                kinetic =    0.785360
    potential(screened) =   -1.083596
       potential(ionic) =   -3.273779

   izeta = 2
                 rmatch =    4.587816
              splitnorm =    0.280000
                 energy =   -0.131871
                kinetic =    1.403687
    potential(screened) =   -1.535557
       potential(ionic) =   -4.015310

POLgen: Perturbative polarization orbital with L=  2

POLgen: Polarization orbital for state 3p

   izeta = 1
                     rc =    8.464845
                 energy =    0.321949
                kinetic =    1.055677
    potential(screened) =   -0.733728
       potential(ionic) =   -2.672950
atom: Total number of Sankey-type orbitals: 13

atm_pop: Valence configuration (for local Pseudopot. screening):
 3s( 2.00)                                                            
 3p( 2.00)                                                            
Vna: chval, zval:    4.00000   4.00000

Vna:  Cut-off radius for the neutral-atom potential:   8.464845

atom: _________________________________________________________________________

<basis_specs>
===============================================================================
H                    Z=   1    Mass=  1.0100        Charge= 0.17977+309
Lmxo=0 Lmxkb= 2    BasisType=split      Semic=F
L=0  Nsemic=0  Cnfigmx=1
          i=1  nzeta=2  polorb=1  (1s)
            splnorm:   0.62000    
               vcte:    0.0000    
               rinn:    0.0000    
               qcoe:    0.0000    
               qyuk:    0.0000    
               qwid:   0.10000E-01
                rcs:    0.0000      0.0000    
            lambdas:    1.0000      1.0000    
-------------------------------------------------------------------------------
L=0  Nkbl=1  erefs: 0.17977+309
L=1  Nkbl=1  erefs: 0.17977+309
L=2  Nkbl=1  erefs: 0.17977+309
===============================================================================
</basis_specs>

atom: Called for H                     (Z =   1)

read_vps: Pseudopotential generation method:
read_vps: ATM4.2.7  Troullier-Martins                       
Valence charge for ps generation:    1.00000

xc_check: Exchange-correlation functional:
xc_check: GGA Perdew, Burke & Ernzerhof 1996
V l=0 = -2*Zval/r beyond r=  0.0098
V l=1 = -2*Zval/r beyond r=  0.5817
V l=2 = -2*Zval/r beyond r=  1.9372
All V_l potentials equal beyond r=  1.9372
This should be close to max(r_c) in ps generation
All pots = -2*Zval/r beyond r=  1.9372

VLOCAL1: 99.0% of the norm of Vloc inside     11.567 Ry
VLOCAL1: 99.9% of the norm of Vloc inside     26.362 Ry
atom: Maximum radius for 4*pi*r*r*local-pseudopot. charge    2.25106
atom: Maximum radius for r*vlocal+2*Zval:    1.91306
GHOST: No ghost state for L =  0
GHOST: No ghost state for L =  1
GHOST: No ghost state for L =  2

KBgen: Kleinman-Bylander projectors: 
   l= 0   rc=  2.036604   el= -0.477180   Ekb= -6.081590   kbcos= -0.277285
   l= 1   rc=  2.195416   el=  0.001076   Ekb= -0.926943   kbcos= -0.034643
   l= 2   rc=  2.251056   el=  0.002010   Ekb= -0.130941   kbcos= -0.009788

KBgen: Total number of Kleinman-Bylander projectors:    9
atom: -------------------------------------------------------------------------

atom: SANKEY-TYPE ORBITALS:
atom: Selected multiple-zeta basis: split     

SPLIT: Orbitals with angular momentum L= 0

SPLIT: Basis orbitals for state 1s

SPLIT: PAO cut-off radius determined from an
SPLIT: energy shift=  0.002000 Ry

   izeta = 1
                 lambda =    1.000000
                     rc =    6.518340
                 energy =   -0.475305
                kinetic =    0.912139
    potential(screened) =   -1.387444
       potential(ionic) =   -1.907295

   izeta = 2
                 rmatch =    2.141150
              splitnorm =    0.620000
                 energy =    0.566467
                kinetic =    3.772856
    potential(screened) =   -3.206389
       potential(ionic) =   -3.759093

POLgen: Perturbative polarization orbital with L=  1

POLgen: Polarization orbital for state 1s

   izeta = 1
                     rc =    6.518340
                 energy =    0.533861
                kinetic =    1.121086
    potential(screened) =   -0.587225
       potential(ionic) =   -1.053027
atom: Total number of Sankey-type orbitals:  5

atm_pop: Valence configuration (for local Pseudopot. screening):
 1s( 1.00)                                                            
Vna: chval, zval:    1.00000   1.00000

Vna:  Cut-off radius for the neutral-atom potential:   6.518340

atom: _________________________________________________________________________

prinput: Basis input ----------------------------------------------------------

PAO.BasisType split     

%block ChemicalSpeciesLabel
    1    8 O                       # Species index, atomic number, species label
    2    7 N                       # Species index, atomic number, species label
    3   14 Si                      # Species index, atomic number, species label
    4    1 H                       # Species index, atomic number, species label
%endblock ChemicalSpeciesLabel

%block PAO.Basis                 # Define Basis set
O                     2                    # Species label, number of l-shells
 n=2   0   2                         # n, l, Nzeta 
   4.244      2.188   
   1.000      1.000   
 n=2   1   2 P   1                   # n, l, Nzeta, Polarization, NzetaPol
   5.315      2.161   
   1.000      1.000   
N                     2                    # Species label, number of l-shells
 n=2   0   2                         # n, l, Nzeta 
   4.730      2.532   
   1.000      1.000   
 n=2   1   2 P   1                   # n, l, Nzeta, Polarization, NzetaPol
   5.924      2.532   
   1.000      1.000   
Si                    2                    # Species label, number of l-shells
 n=3   0   2                         # n, l, Nzeta 
   6.430      3.998   
   1.000      1.000   
 n=3   1   2 P   1                   # n, l, Nzeta, Polarization, NzetaPol
   8.465      4.588   
   1.000      1.000   
H                     1                    # Species label, number of l-shells
 n=1   0   2 P   1                   # n, l, Nzeta, Polarization, NzetaPol
   6.518      2.141   
   1.000      1.000   
%endblock PAO.Basis

prinput: ----------------------------------------------------------------------

Dumping basis to NetCDF file O.ion.nc
Dumping basis to NetCDF file N.ion.nc
Dumping basis to NetCDF file Si.ion.nc
Dumping basis to NetCDF file H.ion.nc
coor:   Atomic-coordinates input format  =     Cartesian coordinates
coor:                                          (in Angstroms)

siesta: Atomic coordinates (Bohr) and species
siesta:      1.97217   7.44407   0.00000  1        1
siesta:     -5.74598   2.02405   0.00000  2        2
siesta:      3.88264   2.29334   0.00000  2        3
siesta:      1.88786  -3.27422   0.00000  2        4
siesta:     -4.02956  -3.42601   0.00000  2        5
siesta:      7.29471  -2.10194   0.00000  2        6
siesta:     -2.33605   2.17879   0.00000  3        7
siesta:     -1.00708  -1.77447   0.00000  3        8
siesta:      1.20122   4.48719   0.00000  3        9
siesta:      4.24276  -1.03929   0.00000  3       10
siesta:     -6.51921  -1.10297   0.00000  3       11
siesta:      5.60061   3.38449   0.00000  4       12
siesta:     -9.15684  -2.12320   0.00000  4       13
siesta:      7.57218  -4.06728   0.00000  4       14
siesta:      9.01814  -0.94924   0.00000  4       15
siesta:     -4.28099  -5.41332   0.00000  4       16
siesta:     12.91152  11.70493   0.00000  3       17
siesta:     16.51123  13.98515   0.00000  3       18
siesta:     15.57439   6.47732   0.00000  3       19
siesta:     19.50024  11.14346   0.00000  3       20
siesta:     13.02419   8.45946   0.00000  2       21
siesta:     10.00298  13.12918   0.00000  2       22
siesta:     18.69678   7.85651   0.00000  2       23
siesta:     16.87282  16.80491   0.00000  4       24
siesta:     22.30529  11.55680   0.00000  4       25
siesta:      9.79256  15.11187   0.00000  4       26
siesta:      8.24070  11.94826   0.00000  4       27
siesta:     15.55506   3.43842   0.00000  1       28
siesta:     20.16212   6.48326   0.00000  4       29

siesta: Automatic unit cell vectors (Ang):
siesta:   25.902526    0.000000    0.000000
siesta:    0.000000   20.521700    0.000000
siesta:    0.000000    0.000000    9.854683

siesta: System type = molecule  

initatomlists: Number of atoms, orbitals, and projectors:     29   297   394

siesta: ******************** Simulation parameters ****************************
siesta:
siesta: The following are some of the parameters of the simulation.
siesta: A complete list of the parameters used, including default values,
siesta: can be found in file out.fdf
siesta:
redata: Spin configuration                          = spin-orbit
redata: Number of spin components                   = 8
redata: Time-Reversal Symmetry                      = F
redata: Spin spiral                                 = F
############################################################
This spin-orbit implementation uses a local approximation.
From 4.2 and onwards the full non-local approximation is implemented
You are strongly advised to use >=4.2 versions!
############################################################
redata: Long output                                 =   F
redata: Number of Atomic Species                    =        4
redata: Charge density info will appear in .RHO file
redata: Write Mulliken Pop.                         = Atomic and Orbital charges
redata: Matel table size (NRTAB)                    =     1024
redata: Mesh Cutoff                                 =   340.0000 Ry
redata: Net charge of the system                    =     0.0000 |e|
redata: Min. number of SCF Iter                     =        1
redata: Max. number of SCF Iter                     =      200
redata: SCF mix quantity                            = Hamiltonian
redata: Mix DM or H after convergence               =   F
redata: Recompute H after scf cycle                 =   F
redata: Mix DM in first SCF step                    =   T
redata: Write Pulay info on disk                    =   F
redata: New DM Occupancy tolerance                  = 0.000000000001
redata: No kicks to SCF
redata: DM Mixing Weight for Kicks                  =     0.5000
redata: Require Harris convergence for SCF          =   F
redata: Harris energy tolerance for SCF             =     0.000100 eV
redata: Require DM convergence for SCF              =   T
redata: DM tolerance for SCF                        =     0.000008
redata: Require EDM convergence for SCF             =   F
redata: EDM tolerance for SCF                       =     0.001000 eV
redata: Require H convergence for SCF               =   T
redata: Hamiltonian tolerance for SCF               =     0.000001 eV
redata: Require (free) Energy convergence for SCF   =   F
redata: (free) Energy tolerance for SCF             =     0.000100 eV
redata: Using Saved Data (generic)                  =   F
redata: Use continuation files for DM               =   F
redata: Neglect nonoverlap interactions             =   F
redata: Method of Calculation                       = Diagonalization
redata: Electronic Temperature                      =   299.9978 K
redata: Fix the spin of the system                  =   F
redata: Dynamics option                             = Single-point calculation
mix.SCF: Pulay mixing                            = Pulay
mix.SCF:    Variant                              = stable
mix.SCF:    History steps                        = 6
mix.SCF:    Linear mixing weight                 =     0.250000
mix.SCF:    Mixing weight                        =     0.250000
mix.SCF:    SVD condition                        = 0.1000E-07
mix.SCF:    Restart steps                        = 24
mix.SCF:    Restart save steps                   = 3
mix.SCF: Spin-component mixing                   all
redata: Save all siesta data in one NC              =   F
redata: ***********************************************************************

%block SCF.Mixers
  Pulay
%endblock SCF.Mixers

%block SCF.Mixer.Pulay
  # Mixing method
  method pulay
  variant stable

  # Mixing options
  weight 0.2500
  weight.linear 0.2500
  history 6
  restart 24
  restart.save 3
%endblock SCF.Mixer.Pulay

DM_history_depth set to one: no extrapolation allowed by default for geometry relaxation
Size of DM history Fstack: 1
Total number of electrons:    98.000000
Total ionic charge:    98.000000

* ProcessorY, Blocksize:    2  24


* Orbital distribution balance (max,min):    81    72


Time-reversal symmetry not used.

siesta: k-grid: Number of k-points =     1
siesta: k-grid: Cutoff (effective) =     4.927 Ang
siesta: k-grid: Supercell and displacements
siesta: k-grid:    1   0   0      0.000
siesta: k-grid:    0   1   0      0.000
siesta: k-grid:    0   0   1      0.000

diag: Algorithm                                     = ELPA-1stage
diag: Parallel over k                               =   F
diag: Use parallel 2D distribution                  =   T
diag: Parallel block-size                           = 24
diag: Parallel distribution                         =     2 x     2
diag: Used triangular part                          = Lower
diag: Absolute tolerance                            =  0.100E-15
diag: Orthogonalization factor                      =  0.100E-05
diag: Memory factor                                 =  1.0000


ts: **************************************************************
ts: Save H and S matrices                           =    F
ts: Save DM and EDM matrices                        =    F
ts: Only save the overlap matrix S                  =    F
ts: **************************************************************

************************ Begin: TS CHECKS AND WARNINGS ************************
************************ End: TS CHECKS AND WARNINGS **************************


                     ====================================
                        Single-point calculation
                     ====================================

outcoor: Atomic coordinates (Ang):                          
    1.04362488    3.93922861    0.00000000   1       1  O
   -3.04064129    1.07107817    0.00000000   2       2  N
    2.05460145    1.21358207    0.00000000   2       3  N
    0.99901410   -1.73264380    0.00000000   2       4  N
   -2.13235164   -1.81296822    0.00000000   2       5  N
    3.86019055   -1.11229818    0.00000000   2       6  N
   -1.23618322    1.15296446    0.00000000   3       7  Si
   -0.53292426   -0.93900627    0.00000000   3       8  Si
    0.63566047    2.37451677    0.00000000   3       9  Si
    2.24517024   -0.54996710    0.00000000   3      10  Si
   -3.44981666   -0.58366503    0.00000000   3      11  Si
    2.96371409    1.79099263    0.00000000   4      12  H
   -4.84559135   -1.12354966    0.00000000   4      13  H
    4.00702091   -2.15230856    0.00000000   4      14  H
    4.77219438   -0.50231816    0.00000000   4      15  H
   -2.26539909   -2.86460511    0.00000000   4      16  H
    6.83247945    6.19398128    0.00000000   3      17  Si
    8.73736342    7.40062022    0.00000000   3      18  Si
    8.24160928    3.42764632    0.00000000   3      19  Si
   10.31907957    5.89686347    0.00000000   3      20  Si
    6.89210212    4.47655371    0.00000000   2      21  N
    5.29334439    6.94765860    0.00000000   2      22  N
    9.89390454    4.15748353    0.00000000   2      23  N
    8.92870822    8.89277398    0.00000000   4      24  H
   11.80344755    6.11559430    0.00000000   4      25  H
    5.18199911    7.99685371    0.00000000   4      26  H
    4.36078668    6.32274441    0.00000000   4      27  H
    8.23138245    1.81953520    0.00000000   1      28  O
   10.66933042    3.43079197    0.00000000   4      29  H

outcell: Unit cell vectors (Ang):
       25.902526    0.000000    0.000000
        0.000000   20.521700    0.000000
        0.000000    0.000000    9.854683

outcell: Cell vector modules (Ang)   :   25.902526   20.521700    9.854683
outcell: Cell angles (23,13,12) (deg):     90.0000     90.0000     90.0000
outcell: Cell volume (Ang**3)        :   5238.3934
<dSpData1D:S at geom step 0
  <sparsity:sparsity for geom step 0
    nrows_g=297 nrows=81 sparsity=.1683 nnzs=14848, refcount: 8>
  <dData1D:(new from dSpData1D) n=14848, refcount: 1>
refcount: 1>
new_DM -- step:     1
Initializing Density Matrix...
DM filled with atomic data:
<dSpData2D:DM initialized from atoms
  <sparsity:sparsity for geom step 0
    nrows_g=297 nrows=81 sparsity=.1683 nnzs=14848, refcount: 9>
  <dData2D:DM n=14848 m=8, refcount: 1>
refcount: 1>
     spin moment: S , {S} =   56.00000   0.00000   0.00000  56.00000
No. of atoms with KB's overlaping orbs in proc 0. Max # of overlaps:      29     150

Initializing spin-orbit part of the Hamiltonian
  Adding spin-orbit effects for O 
  Adding spin-orbit effects for N 
  Adding spin-orbit effects for Si
  Adding spin-orbit effects for H 


New grid distribution:   1
           1       1:  144    1:   60    1:   30
           2       1:  144    1:   60   31:   60
           3       1:  144   61:  120    1:   30
           4       1:  144   61:  120   31:   60

InitMesh: MESH =   288 x   240 x   120 =     8294400
InitMesh: (bp) =   144 x   120 x    60 =     1036800
InitMesh: Mesh cutoff (required, used) =   340.000   341.667 Ry
ExtMesh (bp) on 0 =   244 x   168 x   142 =     5820864
New grid distribution:   2
           1      46:  144    1:   32    1:   60
           2       1:   45    1:   32    1:   60
           3      46:  144   33:  120    1:   60
           4       1:   45   33:  120    1:   60
New grid distribution:   3
           1      50:  144    1:   36    1:   60
           2       1:   49    1:   39    1:   60
           3      50:  144   37:  120    1:   60
           4       1:   49   40:  120    1:   60
Setting up quadratic distribution...
ExtMesh (bp) on 0 =   199 x   140 x   172 =     4791920
PhiOnMesh: Number of (b)points on node 0 =               190080
PhiOnMesh: nlist on node 0 =              2511594

stepf: Fermi-Dirac step function

siesta: Program's energy decomposition (eV):
siesta: Ebs     =      -617.548347
siesta: Eions   =      3585.165840
siesta: Ena     =       382.018986
siesta: Ekin    =      3369.780668
siesta: Enl     =     -3298.347805
siesta: Eso     =        -0.003409
siesta: Edftu   =         0.000000
siesta: DEna    =       153.721381
siesta: DUscf   =        81.618099
siesta: DUext   =         0.000000
siesta: Exc     =     -1204.150473
siesta: eta*DQ  =         0.000000
siesta: Emadel  =         0.000000
siesta: Emeta   =         0.000000
siesta: Emolmec =         0.000000
siesta: Ekinion =         0.000000
siesta: Eharris =     -4021.131170
siesta: Etot    =     -4100.528391
siesta: FreeEng =     -4100.529815

        iscf     Eharris(eV)        E_KS(eV)     FreeEng(eV)     dDmax    Ef(eV) dHmax(eV)
   scf:    1    -4021.131170    -4100.528391    -4100.529815  0.964980 -4.904512 21.790723
     spin moment: S , {S} =    2.00729   0.00000   0.00000   2.00729
timer: Routine,Calls,Time,% = IterSCF        1      14.153  18.15
   scf:    2    -4147.690343    -4136.121012    -4136.122661  0.453330 -4.217126 11.468890
     spin moment: S , {S} =    1.99021   0.00000   0.00000   1.99021
   scf:    3    -4109.291610    -4133.942569    -4133.955675  0.423289 -4.320016 11.653733
     spin moment: S , {S} =    2.02212  -0.00000  -0.00000   2.02212
   scf:    4    -4149.592034    -4145.005364    -4145.005365  0.310996 -3.899121  6.355957
     spin moment: S , {S} =    0.00010   0.00000  -0.00000   0.00010
   scf:    5    -4146.294309    -4145.751642    -4145.751642  0.035637 -3.687181  4.260822
     spin moment: S , {S} =    0.00006  -0.00000   0.00000   0.00006
   scf:    6    -4146.526261    -4146.148174    -4146.148174  0.024461 -3.511532  2.082243
     spin moment: S , {S} =    0.00003  -0.00000  -0.00000   0.00003
   scf:    7    -4146.495531    -4146.318719    -4146.318719  0.021113 -3.708962  0.892040
     spin moment: S , {S} =    0.00001   0.00000   0.00000   0.00001
   scf:    8    -4146.439368    -4146.377026    -4146.377026  0.012537 -3.788619  0.496596
     spin moment: S , {S} =    0.00000   0.00000  -0.00000   0.00000
   scf:    9    -4146.414982    -4146.395336    -4146.395336  0.006501 -3.747094  0.365032
     spin moment: S , {S} =    0.00000  -0.00000  -0.00000   0.00000
   scf:   10    -4146.445494    -4146.414789    -4146.414789  0.020658 -3.790763  0.217573
     spin moment: S , {S} =    0.00000  -0.00000   0.00000  -0.00000
   scf:   11    -4146.418320    -4146.416520    -4146.416520  0.005647 -3.781871  0.056874
     spin moment: S , {S} =    0.00000   0.00000   0.00000  -0.00000
   scf:   12    -4146.417461    -4146.417003    -4146.417003  0.001083 -3.777049  0.024139
     spin moment: S , {S} =    0.00000   0.00000   0.00000   0.00000
   scf:   13    -4146.417422    -4146.417209    -4146.417209  0.001304 -3.774348  0.015168
     spin moment: S , {S} =    0.00000   0.00000   0.00000   0.00000
   scf:   14    -4146.417446    -4146.417321    -4146.417321  0.001178 -3.773717  0.012098
     spin moment: S , {S} =    0.00000   0.00000   0.00000   0.00000
   scf:   15    -4146.417435    -4146.417374    -4146.417374  0.001022 -3.772974  0.009030
     spin moment: S , {S} =    0.00000   0.00000   0.00000   0.00000
   scf:   16    -4146.417456    -4146.417409    -4146.417409  0.001112 -3.773722  0.005860
     spin moment: S , {S} =    0.00000   0.00000   0.00000   0.00000
   scf:   17    -4146.417433    -4146.417420    -4146.417420  0.000574 -3.773774  0.004238
     spin moment: S , {S} =    0.00000   0.00000   0.00000   0.00000
   scf:   18    -4146.417430    -4146.417424    -4146.417424  0.000397 -3.773977  0.002442
     spin moment: S , {S} =    0.00000   0.00000   0.00000   0.00000
   scf:   19    -4146.417429    -4146.417426    -4146.417426  0.000287 -3.774126  0.001427
     spin moment: S , {S} =    0.00000   0.00000   0.00000   0.00000
   scf:   20    -4146.417428    -4146.417427    -4146.417427  0.000176 -3.774109  0.000810
     spin moment: S , {S} =    0.00000   0.00000   0.00000   0.00000
   scf:   21    -4146.417428    -4146.417427    -4146.417427  0.000138 -3.774084  0.000278
     spin moment: S , {S} =    0.00000   0.00000   0.00000   0.00000
   scf:   22    -4146.417428    -4146.417428    -4146.417428  0.000049 -3.774047  0.000115
     spin moment: S , {S} =    0.00000   0.00000   0.00000   0.00000
   scf:   23    -4146.417428    -4146.417428    -4146.417428  0.000011 -3.774044  0.000074
     spin moment: S , {S} =    0.00000   0.00000   0.00000   0.00000
   scf:   24    -4146.417428    -4146.417428    -4146.417428  0.000003 -3.774040  0.000038
     spin moment: S , {S} =    0.00000   0.00000   0.00000   0.00000
mix: Pulay -- resetting history
   scf:   25    -4146.417428    -4146.417428    -4146.417428  0.000003 -3.774037  0.000026
     spin moment: S , {S} =    0.00000   0.00000   0.00000   0.00000
   scf:   26    -4146.417428    -4146.417428    -4146.417428  0.000002 -3.774035  0.000015
     spin moment: S , {S} =    0.00000   0.00000   0.00000   0.00000
   scf:   27    -4146.417428    -4146.417428    -4146.417428  0.000001 -3.774035  0.000008
     spin moment: S , {S} =    0.00000   0.00000   0.00000   0.00000
   scf:   28    -4146.417428    -4146.417428    -4146.417428  0.000001 -3.774035  0.000004
     spin moment: S , {S} =    0.00000   0.00000   0.00000   0.00000
   scf:   29    -4146.417428    -4146.417428    -4146.417428  0.000000 -3.774035  0.000002
     spin moment: S , {S} =    0.00000   0.00000   0.00000   0.00000
   scf:   30    -4146.417428    -4146.417428    -4146.417428  0.000000 -3.774035  0.000001
     spin moment: S , {S} =    0.00000   0.00000   0.00000   0.00000
   scf:   31    -4146.417428    -4146.417428    -4146.417428  0.000000 -3.774035  0.000001
     spin moment: S , {S} =    0.00000   0.00000   0.00000   0.00000

SCF Convergence by DM+H criterion
max |DM_out - DM_in|         :     0.0000001850
max |H_out - H_in|      (eV) :     0.0000008138
SCF cycle converged after 31 iterations

Using DM_out to compute the final energy and forces
No. of atoms with KB's overlaping orbs in proc 0. Max # of overlaps:      29     150

siesta: E_KS(eV) =            -4146.4174

siesta: E_KS - E_eggbox =     -4146.4174
     spin moment: S , {S} =    0.00000   0.00000   0.00000   0.00000

siesta: Atomic forces (eV/Ang):
     1    1.670741   -2.408213   -0.000000
     2    0.004309    0.023169   -0.000000
     3    0.734560   -0.360246    0.000000
     4    0.725954   -0.033560    0.000000
     5    0.051245   -0.095947    0.000000
     6    1.715145    0.654172    0.000000
     7    0.043413   -0.251495   -0.000000
     8   -0.402804    0.281233    0.000000
     9   -0.177251    1.234192   -0.000000
    10   -0.994749    0.357457   -0.000000
    11   -0.022429   -0.020528   -0.000000
    12   -0.233203   -0.098840   -0.000000
    13   -0.063561    0.087344    0.000000
    14    0.220067   -0.053944   -0.000000
    15   -1.356253   -0.984257    0.000000
    16   -0.034507    0.132582    0.000000
    17    0.987119   -1.090560   -0.000000
    18   -0.211659    0.195004   -0.000000
    19   -0.191124   -1.216253   -0.000000
    20   -0.015911   -0.408290    0.000000
    21   -0.303856    1.009536    0.000000
    22   -2.188956   -0.904643    0.000000
    23    0.253677    0.535032   -0.000000
    24    0.011836   -0.040383   -0.000000
    25    0.047721    0.023383   -0.000000
    26   -0.242193   -0.183028   -0.000000
    27    1.622768    1.360673    0.000000
    28    0.524952   -3.242019    0.000000
    29   -0.011914    0.082600    0.000000
----------------------------------------
   Tot    2.163141   -5.415828   -0.000000
----------------------------------------
   Max    3.242019
   Res    0.723020    sqrt( Sum f_i^2 / 3N )
----------------------------------------
   Max    3.242019    constrained

Stress tensor Voigt[x,y,z,yz,xz,xy] (kbar):        0.38        1.49       -0.09        0.00        0.00        1.44
(Free)E + p*V (eV/cell)    -4148.3630
Target enthalpy (eV/cell)    -4146.4174

mulliken: Atomic and Orbital Populations:

Species: O                   

Atom      Orb        Charge      Spin       Svec
----------------------------------------------------------------
    1  1 2s         1.74721   0.00000      0.000  -0.000  -0.000
    1  2 2s         0.06591   0.00000     -0.000  -0.000   0.000
    1  3 2py        1.43164   0.00000      0.000   0.000  -0.000
    1  4 2pz        1.54826   0.00000      0.000  -0.000  -0.000
    1  5 2px        1.62768   0.00000      0.000  -0.000  -0.000
    1  6 2py        0.03592   0.00000     -0.000  -0.000   0.000
    1  7 2pz       -0.00700   0.00000     -0.000   0.000   0.000
    1  8 2px        0.00474   0.00000     -0.000   0.000   0.000
    1  9 3Pdxy      0.00691   0.00000      0.000   0.000   0.000
    1 10 3Pdyz      0.00893   0.00000     -0.000  -0.000   0.000
    1 11 3Pdz2      0.00156   0.00000     -0.000  -0.000  -0.000
    1 12 3Pdxz      0.00036   0.00000      0.000   0.000   0.000
    1 13 3Pdx2-y2   0.00687   0.00000     -0.000  -0.000   0.000
    1     Total     6.47902   0.00000      0.000   0.000  -0.000

   28  1 2s         1.74839   0.00000      0.000  -0.000   0.000
   28  2 2s         0.06316   0.00000     -0.000   0.000   0.000
   28  3 2py        1.41439   0.00000      0.000   0.000   0.000
   28  4 2pz        1.54768   0.00000      0.000   0.000  -0.000
   28  5 2px        1.64666   0.00000      0.000   0.000   0.000
   28  6 2py        0.03941   0.00000     -0.000  -0.000   0.000
   28  7 2pz       -0.00596   0.00000     -0.000   0.000   0.000
   28  8 2px        0.00981   0.00000      0.000  -0.000   0.000
   28  9 3Pdxy      0.00633   0.00000      0.000  -0.000   0.000
   28 10 3Pdyz      0.00967   0.00000      0.000  -0.000   0.000
   28 11 3Pdz2      0.00125   0.00000      0.000  -0.000  -0.000
   28 12 3Pdxz     -0.00018   0.00000     -0.000   0.000  -0.000
   28 13 3Pdx2-y2   0.00772   0.00000      0.000  -0.000  -0.000
   28     Total     6.48834   0.00000      0.000   0.000   0.000

----------------------------------------------------------------
Total              12.96736   0.00000      0.000   0.000   0.000


Species: N                   

Atom      Orb        Charge      Spin       Svec
----------------------------------------------------------------
    2  1 2s         1.55098   0.00000      0.000   0.000  -0.000
    2  2 2s         0.08429   0.00000     -0.000  -0.000   0.000
    2  3 2py        1.04415   0.00000     -0.000  -0.000  -0.000
    2  4 2pz        1.22429   0.00000     -0.000  -0.000  -0.000
    2  5 2px        0.99032   0.00000     -0.000   0.000  -0.000
    2  6 2py        0.18826   0.00000      0.000   0.000   0.000
    2  7 2pz        0.05537   0.00000      0.000   0.000   0.000
    2  8 2px        0.19568   0.00000     -0.000  -0.000   0.000
    2  9 3Pdxy      0.00838   0.00000     -0.000  -0.000   0.000
    2 10 3Pdyz      0.01098   0.00000      0.000   0.000   0.000
    2 11 3Pdz2      0.00195   0.00000     -0.000   0.000   0.000
    2 12 3Pdxz      0.00758   0.00000     -0.000  -0.000   0.000
    2 13 3Pdx2-y2   0.00907   0.00000     -0.000   0.000  -0.000
    2     Total     5.37131   0.00000     -0.000  -0.000  -0.000

    3  1 2s         1.39984   0.00000     -0.000   0.000  -0.000
    3  2 2s         0.11680   0.00000      0.000  -0.000   0.000
    3  3 2py        0.94158   0.00000      0.000   0.000  -0.000
    3  4 2pz        1.54391   0.00000      0.000  -0.000  -0.000
    3  5 2px        1.08267   0.00000     -0.000  -0.000   0.000
    3  6 2py        0.24864   0.00000     -0.000  -0.000   0.000
    3  7 2pz        0.00695   0.00000     -0.000   0.000   0.000
    3  8 2px        0.17831   0.00000      0.000   0.000   0.000
    3  9 3Pdxy      0.00394   0.00000     -0.000   0.000   0.000
    3 10 3Pdyz      0.00414   0.00000     -0.000  -0.000  -0.000
    3 11 3Pdz2      0.00073   0.00000     -0.000  -0.000   0.000
    3 12 3Pdxz      0.00277   0.00000      0.000  -0.000  -0.000
    3 13 3Pdx2-y2   0.00279   0.00000     -0.000  -0.000  -0.000
    3     Total     5.53308   0.00000     -0.000  -0.000  -0.000

    4  1 2s         1.46001   0.00000     -0.000   0.000  -0.000
    4  2 2s         0.11886   0.00000      0.000  -0.000   0.000
    4  3 2py        1.13060   0.00000     -0.000  -0.000   0.000
    4  4 2pz        1.29488   0.00000      0.000   0.000   0.000
    4  5 2px        0.82604   0.00000     -0.000   0.000   0.000
    4  6 2py        0.14964   0.00000      0.000   0.000   0.000
    4  7 2pz        0.05347   0.00000     -0.000  -0.000   0.000
    4  8 2px        0.29230   0.00000     -0.000  -0.000   0.000
    4  9 3Pdxy      0.00870   0.00000      0.000   0.000   0.000
    4 10 3Pdyz      0.01045   0.00000     -0.000   0.000  -0.000
    4 11 3Pdz2      0.00126   0.00000     -0.000  -0.000   0.000
    4 12 3Pdxz      0.00495   0.00000      0.000  -0.000  -0.000
    4 13 3Pdx2-y2   0.00798   0.00000      0.000   0.000  -0.000
    4     Total     5.35913   0.00000     -0.000  -0.000   0.000

    5  1 2s         1.37625   0.00000      0.000   0.000  -0.000
    5  2 2s         0.12794   0.00000     -0.000  -0.000   0.000
    5  3 2py        1.02640   0.00000      0.000   0.000  -0.000
    5  4 2pz        1.50079   0.00000      0.000  -0.000  -0.000
    5  5 2px        1.06004   0.00000      0.000  -0.000  -0.000
    5  6 2py        0.20364   0.00000     -0.000  -0.000   0.000
    5  7 2pz        0.01342   0.00000      0.000   0.000   0.000
    5  8 2px        0.20096   0.00000     -0.000   0.000   0.000
    5  9 3Pdxy      0.00393   0.00000      0.000  -0.000   0.000
    5 10 3Pdyz      0.00241   0.00000     -0.000   0.000   0.000
    5 11 3Pdz2      0.00142   0.00000      0.000  -0.000   0.000
    5 12 3Pdxz      0.00684   0.00000      0.000   0.000   0.000
    5 13 3Pdx2-y2   0.00559   0.00000     -0.000   0.000   0.000
    5     Total     5.52963   0.00000      0.000   0.000  -0.000

    6  1 2s         1.26960   0.00000     -0.000   0.000  -0.000
    6  2 2s         0.17931   0.00000      0.000  -0.000   0.000
    6  3 2py        1.07788   0.00000     -0.000  -0.000  -0.000
    6  4 2pz        1.57141   0.00000      0.000  -0.000  -0.000
    6  5 2px        0.95731   0.00000      0.000  -0.000  -0.000
    6  6 2py        0.18781   0.00000     -0.000   0.000   0.000
    6  7 2pz        0.02998   0.00000     -0.000   0.000   0.000
    6  8 2px        0.25566   0.00000     -0.000  -0.000   0.000
    6  9 3Pdxy      0.00236   0.00000      0.000  -0.000   0.000
    6 10 3Pdyz      0.00015   0.00000     -0.000  -0.000  -0.000
    6 11 3Pdz2      0.00174   0.00000     -0.000  -0.000   0.000
    6 12 3Pdxz      0.00329   0.00000     -0.000   0.000  -0.000
    6 13 3Pdx2-y2   0.00397   0.00000      0.000  -0.000  -0.000
    6     Total     5.54047   0.00000      0.000  -0.000  -0.000

   21  1 2s         1.42276   0.00000      0.000  -0.000   0.000
   21  2 2s         0.12854   0.00000     -0.000   0.000   0.000
   21  3 2py        0.87213   0.00000     -0.000  -0.000   0.000
   21  4 2pz        1.29596   0.00000     -0.000  -0.000   0.000
   21  5 2px        1.15763   0.00000      0.000   0.000   0.000
   21  6 2py        0.27534   0.00000      0.000   0.000   0.000
   21  7 2pz        0.04874   0.00000      0.000   0.000   0.000
   21  8 2px        0.16252   0.00000     -0.000  -0.000   0.000
   21  9 3Pdxy      0.00640   0.00000      0.000   0.000   0.000
   21 10 3Pdyz      0.00501   0.00000      0.000  -0.000  -0.000
   21 11 3Pdz2      0.00016   0.00000     -0.000   0.000  -0.000
   21 12 3Pdxz      0.00578   0.00000     -0.000   0.000  -0.000
   21 13 3Pdx2-y2   0.00560   0.00000     -0.000  -0.000  -0.000
   21     Total     5.38656   0.00000      0.000  -0.000   0.000

   22  1 2s         1.29467   0.00000     -0.000  -0.000  -0.000
   22  2 2s         0.16787   0.00000      0.000   0.000   0.000
   22  3 2py        1.05833   0.00000      0.000   0.000  -0.000
   22  4 2pz        1.55390   0.00000     -0.000  -0.000  -0.000
   22  5 2px        0.98530   0.00000     -0.000  -0.000  -0.000
   22  6 2py        0.19627   0.00000     -0.000   0.000   0.000
   22  7 2pz        0.02847   0.00000     -0.000   0.000   0.000
   22  8 2px        0.23466   0.00000      0.000   0.000   0.000
   22  9 3Pdxy      0.00323   0.00000     -0.000  -0.000  -0.000
   22 10 3Pdyz      0.00034   0.00000     -0.000   0.000   0.000
   22 11 3Pdz2      0.00253   0.00000      0.000  -0.000   0.000
   22 12 3Pdxz      0.00321   0.00000     -0.000   0.000  -0.000
   22 13 3Pdx2-y2   0.00475   0.00000      0.000   0.000  -0.000
   22     Total     5.53354   0.00000     -0.000  -0.000  -0.000

   23  1 2s         1.39668   0.00000     -0.000  -0.000   0.000
   23  2 2s         0.11816   0.00000      0.000   0.000  -0.000
   23  3 2py        1.00763   0.00000      0.000   0.000  -0.000
   23  4 2pz        1.52565   0.00000     -0.000   0.000  -0.000
   23  5 2px        1.06457   0.00000      0.000  -0.000  -0.000
   23  6 2py        0.21124   0.00000     -0.000  -0.000   0.000
   23  7 2pz        0.00490   0.00000      0.000  -0.000   0.000
   23  8 2px        0.19800   0.00000     -0.000  -0.000   0.000
   23  9 3Pdxy      0.00528   0.00000      0.000  -0.000  -0.000
   23 10 3Pdyz      0.00445   0.00000      0.000   0.000  -0.000
   23 11 3Pdz2      0.00064   0.00000     -0.000   0.000  -0.000
   23 12 3Pdxz      0.00244   0.00000      0.000  -0.000  -0.000
   23 13 3Pdx2-y2   0.00136   0.00000     -0.000  -0.000  -0.000
   23     Total     5.54099   0.00000      0.000  -0.000  -0.000

----------------------------------------------------------------
Total              56.76209   0.00000      0.000   0.000  -0.000


Species: Si                  

Atom      Orb        Charge      Spin       Svec
----------------------------------------------------------------
    7  1 3s         0.66804   0.00000      0.000   0.000   0.000
    7  2 3s         0.36468   0.00000     -0.000  -0.000   0.000
    7  3 3py        0.48848   0.00000      0.000  -0.000   0.000
    7  4 3pz        0.69228   0.00000     -0.000   0.000   0.000
    7  5 3px        0.12527   0.00000     -0.000   0.000  -0.000
    7  6 3py        0.26423   0.00000     -0.000   0.000   0.000
    7  7 3pz        0.25886   0.00000      0.000  -0.000   0.000
    7  8 3px        0.43791   0.00000     -0.000  -0.000   0.000
    7  9 3Pdxy      0.24549   0.00000      0.000  -0.000   0.000
    7 10 3Pdyz      0.02929   0.00000     -0.000  -0.000   0.000
    7 11 3Pdz2      0.01175   0.00000     -0.000  -0.000   0.000
    7 12 3Pdxz      0.14551   0.00000      0.000   0.000  -0.000
    7 13 3Pdx2-y2   0.11286   0.00000      0.000   0.000   0.000
    7     Total     3.84466   0.00000      0.000  -0.000   0.000

    8  1 3s         0.65660   0.00000     -0.000   0.000   0.000
    8  2 3s         0.36860   0.00000      0.000  -0.000   0.000
    8  3 3py        0.38827   0.00000     -0.000   0.000  -0.000
    8  4 3pz        0.52403   0.00000      0.000   0.000   0.000
    8  5 3px       -0.03030   0.00000     -0.000  -0.000   0.000
    8  6 3py        0.30883   0.00000      0.000  -0.000   0.000
    8  7 3pz        0.20220   0.00000     -0.000  -0.000   0.000
    8  8 3px        0.51464   0.00000      0.000   0.000   0.000
    8  9 3Pdxy      0.24613   0.00000     -0.000  -0.000   0.000
    8 10 3Pdyz      0.11218   0.00000      0.000  -0.000  -0.000
    8 11 3Pdz2      0.01446   0.00000      0.000   0.000   0.000
    8 12 3Pdxz      0.15357   0.00000     -0.000   0.000   0.000
    8 13 3Pdx2-y2   0.20034   0.00000     -0.000   0.000   0.000
    8     Total     3.65954   0.00000      0.000   0.000   0.000

    9  1 3s         0.60460   0.00000     -0.000   0.000   0.000
    9  2 3s         0.36615   0.00000      0.000  -0.000  -0.000
    9  3 3py        0.07465   0.00000     -0.000   0.000   0.000
    9  4 3pz        0.48516   0.00000     -0.000   0.000  -0.000
    9  5 3px        0.37977   0.00000      0.000  -0.000  -0.000
    9  6 3py        0.44789   0.00000     -0.000  -0.000   0.000
    9  7 3pz        0.18682   0.00000     -0.000  -0.000  -0.000
    9  8 3px        0.27322   0.00000     -0.000  -0.000   0.000
    9  9 3Pdxy      0.31195   0.00000     -0.000  -0.000   0.000
    9 10 3Pdyz      0.19041   0.00000     -0.000  -0.000  -0.000
    9 11 3Pdz2      0.01642   0.00000     -0.000  -0.000   0.000
    9 12 3Pdxz      0.09794   0.00000     -0.000  -0.000  -0.000
    9 13 3Pdx2-y2   0.17244   0.00000     -0.000  -0.000   0.000
    9     Total     3.60744   0.00000     -0.000  -0.000  -0.000

   10  1 3s         0.48231   0.00000      0.000   0.000  -0.000
   10  2 3s         0.37791   0.00000     -0.000  -0.000   0.000
   10  3 3py        0.24099   0.00000      0.000   0.000  -0.000
   10  4 3pz        0.40816   0.00000     -0.000   0.000   0.000
   10  5 3px        0.10120   0.00000      0.000   0.000  -0.000
   10  6 3py        0.32748   0.00000      0.000   0.000   0.000
   10  7 3pz        0.22268   0.00000      0.000  -0.000   0.000
   10  8 3px        0.42926   0.00000      0.000   0.000  -0.000
   10  9 3Pdxy      0.16949   0.00000     -0.000   0.000  -0.000
   10 10 3Pdyz      0.13943   0.00000     -0.000  -0.000   0.000
   10 11 3Pdz2      0.01028   0.00000      0.000   0.000  -0.000
   10 12 3Pdxz      0.17500   0.00000     -0.000  -0.000   0.000
   10 13 3Pdx2-y2   0.30982   0.00000     -0.000  -0.000  -0.000
   10     Total     3.39401   0.00000      0.000   0.000   0.000

   11  1 3s         0.55267   0.00000      0.000  -0.000   0.000
   11  2 3s         0.38529   0.00000     -0.000   0.000   0.000
   11  3 3py        0.32200   0.00000      0.000  -0.000   0.000
   11  4 3pz        0.54105   0.00000      0.000  -0.000   0.000
   11  5 3px        0.12463   0.00000     -0.000   0.000   0.000
   11  6 3py        0.28675   0.00000     -0.000  -0.000   0.000
   11  7 3pz        0.17732   0.00000     -0.000   0.000   0.000
   11  8 3px        0.44617   0.00000      0.000  -0.000   0.000
   11  9 3Pdxy      0.22537   0.00000     -0.000  -0.000   0.000
   11 10 3Pdyz      0.12638   0.00000     -0.000   0.000   0.000
   11 11 3Pdz2      0.00959   0.00000      0.000  -0.000   0.000
   11 12 3Pdxz      0.05282   0.00000     -0.000  -0.000   0.000
   11 13 3Pdx2-y2   0.20388   0.00000      0.000  -0.000   0.000
   11     Total     3.45392   0.00000     -0.000  -0.000   0.000

   17  1 3s         0.63827   0.00000     -0.000   0.000   0.000
   17  2 3s         0.36103   0.00000      0.000   0.000  -0.000
   17  3 3py        0.22640   0.00000     -0.000   0.000  -0.000
   17  4 3pz        0.42205   0.00000      0.000   0.000  -0.000
   17  5 3px        0.24489   0.00000      0.000  -0.000   0.000
   17  6 3py        0.38766   0.00000      0.000  -0.000  -0.000
   17  7 3pz        0.21176   0.00000     -0.000  -0.000   0.000
   17  8 3px        0.36914   0.00000     -0.000   0.000  -0.000
   17  9 3Pdxy      0.30126   0.00000      0.000   0.000  -0.000
   17 10 3Pdyz      0.14257   0.00000      0.000   0.000   0.000
   17 11 3Pdz2      0.00901   0.00000     -0.000   0.000   0.000
   17 12 3Pdxz      0.14335   0.00000      0.000  -0.000   0.000
   17 13 3Pdx2-y2   0.16373   0.00000      0.000   0.000   0.000
   17     Total     3.62113   0.00000      0.000   0.000   0.000

   18  1 3s         0.74410   0.00000     -0.000  -0.000   0.000
   18  2 3s         0.33976   0.00000      0.000   0.000   0.000
   18  3 3py        0.07845   0.00000      0.000  -0.000   0.000
   18  4 3pz        0.82013   0.00000     -0.000  -0.000   0.000
   18  5 3px        0.55538   0.00000     -0.000   0.000   0.000
   18  6 3py        0.51872   0.00000     -0.000   0.000   0.000
   18  7 3pz        0.19790   0.00000      0.000  -0.000   0.000
   18  8 3px        0.25035   0.00000      0.000  -0.000   0.000
   18  9 3Pdxy      0.10326   0.00000     -0.000   0.000  -0.000
   18 10 3Pdyz      0.02750   0.00000     -0.000   0.000  -0.000
   18 11 3Pdz2      0.00869   0.00000     -0.000  -0.000  -0.000
   18 12 3Pdxz      0.03031   0.00000     -0.000  -0.000  -0.000
   18 13 3Pdx2-y2   0.11280   0.00000     -0.000   0.000   0.000
   18     Total     3.78735   0.00000     -0.000  -0.000   0.000

   19  1 3s         0.45982   0.00000     -0.000   0.000   0.000
   19  2 3s         0.36484   0.00000      0.000  -0.000  -0.000
   19  3 3py        0.08341   0.00000     -0.000  -0.000   0.000
   19  4 3pz        0.42957   0.00000     -0.000  -0.000  -0.000
   19  5 3px        0.35858   0.00000      0.000   0.000  -0.000
   19  6 3py        0.46997   0.00000      0.000  -0.000  -0.000
   19  7 3pz        0.18243   0.00000      0.000   0.000  -0.000
   19  8 3px        0.23794   0.00000     -0.000   0.000   0.000
   19  9 3Pdxy      0.34148   0.00000     -0.000  -0.000  -0.000
   19 10 3Pdyz      0.18902   0.00000     -0.000  -0.000  -0.000
   19 11 3Pdz2      0.01596   0.00000      0.000   0.000  -0.000
   19 12 3Pdxz      0.08865   0.00000     -0.000  -0.000   0.000
   19 13 3Pdx2-y2   0.23885   0.00000     -0.000   0.000   0.000
   19     Total     3.46050   0.00000     -0.000  -0.000  -0.000

   20  1 3s         0.67352   0.00000     -0.000  -0.000  -0.000
   20  2 3s         0.37791   0.00000     -0.000   0.000  -0.000
   20  3 3py        0.33010   0.00000     -0.000  -0.000  -0.000
   20  4 3pz        0.59173   0.00000      0.000  -0.000  -0.000
   20  5 3px        0.13818   0.00000     -0.000   0.000  -0.000
   20  6 3py        0.29219   0.00000      0.000  -0.000   0.000
   20  7 3pz        0.16367   0.00000     -0.000   0.000  -0.000
   20  8 3px        0.49973   0.00000     -0.000  -0.000   0.000
   20  9 3Pdxy      0.10004   0.00000     -0.000   0.000  -0.000
   20 10 3Pdyz      0.13357   0.00000      0.000  -0.000  -0.000
   20 11 3Pdz2      0.00736   0.00000      0.000   0.000   0.000
   20 12 3Pdxz      0.02691   0.00000     -0.000  -0.000   0.000
   20 13 3Pdx2-y2   0.17227   0.00000      0.000   0.000   0.000
   20     Total     3.50719   0.00000     -0.000  -0.000  -0.000

----------------------------------------------------------------
Total              89.09783   0.00000     -0.000   0.000   0.000


Species: H                   

Atom      Orb        Charge      Spin       Svec
----------------------------------------------------------------
   12  1 1s         0.49486   0.00000     -0.000   0.000  -0.000
   12  2 1s         0.18231   0.00000     -0.000  -0.000   0.000
   12  3 2Ppy       0.02899   0.00000     -0.000  -0.000  -0.000
   12  4 2Ppz       0.03366   0.00000     -0.000  -0.000  -0.000
   12  5 2Ppx       0.02282   0.00000      0.000   0.000  -0.000
   12     Total     0.76264   0.00000     -0.000   0.000  -0.000

   13  1 1s         1.01896   0.00000      0.000   0.000  -0.000
   13  2 1s         0.09562   0.00000     -0.000  -0.000   0.000
   13  3 2Ppy       0.01808   0.00000     -0.000  -0.000  -0.000
   13  4 2Ppz       0.02010   0.00000     -0.000   0.000   0.000
   13  5 2Ppx       0.03510   0.00000     -0.000  -0.000   0.000
   13     Total     1.18786   0.00000     -0.000   0.000  -0.000

   14  1 1s         0.46056   0.00000      0.000   0.000  -0.000
   14  2 1s         0.19999   0.00000     -0.000   0.000   0.000
   14  3 2Ppy       0.01794   0.00000     -0.000  -0.000  -0.000
   14  4 2Ppz       0.04543   0.00000     -0.000   0.000  -0.000
   14  5 2Ppx       0.01713   0.00000     -0.000   0.000   0.000
   14     Total     0.74105   0.00000     -0.000   0.000  -0.000

   15  1 1s         0.49228   0.00000     -0.000  -0.000  -0.000
   15  2 1s         0.17909   0.00000      0.000  -0.000   0.000
   15  3 2Ppy       0.00511   0.00000      0.000  -0.000   0.000
   15  4 2Ppz       0.04131   0.00000     -0.000   0.000  -0.000
   15  5 2Ppx       0.02845   0.00000     -0.000   0.000   0.000
   15     Total     0.74624   0.00000     -0.000  -0.000  -0.000

   16  1 1s         0.50982   0.00000     -0.000  -0.000   0.000
   16  2 1s         0.18725   0.00000     -0.000   0.000   0.000
   16  3 2Ppy       0.02979   0.00000     -0.000  -0.000   0.000
   16  4 2Ppz       0.03981   0.00000      0.000  -0.000  -0.000
   16  5 2Ppx       0.02359   0.00000      0.000   0.000  -0.000
   16     Total     0.79027   0.00000     -0.000  -0.000   0.000

   24  1 1s         1.06299   0.00000      0.000   0.000  -0.000
   24  2 1s         0.07433   0.00000     -0.000   0.000   0.000
   24  3 2Ppy       0.03215   0.00000      0.000  -0.000   0.000
   24  4 2Ppz       0.03065   0.00000      0.000   0.000   0.000
   24  5 2Ppx       0.01729   0.00000     -0.000  -0.000  -0.000
   24     Total     1.21741   0.00000      0.000   0.000  -0.000

   25  1 1s         1.04328   0.00000      0.000  -0.000  -0.000
   25  2 1s         0.08643   0.00000     -0.000   0.000  -0.000
   25  3 2Ppy       0.01226   0.00000     -0.000  -0.000  -0.000
   25  4 2Ppz       0.01851   0.00000     -0.000  -0.000  -0.000
   25  5 2Ppx       0.03570   0.00000      0.000   0.000   0.000
   25     Total     1.19618   0.00000      0.000  -0.000  -0.000

   26  1 1s         0.47430   0.00000     -0.000   0.000  -0.000
   26  2 1s         0.19630   0.00000      0.000  -0.000   0.000
   26  3 2Ppy       0.02100   0.00000     -0.000   0.000  -0.000
   26  4 2Ppz       0.04870   0.00000     -0.000   0.000   0.000
   26  5 2Ppx       0.01600   0.00000      0.000  -0.000  -0.000
   26     Total     0.75629   0.00000     -0.000   0.000  -0.000

   27  1 1s         0.50644   0.00000      0.000  -0.000  -0.000
   27  2 1s         0.16947   0.00000     -0.000   0.000   0.000
   27  3 2Ppy       0.00674   0.00000      0.000  -0.000  -0.000
   27  4 2Ppz       0.03654   0.00000      0.000   0.000  -0.000
   27  5 2Ppx       0.02898   0.00000      0.000  -0.000   0.000
   27     Total     0.74819   0.00000      0.000   0.000  -0.000

   29  1 1s         0.48473   0.00000     -0.000  -0.000  -0.000
   29  2 1s         0.18764   0.00000      0.000   0.000   0.000
   29  3 2Ppy       0.02510   0.00000      0.000  -0.000  -0.000
   29  4 2Ppz       0.03440   0.00000      0.000  -0.000  -0.000
   29  5 2Ppx       0.02417   0.00000      0.000  -0.000  -0.000
   29     Total     0.75604   0.00000     -0.000  -0.000  -0.000

----------------------------------------------------------------
Total              98.00000   0.00000      0.000   0.000   0.000


siesta: Eigenvalues (eV):
ik =     1
  -21.8512  -21.8512  -21.8140  -21.8140  -21.5797  -21.5797  -21.5425  -21.5425  -21.2316  -21.2316
  -21.0191  -21.0191  -20.8099  -20.8099  -19.8084  -19.8084  -19.3974  -19.3974  -19.3629  -19.3629
  -14.7451  -14.7451  -13.8730  -13.8730  -13.3330  -13.3330  -13.1625  -13.1625  -13.1024  -13.1024
  -12.8570  -12.8570  -12.8054  -12.8054  -12.4282  -12.4282  -12.3726  -12.3726  -12.0193  -12.0193
  -11.4220  -11.4220  -10.8032  -10.8032  -10.7455  -10.7455  -10.6964  -10.6964  -10.0941  -10.0941
   -9.5415   -9.5415   -9.2260   -9.2260   -8.8621   -8.8621   -8.7055   -8.7055   -8.6602   -8.6602
   -8.6258   -8.6258   -8.4001   -8.4001   -8.1784   -8.1784   -7.8180   -7.8180   -7.6444   -7.6444
   -7.6114   -7.6114   -7.3094   -7.3094   -7.3061   -7.3061   -6.8657   -6.8657   -6.7551   -6.7551
   -6.5150   -6.5150   -6.5134   -6.5134   -6.1058   -6.1058   -6.1026   -6.1026   -6.0929   -6.0929
   -5.7687   -5.7687   -5.6672   -5.6672   -5.4563   -5.4563   -4.3095   -4.3095   -3.2375   -3.2375
   -2.3218   -2.3218   -2.2933   -2.2933   -2.2378   -2.2378   -1.8667   -1.8667   -1.8588   -1.8588
   -1.8292   -1.8292   -1.7729   -1.7729   -1.5666   -1.5666   -1.5145   -1.5145   -0.9939   -0.9939
   -0.9521   -0.9521   -0.8035   -0.8035   -0.3775   -0.3775   -0.1864   -0.1864    0.0477    0.0477
    0.3786    0.3786    0.4399    0.4399    0.5611    0.5611    0.7060    0.7060    0.7892    0.7892
    1.0029    1.0029    1.2655    1.2655    1.2882    1.2882    1.4197    1.4197    1.4448    1.4448
    1.6921    1.6921    1.8351    1.8351    1.9217    1.9217    2.3720    2.3720    2.7425    2.7425
    2.7485    2.7485    2.8307    2.8307    2.9994    2.9994    3.1542    3.1542    3.3485    3.3485
    3.3951    3.3951    3.7886    3.7886    3.8861    3.8861    4.0854    4.0854    4.3162    4.3162
    4.4205    4.4205    4.5073    4.5073    4.5896    4.5896    4.5977    4.5977    4.8721    4.8721
    4.9329    4.9329    5.0296    5.0296    5.2514    5.2514    5.4905    5.4905    5.6854    5.6854
    5.7168    5.7168    5.7638    5.7638    5.9579    5.9579    5.9878    5.9878    6.0411    6.0411
    6.1797    6.1797    6.3432    6.3433    6.6160    6.6160    6.7492    6.7492    6.8092    6.8092
    7.0488    7.0488    7.2023    7.2023    7.4011    7.4011    7.5562    7.5562    7.7225    7.7225
    7.8175    7.8175    8.0318    8.0318    8.0857    8.0857    8.2522    8.2522    8.2680    8.2680
    8.5568    8.5568    8.6950    8.6950    8.7836    8.7836    8.9452    8.9452    9.1861    9.1861
    9.2402    9.2402    9.2947    9.2947    9.7130    9.7130    9.8324    9.8324    9.8445    9.8445
    9.9986    9.9986   10.1591   10.1591   10.4428   10.4428   10.8041   10.8041   10.9108   10.9108
   10.9806   10.9806   11.0907   11.0907   11.1730   11.1730   11.7117   11.7117   11.8462   11.8462
   11.8890   11.8890   11.9677   11.9677   12.2391   12.2391   12.4156   12.4156   12.5378   12.5378
   12.6965   12.6965   12.7285   12.7285   13.4273   13.4273   13.5105   13.5105   13.7129   13.7129
   13.8074   13.8074   14.0407   14.0407   14.2453   14.2453   14.5071   14.5071   14.8363   14.8363
   14.8439   14.8439   15.3229   15.3229   15.9948   15.9948   16.4273   16.4273   16.6688   16.6688
   16.9606   16.9606   17.4201   17.4201   17.6628   17.6628   18.2509   18.2509   18.3486   18.3486
   18.5753   18.5753   19.0676   19.0676   19.3567   19.3567   19.9725   19.9725   20.2459   20.2459
   20.8849   20.8849   21.3113   21.3113   21.8082   21.8082   22.1496   22.1496   22.4743   22.4743
   23.1144   23.1144   23.3240   23.3240   23.7607   23.7607   23.8676   23.8676   23.9260   23.9260
   24.8481   24.8481   25.2200   25.2200   25.9711   25.9711   26.8320   26.8320   27.5963   27.5963
   28.7134   28.7134   29.0635   29.0635   29.1489   29.1489   29.5204   29.5204   29.6584   29.6584
   30.0867   30.0867   30.1795   30.1795   30.2730   30.2730   30.6887   30.6887   30.8930   30.8930
   31.0195   31.0195   31.1398   31.1398   31.4511   31.4511   31.6686   31.6686   32.2415   32.2415
   32.7988   32.7988   33.8997   33.8997   34.5119   34.5119   34.6423   34.6423   34.9186   34.9186
   34.9453   34.9453   35.0417   35.0417   35.3831   35.3831   35.6832   35.6832   35.7470   35.7470
   36.7521   36.7521   36.8712   36.8712   37.0762   37.0762   37.2653   37.2653   37.7207   37.7207
   38.1668   38.1668   38.4550   38.4550   39.3086   39.3086   39.5161   39.5161   39.9493   39.9493
   40.2502   40.2502   40.5292   40.5292   40.7043   40.7043   40.8348   40.8348   40.9537   40.9537
   41.2925   41.2925   41.4858   41.4858   42.4193   42.4193   42.7341   42.7341   42.9854   42.9854
   43.1995   43.1995   43.7292   43.7292   43.9967   43.9967   44.0721   44.0721   44.2312   44.2312
   44.6920   44.6920   44.7022   44.7022   45.1589   45.1589   45.4426   45.4426   46.0279   46.0279
   46.5396   46.5396   46.9358   46.9358   47.2017   47.2017   48.5819   48.5819   49.1659   49.1659
   49.5049   49.5049   50.2872   50.2872   50.5363   50.5363   50.6759   50.6759   50.9623   50.9623
   51.4423   51.4423   51.5051   51.5051   52.6725   52.6725   52.9277   52.9277   54.1669   54.1669
   54.3969   54.3969   54.4629   54.4629   55.0671   55.0671   55.7775   55.7775   55.9292   55.9292
   55.9987   55.9987   56.2999   56.2999   56.4905   56.4905   58.1052   58.1052   58.2851   58.2851
   58.7985   58.7985   60.2036   60.2036   60.4589   60.4589   61.0173   61.0173   61.2303   61.2303
   61.7863   61.7863   62.1017   62.1017   62.3305   62.3305   64.5154   64.5154   66.4468   66.4468
   67.2051   67.2051   67.3248   67.3248   68.1628   68.1628   68.8729   68.8729   70.8597   70.8597
   74.1423   74.1423   80.1683   80.1683   91.1215   91.1215   91.8998   91.8998   93.3973   93.3973
   98.4191   98.4191   99.1034   99.1034   99.7204   99.7204  103.3924  103.3924  103.8520  103.8520
  110.1999  110.1999  111.7921  111.7921  123.6701  123.6701  125.7077  125.7077  130.0958  130.0958
  135.1534  135.1534  138.4598  138.4598
siesta: Fermi energy =      -3.774035 eV

siesta: Program's energy decomposition (eV):
siesta: Ebs     =     -1133.835113
siesta: Eions   =      3585.165840
siesta: Ena     =       382.018986
siesta: Ekin    =      2903.112313
siesta: Enl     =     -2787.993533
siesta: Eso     =        -0.004279
siesta: Edftu   =         0.000000
siesta: DEna    =        47.040152
siesta: DUscf   =        14.301520
siesta: DUext   =         0.000000
siesta: Exc     =     -1119.726747
siesta: eta*DQ  =         0.000000
siesta: Emadel  =         0.000000
siesta: Emeta   =         0.000000
siesta: Emolmec =         0.000000
siesta: Ekinion =         0.000000
siesta: Eharris =     -4146.417428
siesta: Etot    =     -4146.417428
siesta: FreeEng =     -4146.417428

siesta: Final energy (eV):
siesta:  Band Struct. =   -1133.835113
siesta:       Kinetic =    2903.112313
siesta:       Hartree =    8269.050547
siesta:       Edftu   =       0.000000
siesta:       Eso     =      -0.004279
siesta:    Ext. field =       0.000000
siesta:   Exch.-corr. =   -1119.726747
siesta:  Ion-electron =  -19121.512621
siesta:       Ion-ion =    4922.663360
siesta:       Ekinion =       0.000000
siesta:         Total =   -4146.417428
siesta:         Fermi =      -3.774035

siesta: Atomic forces (eV/Ang):
siesta:      1    1.670741   -2.408213   -0.000000
siesta:      2    0.004309    0.023169   -0.000000
siesta:      3    0.734560   -0.360246    0.000000
siesta:      4    0.725954   -0.033560    0.000000
siesta:      5    0.051245   -0.095947    0.000000
siesta:      6    1.715145    0.654172    0.000000
siesta:      7    0.043413   -0.251495   -0.000000
siesta:      8   -0.402804    0.281233    0.000000
siesta:      9   -0.177251    1.234192   -0.000000
siesta:     10   -0.994749    0.357457   -0.000000
siesta:     11   -0.022429   -0.020528   -0.000000
siesta:     12   -0.233203   -0.098840   -0.000000
siesta:     13   -0.063561    0.087344    0.000000
siesta:     14    0.220067   -0.053944   -0.000000
siesta:     15   -1.356253   -0.984257    0.000000
siesta:     16   -0.034507    0.132582    0.000000
siesta:     17    0.987119   -1.090560   -0.000000
siesta:     18   -0.211659    0.195004   -0.000000
siesta:     19   -0.191124   -1.216253   -0.000000
siesta:     20   -0.015911   -0.408290    0.000000
siesta:     21   -0.303856    1.009536    0.000000
siesta:     22   -2.188956   -0.904643    0.000000
siesta:     23    0.253677    0.535032   -0.000000
siesta:     24    0.011836   -0.040383   -0.000000
siesta:     25    0.047721    0.023383   -0.000000
siesta:     26   -0.242193   -0.183028   -0.000000
siesta:     27    1.622768    1.360673    0.000000
siesta:     28    0.524952   -3.242019    0.000000
siesta:     29   -0.011914    0.082600    0.000000
siesta: ----------------------------------------
siesta:    Tot    2.163141   -5.415828   -0.000000

siesta: Stress tensor (static) (eV/Ang**3):
siesta:     0.000238    0.000896   -0.000000
siesta:     0.000896    0.000932   -0.000000
siesta:     0.000000    0.000000   -0.000055

siesta: Cell volume =       5238.393424 Ang**3

siesta: Pressure (static):
siesta:                Solid            Molecule  Units
siesta:          -0.00000405          0.00000161  Ry/Bohr**3
siesta:          -0.00037141          0.00014785  eV/Ang**3
siesta:          -0.59507673          0.23688970  kBar
(Free)E+ p_basis*V_orbitals  =       -4126.567010
(Free)Eharris+ p_basis*V_orbitals  =       -4126.567010
     spin moment: S , {S} =    0.00000   0.00000   0.00000   0.00000

siesta: Electric dipole (a.u.)  =    1.579082    0.052633   -0.000000
siesta: Electric dipole (Debye) =    4.013630    0.133780   -0.000000

cite: Please see "GC.bib" for an exhaustive BiBTeX file.
cite: Please clearly indicate Siesta version in published work: v4.1.5-1-g384057250
cite: This calculation has made use of the following articles
cite: which are encouraged to be cited in a published work.
        Primary SIESTA paper
          DOI: www.doi.org/10.1088/0953-8984/14/11/302
        Spin-orbit coupling (on-site approximation)
          DOI: www.doi.org/10.1088/0953-8984/19/19/489001


WARNING: alloc-realloc-dealloc name mismatch
         Name: atomlist isa
         Size:              -116. Bytes
         Node:     0
         Subsequent mismatches will not be reported
>> End of run:  28-JUN-2023  20:02:30
Job completed
