Siesta Version  : v4.1.5-1-g384057250
Architecture    : gcc
Compiler version: GNU Fortran (Debian 10.2.1-6) 10.2.1 20210110
Compiler flags  : mpifort -O2 -fPIC -ftree-vectorize -fallow-argument-mismatch
PP flags        : -DFC_HAVE_ABORT -DMPI -DSIESTA__FLOOK -DSIESTA__METIS -DSIESTA__MUMPS -DCDF -DNCDF -DNCDF_4 -DNCDF_PARALLEL -DSIESTA__MRRR -DSIESTA__ELPA
Libraries       : libncdf.a libfdict.a  -lflookall -ldl -lnetcdff -lnetcdf -lhdf5_hl -lhdf5 -lhdf5_fortran -lz -lscalapack-openmpi -lopenblas -lmetis -lzmumps -lcmumps -ldmumps -lmumps_common -lpord -lsmumps -lesmumps -lscotch -lscotcherr -fopenmp -lelpa
PARALLEL version
NetCDF support
NetCDF-4 support
NetCDF-4 MPI-IO support
METIS ordering support
Lua support

* Running on 6 nodes in parallel
>> Start of run:  22-MAY-2023  10:24:30

                           ***********************       
                           *  WELCOME TO SIESTA  *       
                           ***********************       

reinit: Reading from standard input
reinit: Dumped input in INPUT_TMP.73558
************************** Dump of input data file ****************************
SystemLabel      AT
NumberOfAtoms    30
NumberOfSpecies  4
%block ChemicalSpeciesLabel
    1    1  H
    2    7  N
    3   14  Si
    4    8  O
%endblock ChemicalSpeciesLabel
# Single point calculation
MD.TypeOfRun                CG
MD.Steps                    0
SCF.MustConverge            F # In case it does not. There can be 2 very close atoms
AtomicCoordinatesFormat NotScaledCartesianAng
%block AtomicCoordinatesAndAtomicSpecies
2.582377650    -5.776830440   0.000000000       1
1.654759240    -5.269361980   0.000000000       2
0.063128840    -6.101704590   0.000000000       3
0.119223240    -7.596849500   0.000000000       1
-1.376892050   -5.182603740   0.000000000       2
-0.824371900   -3.460866440   0.000000000       3
-1.170571480   -1.270002100   0.000000000       3
-2.706933680   -0.417515780   0.000000000       2
-2.754569660   0.634858620    0.000000000       1
-3.637675640   -0.909967860   0.000000000       1
0.218091790    -0.234193970   0.000000000       2
1.872004100    -0.697162300   0.000000000       3
2.828001130    0.461464770    0.000000000       1
2.648150080    -2.255024470   0.000000000       2
1.391921380    -3.454727220   0.000000000       3
1.850053070    7.644603790    0.000000000       2
0.522681550    8.854808090    0.000000000       3
1.162682820    10.216126330   0.000000000       1
-1.563064390   8.184276740    0.000000000       3
-3.592626990   9.314392930    0.000000000       3
-3.438391220   10.474623140   0.940305280       1
-4.578561710   8.292472310    0.512613700       1
-4.008841950   9.790618780    -1.366678340      1
-1.496568970   5.910300120    0.000000000       3
-2.535617700   4.717240620    0.000000000       4
0.160422610    5.276324930    0.000000000       2
0.142405240    4.213880100    0.000000000       1
1.784025680    5.873395140    0.000000000       3
2.979041850    4.858969940    0.000000000       4
2.850090440    7.990110890    0.000000000       1
%endblock AtomicCoordinatesAndAtomicSpecies
%include ../../../Defaults.fdf
************************** End of input data file *****************************

reinit: -----------------------------------------------------------------------
reinit: System Name: 
reinit: -----------------------------------------------------------------------
reinit: System Label: AT
reinit: -----------------------------------------------------------------------

initatom: Reading input for the pseudopotentials and atomic orbitals ----------
Species number:   1 Atomic number:    1 Label: H
Species number:   2 Atomic number:    7 Label: N
Species number:   3 Atomic number:   14 Label: Si
Species number:   4 Atomic number:    8 Label: O

Ground state valence configuration:   1s01
Reading pseudopotential information in formatted form from H.psf

Pseudopotential generated from a relativistic atomic calculation

Valence configuration for pseudopotential generation:
1s( 1.00) rc: 0.01
2p( 0.00) rc: 0.60
3d( 0.00) rc: 1.99
4f( 0.00) rc: 2.49
Ground state valence configuration:   2s02  2p03
Reading pseudopotential information in formatted form from N.psf

Pseudopotential generated from a relativistic atomic calculation

Valence configuration for pseudopotential generation:
2s( 2.00) rc: 0.94
2p( 3.00) rc: 0.59
3d( 0.00) rc: 3.46
4f( 0.00) rc: 2.47
Ground state valence configuration:   3s02  3p02
Reading pseudopotential information in formatted form from Si.psf

Pseudopotential generated from a relativistic atomic calculation

Valence configuration for pseudopotential generation:
3s( 2.00) rc: 1.67
3p( 2.00) rc: 2.04
3d( 0.00) rc: 2.89
4f( 0.00) rc: 2.49
Ground state valence configuration:   2s02  2p04
Reading pseudopotential information in formatted form from O.psf

Pseudopotential generated from a relativistic atomic calculation

Valence configuration for pseudopotential generation:
2s( 2.00) rc: 0.45
2p( 4.00) rc: 0.92
3d( 0.00) rc: 2.24
4f( 0.00) rc: 0.25
For H, standard SIESTA heuristics set lmxkb to 2
 (one more than the basis l, including polarization orbitals).
Use PS.lmax or PS.KBprojectors blocks to override.
For N, standard SIESTA heuristics set lmxkb to 3
 (one more than the basis l, including polarization orbitals).
Use PS.lmax or PS.KBprojectors blocks to override.
For Si, standard SIESTA heuristics set lmxkb to 3
 (one more than the basis l, including polarization orbitals).
Use PS.lmax or PS.KBprojectors blocks to override.
For O, standard SIESTA heuristics set lmxkb to 3
 (one more than the basis l, including polarization orbitals).
Use PS.lmax or PS.KBprojectors blocks to override.

<basis_specs>
===============================================================================
H                    Z=   1    Mass=  1.0100        Charge= 0.17977+309
Lmxo=0 Lmxkb= 2    BasisType=split      Semic=F
L=0  Nsemic=0  Cnfigmx=1
          i=1  nzeta=2  polorb=1  (1s)
            splnorm:   0.62000    
               vcte:    0.0000    
               rinn:    0.0000    
               qcoe:    0.0000    
               qyuk:    0.0000    
               qwid:   0.10000E-01
                rcs:    0.0000      0.0000    
            lambdas:    1.0000      1.0000    
-------------------------------------------------------------------------------
L=0  Nkbl=1  erefs: 0.17977+309
L=1  Nkbl=1  erefs: 0.17977+309
L=2  Nkbl=1  erefs: 0.17977+309
===============================================================================
</basis_specs>

atom: Called for H                     (Z =   1)

read_vps: Pseudopotential generation method:
read_vps: ATM4.2.7  Troullier-Martins                       
Valence charge for ps generation:    1.00000

xc_check: Exchange-correlation functional:
xc_check: GGA Perdew, Burke & Ernzerhof 1996
V l=0 = -2*Zval/r beyond r=  0.0098
V l=1 = -2*Zval/r beyond r=  0.5817
V l=2 = -2*Zval/r beyond r=  1.9372
All V_l potentials equal beyond r=  1.9372
This should be close to max(r_c) in ps generation
All pots = -2*Zval/r beyond r=  1.9372

VLOCAL1: 99.0% of the norm of Vloc inside     11.567 Ry
VLOCAL1: 99.9% of the norm of Vloc inside     26.362 Ry
atom: Maximum radius for 4*pi*r*r*local-pseudopot. charge    2.25106
atom: Maximum radius for r*vlocal+2*Zval:    1.91306
GHOST: No ghost state for L =  0
GHOST: No ghost state for L =  1
GHOST: No ghost state for L =  2

KBgen: Kleinman-Bylander projectors: 
   l= 0   rc=  2.036604   el= -0.477180   Ekb= -6.081590   kbcos= -0.277285
   l= 1   rc=  2.195416   el=  0.001076   Ekb= -0.926943   kbcos= -0.034643
   l= 2   rc=  2.251056   el=  0.002010   Ekb= -0.130941   kbcos= -0.009788

KBgen: Total number of Kleinman-Bylander projectors:    9
atom: -------------------------------------------------------------------------

atom: SANKEY-TYPE ORBITALS:
atom: Selected multiple-zeta basis: split     

SPLIT: Orbitals with angular momentum L= 0

SPLIT: Basis orbitals for state 1s

SPLIT: PAO cut-off radius determined from an
SPLIT: energy shift=  0.002000 Ry

   izeta = 1
                 lambda =    1.000000
                     rc =    6.518340
                 energy =   -0.475305
                kinetic =    0.912139
    potential(screened) =   -1.387444
       potential(ionic) =   -1.907295

   izeta = 2
                 rmatch =    2.141150
              splitnorm =    0.620000
                 energy =    0.566467
                kinetic =    3.772856
    potential(screened) =   -3.206389
       potential(ionic) =   -3.759093

POLgen: Perturbative polarization orbital with L=  1

POLgen: Polarization orbital for state 1s

   izeta = 1
                     rc =    6.518340
                 energy =    0.533861
                kinetic =    1.121086
    potential(screened) =   -0.587225
       potential(ionic) =   -1.053027
atom: Total number of Sankey-type orbitals:  5

atm_pop: Valence configuration (for local Pseudopot. screening):
 1s( 1.00)                                                            
Vna: chval, zval:    1.00000   1.00000

Vna:  Cut-off radius for the neutral-atom potential:   6.518340

atom: _________________________________________________________________________

<basis_specs>
===============================================================================
N                    Z=   7    Mass=  14.010        Charge= 0.17977+309
Lmxo=1 Lmxkb= 3    BasisType=split      Semic=F
L=0  Nsemic=0  Cnfigmx=2
          i=1  nzeta=2  polorb=0  (2s)
            splnorm:   0.28000    
               vcte:    0.0000    
               rinn:    0.0000    
               qcoe:    0.0000    
               qyuk:    0.0000    
               qwid:   0.10000E-01
                rcs:    0.0000      0.0000    
            lambdas:    1.0000      1.0000    
L=1  Nsemic=0  Cnfigmx=2
          i=1  nzeta=2  polorb=1  (2p)
            splnorm:   0.28000    
               vcte:    0.0000    
               rinn:    0.0000    
               qcoe:    0.0000    
               qyuk:    0.0000    
               qwid:   0.10000E-01
                rcs:    0.0000      0.0000    
            lambdas:    1.0000      1.0000    
-------------------------------------------------------------------------------
L=0  Nkbl=1  erefs: 0.17977+309
L=1  Nkbl=1  erefs: 0.17977+309
L=2  Nkbl=1  erefs: 0.17977+309
L=3  Nkbl=1  erefs: 0.17977+309
===============================================================================
</basis_specs>

atom: Called for N                     (Z =   7)

read_vps: Pseudopotential generation method:
read_vps: ATM4.2.7  Troullier-Martins                       
Valence charge for ps generation:    5.00000

xc_check: Exchange-correlation functional:
xc_check: GGA Perdew, Burke & Ernzerhof 1996
V l=0 = -2*Zval/r beyond r=  1.2889
V l=1 = -2*Zval/r beyond r=  1.2889
V l=2 = -2*Zval/r beyond r=  3.4178
V l=3 = -2*Zval/r beyond r=  2.4084
All V_l potentials equal beyond r=  3.3753
This should be close to max(r_c) in ps generation
All pots = -2*Zval/r beyond r=  3.4178

VLOCAL1: 99.0% of the norm of Vloc inside      3.810 Ry
VLOCAL1: 99.9% of the norm of Vloc inside      8.683 Ry
atom: Maximum radius for 4*pi*r*r*local-pseudopot. charge    4.02088
atom: Maximum radius for r*vlocal+2*Zval:    3.54838
GHOST: No ghost state for L =  0
GHOST: No ghost state for L =  1
GHOST: No ghost state for L =  2
GHOST: No ghost state for L =  3

KBgen: Kleinman-Bylander projectors: 
   l= 0   rc=  3.417763   el= -1.365098   Ekb= -4.433130   kbcos= -0.707855
   l= 1   rc=  3.375302   el= -0.521201   Ekb=-13.264039   kbcos= -0.535594
   l= 2   rc=  3.872880   el=  0.001991   Ekb= -0.641094   kbcos= -0.062456
   l= 3   rc=  3.970931   el=  0.003093   Ekb= -0.474517   kbcos= -0.018236

KBgen: Total number of Kleinman-Bylander projectors:   16
atom: -------------------------------------------------------------------------

atom: SANKEY-TYPE ORBITALS:
atom: Selected multiple-zeta basis: split     

SPLIT: Orbitals with angular momentum L= 0

SPLIT: Basis orbitals for state 2s

SPLIT: PAO cut-off radius determined from an
SPLIT: energy shift=  0.002000 Ry

   izeta = 1
                 lambda =    1.000000
                     rc =    4.730425
                 energy =   -1.363399
                kinetic =    1.245246
    potential(screened) =   -2.608645
       potential(ionic) =   -8.121105

   izeta = 2
                 rmatch =    2.531849
              splitnorm =    0.280000
                 energy =   -0.959908
                kinetic =    2.409435
    potential(screened) =   -3.369343
       potential(ionic) =   -9.427975

SPLIT: Orbitals with angular momentum L= 1

SPLIT: Basis orbitals for state 2p

SPLIT: PAO cut-off radius determined from an
SPLIT: energy shift=  0.002000 Ry

   izeta = 1
                 lambda =    1.000000
                     rc =    5.924108
                 energy =   -0.519262
                kinetic =    3.672940
    potential(screened) =   -4.192202
       potential(ionic) =   -9.518354

   izeta = 2
                 rmatch =    2.531849
              splitnorm =    0.280000
                 energy =   -0.104258
                kinetic =    6.807538
    potential(screened) =   -6.911796
       potential(ionic) =  -13.149920

POLgen: Perturbative polarization orbital with L=  2

POLgen: Polarization orbital for state 2p

   izeta = 1
                     rc =    5.924108
                 energy =    1.427508
                kinetic =    2.872379
    potential(screened) =   -1.444871
       potential(ionic) =   -5.563644
atom: Total number of Sankey-type orbitals: 13

atm_pop: Valence configuration (for local Pseudopot. screening):
 2s( 2.00)                                                            
 2p( 3.00)                                                            
Vna: chval, zval:    5.00000   5.00000

Vna:  Cut-off radius for the neutral-atom potential:   5.924108

atom: _________________________________________________________________________

<basis_specs>
===============================================================================
Si                   Z=  14    Mass=  28.090        Charge= 0.17977+309
Lmxo=1 Lmxkb= 3    BasisType=split      Semic=F
L=0  Nsemic=0  Cnfigmx=3
          i=1  nzeta=2  polorb=0  (3s)
            splnorm:   0.28000    
               vcte:    0.0000    
               rinn:    0.0000    
               qcoe:    0.0000    
               qyuk:    0.0000    
               qwid:   0.10000E-01
                rcs:    0.0000      0.0000    
            lambdas:    1.0000      1.0000    
L=1  Nsemic=0  Cnfigmx=3
          i=1  nzeta=2  polorb=1  (3p)
            splnorm:   0.28000    
               vcte:    0.0000    
               rinn:    0.0000    
               qcoe:    0.0000    
               qyuk:    0.0000    
               qwid:   0.10000E-01
                rcs:    0.0000      0.0000    
            lambdas:    1.0000      1.0000    
-------------------------------------------------------------------------------
L=0  Nkbl=1  erefs: 0.17977+309
L=1  Nkbl=1  erefs: 0.17977+309
L=2  Nkbl=1  erefs: 0.17977+309
L=3  Nkbl=1  erefs: 0.17977+309
===============================================================================
</basis_specs>

atom: Called for Si                    (Z =  14)

read_vps: Pseudopotential generation method:
read_vps: ATM4.2.7  Troullier-Martins                       
Valence charge for ps generation:    4.00000

xc_check: Exchange-correlation functional:
xc_check: GGA Perdew, Burke & Ernzerhof 1996
V l=0 = -2*Zval/r beyond r=  2.7826
V l=1 = -2*Zval/r beyond r=  2.7826
V l=2 = -2*Zval/r beyond r=  2.9253
V l=3 = -2*Zval/r beyond r=  2.7826
All V_l potentials equal beyond r=  2.8530
This should be close to max(r_c) in ps generation
All pots = -2*Zval/r beyond r=  2.9253

VLOCAL1: 99.0% of the norm of Vloc inside      5.333 Ry
VLOCAL1: 99.9% of the norm of Vloc inside     12.154 Ry
atom: Maximum radius for 4*pi*r*r*local-pseudopot. charge    3.39869
atom: Maximum radius for r*vlocal+2*Zval:    2.96205
GHOST: No ghost state for L =  0
GHOST: No ghost state for L =  1
GHOST: No ghost state for L =  2
GHOST: No ghost state for L =  3

KBgen: Kleinman-Bylander projectors: 
   l= 0   rc=  3.075247   el= -0.794092   Ekb=  5.879390   kbcos=  0.167461
   l= 1   rc=  3.153101   el= -0.300068   Ekb=  2.642817   kbcos=  0.058301
   l= 2   rc=  3.273594   el=  0.001958   Ekb= -1.185135   kbcos= -0.104411
   l= 3   rc=  3.232927   el=  0.003046   Ekb= -0.497174   kbcos= -0.015889

KBgen: Total number of Kleinman-Bylander projectors:   16
atom: -------------------------------------------------------------------------

atom: SANKEY-TYPE ORBITALS:
atom: Selected multiple-zeta basis: split     

SPLIT: Orbitals with angular momentum L= 0

SPLIT: Basis orbitals for state 3s

SPLIT: PAO cut-off radius determined from an
SPLIT: energy shift=  0.002000 Ry

   izeta = 1
                 lambda =    1.000000
                     rc =    6.429618
                 energy =   -0.792283
                kinetic =    0.525293
    potential(screened) =   -1.317576
       potential(ionic) =   -3.744923

   izeta = 2
                 rmatch =    3.998416
              splitnorm =    0.280000
                 energy =   -0.583081
                kinetic =    1.069570
    potential(screened) =   -1.652651
       potential(ionic) =   -4.235185

SPLIT: Orbitals with angular momentum L= 1

SPLIT: Basis orbitals for state 3p

SPLIT: PAO cut-off radius determined from an
SPLIT: energy shift=  0.002000 Ry

   izeta = 1
                 lambda =    1.000000
                     rc =    8.464845
                 energy =   -0.298236
                kinetic =    0.785360
    potential(screened) =   -1.083596
       potential(ionic) =   -3.273779

   izeta = 2
                 rmatch =    4.587816
              splitnorm =    0.280000
                 energy =   -0.131871
                kinetic =    1.403687
    potential(screened) =   -1.535557
       potential(ionic) =   -4.015310

POLgen: Perturbative polarization orbital with L=  2

POLgen: Polarization orbital for state 3p

   izeta = 1
                     rc =    8.464845
                 energy =    0.321949
                kinetic =    1.055677
    potential(screened) =   -0.733728
       potential(ionic) =   -2.672950
atom: Total number of Sankey-type orbitals: 13

atm_pop: Valence configuration (for local Pseudopot. screening):
 3s( 2.00)                                                            
 3p( 2.00)                                                            
Vna: chval, zval:    4.00000   4.00000

Vna:  Cut-off radius for the neutral-atom potential:   8.464845

atom: _________________________________________________________________________

<basis_specs>
===============================================================================
O                    Z=   8    Mass=  16.000        Charge= 0.17977+309
Lmxo=1 Lmxkb= 3    BasisType=split      Semic=F
L=0  Nsemic=0  Cnfigmx=2
          i=1  nzeta=2  polorb=0  (2s)
            splnorm:   0.28000    
               vcte:    0.0000    
               rinn:    0.0000    
               qcoe:    0.0000    
               qyuk:    0.0000    
               qwid:   0.10000E-01
                rcs:    0.0000      0.0000    
            lambdas:    1.0000      1.0000    
L=1  Nsemic=0  Cnfigmx=2
          i=1  nzeta=2  polorb=1  (2p)
            splnorm:   0.28000    
               vcte:    0.0000    
               rinn:    0.0000    
               qcoe:    0.0000    
               qyuk:    0.0000    
               qwid:   0.10000E-01
                rcs:    0.0000      0.0000    
            lambdas:    1.0000      1.0000    
-------------------------------------------------------------------------------
L=0  Nkbl=1  erefs: 0.17977+309
L=1  Nkbl=1  erefs: 0.17977+309
L=2  Nkbl=1  erefs: 0.17977+309
L=3  Nkbl=1  erefs: 0.17977+309
===============================================================================
</basis_specs>

atom: Called for O                     (Z =   8)

read_vps: Pseudopotential generation method:
read_vps: ATM4.2.7  Troullier-Martins                       
Valence charge for ps generation:    6.00000

xc_check: Exchange-correlation functional:
xc_check: GGA Perdew, Burke & Ernzerhof 1996
V l=0 = -2*Zval/r beyond r=  1.1000
V l=1 = -2*Zval/r beyond r=  1.1000
V l=2 = -2*Zval/r beyond r=  2.2154
V l=3 = -2*Zval/r beyond r=  1.1000
All V_l potentials equal beyond r=  2.2154
This should be close to max(r_c) in ps generation
All pots = -2*Zval/r beyond r=  2.2154

VLOCAL1: 99.0% of the norm of Vloc inside      8.845 Ry
VLOCAL1: 99.9% of the norm of Vloc inside     20.157 Ry
atom: Maximum radius for 4*pi*r*r*local-pseudopot. charge    2.67231
atom: Maximum radius for r*vlocal+2*Zval:    2.32897
GHOST: No ghost state for L =  0
GHOST: No ghost state for L =  1
GHOST: No ghost state for L =  2
GHOST: No ghost state for L =  3

KBgen: Kleinman-Bylander projectors: 
   l= 0   rc=  2.243238   el= -1.759686   Ekb=**********   kbcos= -0.171774
   l= 1   rc=  2.328968   el= -0.663873   Ekb=-14.506792   kbcos= -0.519897
   l= 2   rc=  2.573941   el=  0.002031   Ekb= -1.137373   kbcos= -0.019581
   l= 3   rc=  2.606321   el=  0.003153   Ekb= -1.013546   kbcos= -0.003122

KBgen: Total number of Kleinman-Bylander projectors:   16
atom: -------------------------------------------------------------------------

atom: SANKEY-TYPE ORBITALS:
atom: Selected multiple-zeta basis: split     

SPLIT: Orbitals with angular momentum L= 0

SPLIT: Basis orbitals for state 2s

SPLIT: PAO cut-off radius determined from an
SPLIT: energy shift=  0.002000 Ry

   izeta = 1
                 lambda =    1.000000
                     rc =    4.243912
                 energy =   -1.758270
                kinetic =    3.286084
    potential(screened) =   -5.044353
       potential(ionic) =  -12.921184

   izeta = 2
                 rmatch =    2.187845
              splitnorm =    0.280000
                 energy =   -0.885018
                kinetic =    8.134434
    potential(screened) =   -9.019452
       potential(ionic) =  -17.710645

SPLIT: Orbitals with angular momentum L= 1

SPLIT: Basis orbitals for state 2p

SPLIT: PAO cut-off radius determined from an
SPLIT: energy shift=  0.002000 Ry

   izeta = 1
                 lambda =    1.000000
                     rc =    5.314825
                 energy =   -0.661986
                kinetic =    4.917472
    potential(screened) =   -5.579458
       potential(ionic) =  -13.236259

   izeta = 2
                 rmatch =    2.160663
              splitnorm =    0.280000
                 energy =   -0.068760
                kinetic =    9.183374
    potential(screened) =   -9.252135
       potential(ionic) =  -18.274251

POLgen: Perturbative polarization orbital with L=  2

POLgen: Polarization orbital for state 2p

   izeta = 1
                     rc =    5.314825
                 energy =    1.970580
                kinetic =    3.886128
    potential(screened) =   -1.915547
       potential(ionic) =   -7.749584
atom: Total number of Sankey-type orbitals: 13

atm_pop: Valence configuration (for local Pseudopot. screening):
 2s( 2.00)                                                            
 2p( 4.00)                                                            
Vna: chval, zval:    6.00000   6.00000

Vna:  Cut-off radius for the neutral-atom potential:   5.314825

atom: _________________________________________________________________________

prinput: Basis input ----------------------------------------------------------

PAO.BasisType split     

%block ChemicalSpeciesLabel
    1    1 H                       # Species index, atomic number, species label
    2    7 N                       # Species index, atomic number, species label
    3   14 Si                      # Species index, atomic number, species label
    4    8 O                       # Species index, atomic number, species label
%endblock ChemicalSpeciesLabel

%block PAO.Basis                 # Define Basis set
H                     1                    # Species label, number of l-shells
 n=1   0   2 P   1                   # n, l, Nzeta, Polarization, NzetaPol
   6.518      2.141   
   1.000      1.000   
N                     2                    # Species label, number of l-shells
 n=2   0   2                         # n, l, Nzeta 
   4.730      2.532   
   1.000      1.000   
 n=2   1   2 P   1                   # n, l, Nzeta, Polarization, NzetaPol
   5.924      2.532   
   1.000      1.000   
Si                    2                    # Species label, number of l-shells
 n=3   0   2                         # n, l, Nzeta 
   6.430      3.998   
   1.000      1.000   
 n=3   1   2 P   1                   # n, l, Nzeta, Polarization, NzetaPol
   8.465      4.588   
   1.000      1.000   
O                     2                    # Species label, number of l-shells
 n=2   0   2                         # n, l, Nzeta 
   4.244      2.188   
   1.000      1.000   
 n=2   1   2 P   1                   # n, l, Nzeta, Polarization, NzetaPol
   5.315      2.161   
   1.000      1.000   
%endblock PAO.Basis

prinput: ----------------------------------------------------------------------

Dumping basis to NetCDF file H.ion.nc
Dumping basis to NetCDF file N.ion.nc
Dumping basis to NetCDF file Si.ion.nc
Dumping basis to NetCDF file O.ion.nc
coor:   Atomic-coordinates input format  =     Cartesian coordinates
coor:                                          (in Angstroms)

siesta: Atomic coordinates (Bohr) and species
siesta:      4.87999 -10.91663   0.00000  1        1
siesta:      3.12704  -9.95765   0.00000  2        2
siesta:      0.11930 -11.53056   0.00000  3        3
siesta:      0.22530 -14.35597   0.00000  1        4
siesta:     -2.60195  -9.79371   0.00000  2        5
siesta:     -1.55784  -6.54009   0.00000  3        6
siesta:     -2.21206  -2.39996   0.00000  3        7
siesta:     -5.11537  -0.78899   0.00000  2        8
siesta:     -5.20538   1.19971   0.00000  1        9
siesta:     -6.87421  -1.71959   0.00000  1       10
siesta:      0.41213  -0.44256   0.00000  2       11
siesta:      3.53758  -1.31745   0.00000  3       12
siesta:      5.34415   0.87204   0.00000  1       13
siesta:      5.00428  -4.26138   0.00000  2       14
siesta:      2.63035  -6.52849   0.00000  3       15
siesta:      3.49610  14.44621   0.00000  2       16
siesta:      0.98773  16.73317   0.00000  3       17
siesta:      2.19715  19.30569   0.00000  1       18
siesta:     -2.95376  15.46605   0.00000  3       19
siesta:     -6.78908  17.60166   0.00000  3       20
siesta:     -6.49762  19.79418   1.77692  1       21
siesta:     -8.65223  15.67051   0.96870  1       22
siesta:     -7.57562  18.50160  -2.58265  1       23
siesta:     -2.82811  11.16885   0.00000  3       24
siesta:     -4.79162   8.91430   0.00000  4       25
siesta:      0.30315   9.97081   0.00000  2       26
siesta:      0.26911   7.96308   0.00000  1       27
siesta:      3.37132  11.09911   0.00000  3       28
siesta:      5.62958   9.18213   0.00000  4       29
siesta:      5.38589  15.09913   0.00000  1       30

siesta: Automatic unit cell vectors (Ang):
siesta:   15.865778    0.000000    0.000000
siesta:    0.000000   27.467203    0.000000
siesta:    0.000000    0.000000   10.224979

siesta: System type = molecule  

initatomlists: Number of atoms, orbitals, and projectors:     30   302   403

siesta: ******************** Simulation parameters ****************************
siesta:
siesta: The following are some of the parameters of the simulation.
siesta: A complete list of the parameters used, including default values,
siesta: can be found in file out.fdf
siesta:
redata: Spin configuration                          = spin-orbit
redata: Number of spin components                   = 8
redata: Time-Reversal Symmetry                      = F
redata: Spin spiral                                 = F
############################################################
This spin-orbit implementation uses a local approximation.
From 4.2 and onwards the full non-local approximation is implemented
You are strongly advised to use >=4.2 versions!
############################################################
redata: Long output                                 =   F
redata: Number of Atomic Species                    =        4
redata: Charge density info will appear in .RHO file
redata: Write Mulliken Pop.                         = Atomic and Orbital charges
redata: Matel table size (NRTAB)                    =     1024
redata: Mesh Cutoff                                 =   340.0000 Ry
redata: Net charge of the system                    =     0.0000 |e|
redata: Min. number of SCF Iter                     =        1
redata: Max. number of SCF Iter                     =      200
redata: SCF mix quantity                            = Hamiltonian
redata: Mix DM or H after convergence               =   F
redata: Recompute H after scf cycle                 =   F
redata: Mix DM in first SCF step                    =   T
redata: Write Pulay info on disk                    =   F
redata: New DM Occupancy tolerance                  = 0.000000000001
redata: No kicks to SCF
redata: DM Mixing Weight for Kicks                  =     0.5000
redata: Require Harris convergence for SCF          =   F
redata: Harris energy tolerance for SCF             =     0.000100 eV
redata: Require DM convergence for SCF              =   T
redata: DM tolerance for SCF                        =     0.000008
redata: Require EDM convergence for SCF             =   F
redata: EDM tolerance for SCF                       =     0.001000 eV
redata: Require H convergence for SCF               =   T
redata: Hamiltonian tolerance for SCF               =     0.000001 eV
redata: Require (free) Energy convergence for SCF   =   F
redata: (free) Energy tolerance for SCF             =     0.000100 eV
redata: Using Saved Data (generic)                  =   F
redata: Use continuation files for DM               =   F
redata: Neglect nonoverlap interactions             =   F
redata: Method of Calculation                       = Diagonalization
redata: Electronic Temperature                      =   299.9978 K
redata: Fix the spin of the system                  =   F
redata: Dynamics option                             = Single-point calculation
mix.SCF: Pulay mixing                            = Pulay
mix.SCF:    Variant                              = stable
mix.SCF:    History steps                        = 6
mix.SCF:    Linear mixing weight                 =     0.250000
mix.SCF:    Mixing weight                        =     0.250000
mix.SCF:    SVD condition                        = 0.1000E-07
mix.SCF:    Restart steps                        = 24
mix.SCF:    Restart save steps                   = 3
mix.SCF: Spin-component mixing                   all
redata: Save all siesta data in one NC              =   F
redata: ***********************************************************************

%block SCF.Mixers
  Pulay
%endblock SCF.Mixers

%block SCF.Mixer.Pulay
  # Mixing method
  method pulay
  variant stable

  # Mixing options
  weight 0.2500
  weight.linear 0.2500
  history 6
  restart 24
  restart.save 3
%endblock SCF.Mixer.Pulay

DM_history_depth set to one: no extrapolation allowed by default for geometry relaxation
Size of DM history Fstack: 1
Total number of electrons:    98.000000
Total ionic charge:    98.000000

* ProcessorY, Blocksize:    2  24


* Orbital distribution balance (max,min):    62    48


Time-reversal symmetry not used.

siesta: k-grid: Number of k-points =     1
siesta: k-grid: Cutoff (effective) =     5.112 Ang
siesta: k-grid: Supercell and displacements
siesta: k-grid:    1   0   0      0.000
siesta: k-grid:    0   1   0      0.000
siesta: k-grid:    0   0   1      0.000

diag: Algorithm                                     = ELPA-1stage
diag: Parallel over k                               =   F
diag: Use parallel 2D distribution                  =   T
diag: Parallel block-size                           = 24
diag: Parallel distribution                         =     2 x     3
diag: Used triangular part                          = Lower
diag: Absolute tolerance                            =  0.100E-15
diag: Orthogonalization factor                      =  0.100E-05
diag: Memory factor                                 =  1.0000


ts: **************************************************************
ts: Save H and S matrices                           =    F
ts: Save DM and EDM matrices                        =    F
ts: Only save the overlap matrix S                  =    F
ts: **************************************************************

************************ Begin: TS CHECKS AND WARNINGS ************************
************************ End: TS CHECKS AND WARNINGS **************************


                     ====================================
                        Single-point calculation
                     ====================================

outcoor: Atomic coordinates (Ang):                          
    2.58237765   -5.77683044    0.00000000   1       1  H
    1.65475924   -5.26936198    0.00000000   2       2  N
    0.06312884   -6.10170459    0.00000000   3       3  Si
    0.11922324   -7.59684950    0.00000000   1       4  H
   -1.37689205   -5.18260374    0.00000000   2       5  N
   -0.82437190   -3.46086644    0.00000000   3       6  Si
   -1.17057148   -1.27000210    0.00000000   3       7  Si
   -2.70693368   -0.41751578    0.00000000   2       8  N
   -2.75456966    0.63485862    0.00000000   1       9  H
   -3.63767564   -0.90996786    0.00000000   1      10  H
    0.21809179   -0.23419397    0.00000000   2      11  N
    1.87200410   -0.69716230    0.00000000   3      12  Si
    2.82800113    0.46146477    0.00000000   1      13  H
    2.64815008   -2.25502447    0.00000000   2      14  N
    1.39192138   -3.45472722    0.00000000   3      15  Si
    1.85005307    7.64460379    0.00000000   2      16  N
    0.52268155    8.85480809    0.00000000   3      17  Si
    1.16268282   10.21612633    0.00000000   1      18  H
   -1.56306439    8.18427674    0.00000000   3      19  Si
   -3.59262699    9.31439293    0.00000000   3      20  Si
   -3.43839122   10.47462314    0.94030528   1      21  H
   -4.57856171    8.29247231    0.51261370   1      22  H
   -4.00884195    9.79061878   -1.36667834   1      23  H
   -1.49656897    5.91030012    0.00000000   3      24  Si
   -2.53561770    4.71724062    0.00000000   4      25  O
    0.16042261    5.27632493    0.00000000   2      26  N
    0.14240524    4.21388010    0.00000000   1      27  H
    1.78402568    5.87339514    0.00000000   3      28  Si
    2.97904185    4.85896994    0.00000000   4      29  O
    2.85009044    7.99011089    0.00000000   1      30  H

outcell: Unit cell vectors (Ang):
       15.865778    0.000000    0.000000
        0.000000   27.467203    0.000000
        0.000000    0.000000   10.224979

outcell: Cell vector modules (Ang)   :   15.865778   27.467203   10.224979
outcell: Cell angles (23,13,12) (deg):     90.0000     90.0000     90.0000
outcell: Cell volume (Ang**3)        :   4455.9286
<dSpData1D:S at geom step 0
  <sparsity:sparsity for geom step 0
    nrows_g=302 nrows=62 sparsity=.1103 nnzs=10060, refcount: 8>
  <dData1D:(new from dSpData1D) n=10060, refcount: 1>
refcount: 1>
new_DM -- step:     1
Initializing Density Matrix...
DM filled with atomic data:
<dSpData2D:DM initialized from atoms
  <sparsity:sparsity for geom step 0
    nrows_g=302 nrows=62 sparsity=.1103 nnzs=10060, refcount: 9>
  <dData2D:DM n=10060 m=8, refcount: 1>
refcount: 1>
     spin moment: S , {S} =   56.00000   0.00000   0.00000  56.00000
No. of atoms with KB's overlaping orbs in proc 0. Max # of overlaps:      24     149

Initializing spin-orbit part of the Hamiltonian
  Adding spin-orbit effects for H 
  Adding spin-orbit effects for N 
  Adding spin-orbit effects for Si
  Adding spin-orbit effects for O 


New grid distribution:   1
           1       1:   90    1:   80    1:   20
           2       1:   90    1:   80   21:   40
           3       1:   90    1:   80   41:   60
           4       1:   90   81:  160    1:   20
           5       1:   90   81:  160   21:   40
           6       1:   90   81:  160   41:   60

InitMesh: MESH =   180 x   320 x   120 =     6912000
InitMesh: (bp) =    90 x   160 x    60 =      864000
InitMesh: Mesh cutoff (required, used) =   340.000   355.733 Ry
ExtMesh (bp) on 0 =   194 x   188 x   128 =     4668416
New grid distribution:   2
           1      14:   90   39:   59    1:   60
           2       1:   11   60:  160    1:   60
           3       1:   13    1:   59    1:   60
           4      12:   90   60:  140    1:   60
           5      14:   90    1:   38    1:   60
           6      12:   90  141:  160    1:   60
New grid distribution:   3
           1       1:   19   62:  160    1:   60
           2      23:   90   37:   61    1:   60
           3       1:   22    1:   61    1:   60
           4      20:   90   62:  130    1:   60
           5      23:   90    1:   36    1:   60
           6      20:   90  131:  160    1:   60
Setting up quadratic distribution...
ExtMesh (bp) on 0 =   181 x   129 x   168 =     3922632
PhiOnMesh: Number of (b)points on node 0 =                97020
PhiOnMesh: nlist on node 0 =              1798000

stepf: Fermi-Dirac step function

siesta: Program's energy decomposition (eV):
siesta: Ebs     =      -629.062373
siesta: Eions   =      3553.971015
siesta: Ena     =       377.805112
siesta: Ekin    =      3183.796844
siesta: Enl     =     -2998.681161
siesta: Eso     =        -0.003899
siesta: Edftu   =         0.000000
siesta: DEna    =       130.460298
siesta: DUscf   =        76.765176
siesta: DUext   =         0.000000
siesta: Exc     =     -1171.497102
siesta: eta*DQ  =         0.000000
siesta: Emadel  =         0.000000
siesta: Emeta   =         0.000000
siesta: Emolmec =         0.000000
siesta: Ekinion =         0.000000
siesta: Eharris =     -3882.335039
siesta: Etot    =     -3955.325748
siesta: FreeEng =     -3955.329981

        iscf     Eharris(eV)        E_KS(eV)     FreeEng(eV)     dDmax    Ef(eV) dHmax(eV)
   scf:    1    -3882.335039    -3955.325748    -3955.329981  0.971426 -4.940844 21.556613
     spin moment: S , {S} =    2.03201   0.00003   0.00001   2.03201
timer: Routine,Calls,Time,% = IterSCF        1       5.638  21.94
   scf:    2    -3998.265050    -3989.448654    -3989.448656  0.457086 -4.358401 10.710354
     spin moment: S , {S} =    2.00011  -0.00001   0.00004   2.00011
   scf:    3    -3980.455793    -3991.877858    -3991.914975  0.415745 -4.259617  9.330433
     spin moment: S , {S} =    1.01295   0.00002   0.00000   1.01295
   scf:    4    -4000.794292    -3997.468981    -3997.468982  0.167955 -3.956575  6.667691
     spin moment: S , {S} =    0.00010   0.00001  -0.00000   0.00010
   scf:    5    -3998.829266    -3998.221694    -3998.221694  0.036701 -3.885560  3.877922
     spin moment: S , {S} =    0.00005   0.00000  -0.00000   0.00005
   scf:    6    -3998.858198    -3998.550176    -3998.550176  0.022939 -3.890913  2.094163
     spin moment: S , {S} =    0.00003   0.00000  -0.00000   0.00003
   scf:    7    -3998.913965    -3998.724722    -3998.724722  0.023135 -3.943147  0.707643
     spin moment: S , {S} =    0.00001   0.00000  -0.00000   0.00001
   scf:    8    -3998.826806    -3998.773841    -3998.773841  0.010780 -3.979560  0.396622
     spin moment: S , {S} =    0.00000   0.00000  -0.00000   0.00000
   scf:    9    -3998.815814    -3998.793833    -3998.793834  0.006974 -3.994830  0.282451
     spin moment: S , {S} =    0.00000   0.00000  -0.00000   0.00000
   scf:   10    -3998.839157    -3998.811927    -3998.811950  0.016920 -4.012653  0.158477
     spin moment: S , {S} =    0.00005   0.00000   0.00000  -0.00005
   scf:   11    -3998.814924    -3998.813412    -3998.813440  0.004254 -4.003727  0.033938
     spin moment: S , {S} =    0.00001   0.00000   0.00000  -0.00001
   scf:   12    -3998.814013    -3998.813708    -3998.813739  0.001496 -4.002499  0.026304
     spin moment: S , {S} =    0.00000   0.00000   0.00000   0.00000
   scf:   13    -3998.814072    -3998.813883    -3998.813915  0.001294 -4.001197  0.019946
     spin moment: S , {S} =    0.00000   0.00000   0.00000   0.00000
   scf:   14    -3998.814187    -3998.814024    -3998.814057  0.001490 -4.000468  0.015407
     spin moment: S , {S} =    0.00000   0.00000   0.00000   0.00000
   scf:   15    -3998.814212    -3998.814109    -3998.814142  0.001390 -4.000074  0.010247
     spin moment: S , {S} =    0.00000   0.00000   0.00000  -0.00000
   scf:   16    -3998.814199    -3998.814148    -3998.814181  0.001033 -4.000080  0.006063
     spin moment: S , {S} =    0.00000   0.00000   0.00000  -0.00000
   scf:   17    -3998.814193    -3998.814167    -3998.814200  0.000907 -4.000168  0.003515
     spin moment: S , {S} =    0.00000   0.00000   0.00000  -0.00000
   scf:   18    -3998.814176    -3998.814171    -3998.814203  0.000417 -4.000254  0.001750
     spin moment: S , {S} =    0.00000   0.00000   0.00000  -0.00000
   scf:   19    -3998.814173    -3998.814172    -3998.814204  0.000230 -4.000252  0.000789
     spin moment: S , {S} =    0.00000   0.00000   0.00000  -0.00000
   scf:   20    -3998.814172    -3998.814172    -3998.814204  0.000060 -4.000256  0.000544
     spin moment: S , {S} =    0.00000   0.00000   0.00000  -0.00000
   scf:   21    -3998.814172    -3998.814172    -3998.814205  0.000054 -4.000258  0.000284
     spin moment: S , {S} =    0.00000   0.00000   0.00000  -0.00000
   scf:   22    -3998.814172    -3998.814172    -3998.814205  0.000041 -4.000269  0.000167
     spin moment: S , {S} =    0.00000   0.00000   0.00000  -0.00000
   scf:   23    -3998.814172    -3998.814172    -3998.814205  0.000010 -4.000275  0.000127
     spin moment: S , {S} =    0.00000   0.00000   0.00000  -0.00000
   scf:   24    -3998.814172    -3998.814172    -3998.814205  0.000006 -4.000277  0.000103
     spin moment: S , {S} =    0.00000   0.00000   0.00000  -0.00000
mix: Pulay -- resetting history
   scf:   25    -3998.814172    -3998.814172    -3998.814205  0.000011 -4.000275  0.000048
     spin moment: S , {S} =    0.00000   0.00000   0.00000  -0.00000
   scf:   26    -3998.814172    -3998.814172    -3998.814205  0.000005 -4.000273  0.000017
     spin moment: S , {S} =    0.00000   0.00000   0.00000  -0.00000
   scf:   27    -3998.814172    -3998.814172    -3998.814205  0.000002 -4.000273  0.000008
     spin moment: S , {S} =    0.00000   0.00000   0.00000  -0.00000
   scf:   28    -3998.814172    -3998.814172    -3998.814205  0.000001 -4.000273  0.000005
     spin moment: S , {S} =    0.00000   0.00000  -0.00000  -0.00000
   scf:   29    -3998.814172    -3998.814172    -3998.814205  0.000001 -4.000274  0.000005
     spin moment: S , {S} =    0.00000   0.00000  -0.00000   0.00000
   scf:   30    -3998.814172    -3998.814172    -3998.814205  0.000000 -4.000274  0.000003
     spin moment: S , {S} =    0.00000   0.00000  -0.00000   0.00000
   scf:   31    -3998.814172    -3998.814172    -3998.814205  0.000000 -4.000274  0.000002
     spin moment: S , {S} =    0.00000   0.00000  -0.00000   0.00000
   scf:   32    -3998.814172    -3998.814172    -3998.814205  0.000000 -4.000274  0.000001
     spin moment: S , {S} =    0.00000   0.00000  -0.00000   0.00000
   scf:   33    -3998.814172    -3998.814172    -3998.814205  0.000000 -4.000274  0.000001
     spin moment: S , {S} =    0.00000   0.00000  -0.00000   0.00000

SCF Convergence by DM+H criterion
max |DM_out - DM_in|         :     0.0000001754
max |H_out - H_in|      (eV) :     0.0000008746
SCF cycle converged after 33 iterations

Using DM_out to compute the final energy and forces
No. of atoms with KB's overlaping orbs in proc 0. Max # of overlaps:      24     149

siesta: E_KS(eV) =            -3998.8142

siesta: E_KS - E_eggbox =     -3998.8142
     spin moment: S , {S} =    0.00000   0.00000  -0.00000   0.00000

siesta: Atomic forces (eV/Ang):
     1   -0.037512    0.057572    0.000002
     2   -0.005801   -0.040139   -0.000002
     3   -0.002548    0.042831    0.000004
     4   -0.020469   -0.013717    0.000001
     5    0.022220   -0.042161   -0.000003
     6    0.028536    0.004808   -0.000000
     7   -0.095255    0.116550    0.000009
     8    0.065696   -0.057622   -0.000033
     9    0.016862   -0.016743    0.000051
    10    0.092625    0.031437    0.000007
    11   -0.032289   -0.018634   -0.000011
    12    0.059946    0.067588    0.000000
    13   -0.083761   -0.112234   -0.000000
    14   -0.013990   -0.063871    0.000001
    15   -0.000152    0.066166   -0.000000
    16    0.003181    0.165211    0.008257
    17   -0.004662   -0.045518   -0.039780
    18   -0.209668    0.053663    0.008249
    19    0.001903    0.028979   -0.041176
    20    0.043663   -0.050969    0.027576
    21   -0.068194    0.014272   -0.071560
    22   -0.029571    0.099667    0.026914
    23    0.025223    0.024239   -0.052876
    24    0.061439   -0.113693   -0.026646
    25   -3.402627    0.975917    0.003060
    26   -0.052812    0.072791    0.006543
    27    0.051815   -0.119870    0.002795
    28   -0.011864   -0.127161   -0.000872
    29    4.758277    0.985368   -0.001094
    30   -0.022242    0.135479    0.008275
----------------------------------------
   Tot    1.137968    2.120204   -0.142310
----------------------------------------
   Max    4.758277
   Res    0.636149    sqrt( Sum f_i^2 / 3N )
----------------------------------------
   Max    4.758277    constrained

Stress tensor Voigt[x,y,z,yz,xz,xy] (kbar):       -1.74       -0.38       -0.22       -0.04        0.05        0.28
(Free)E + p*V (eV/cell)    -3996.6419
Target enthalpy (eV/cell)    -3998.8142

mulliken: Atomic and Orbital Populations:

Species: H                   

Atom      Orb        Charge      Spin       Svec
----------------------------------------------------------------
    1  1 1s         0.50874   0.00000     -0.000  -0.000  -0.000
    1  2 1s         0.18803   0.00000      0.000   0.000   0.000
    1  3 2Ppy       0.02794   0.00000     -0.000   0.000   0.000
    1  4 2Ppz       0.03998   0.00000     -0.000  -0.000  -0.000
    1  5 2Ppx       0.02508   0.00000     -0.000   0.000   0.000
    1     Total     0.78976   0.00000     -0.000  -0.000   0.000

    4  1 1s         1.02411   0.00000     -0.000  -0.000  -0.000
    4  2 1s         0.09501   0.00000      0.000   0.000   0.000
    4  3 2Ppy       0.03903   0.00000      0.000  -0.000   0.000
    4  4 2Ppz       0.01991   0.00000     -0.000  -0.000   0.000
    4  5 2Ppx       0.01356   0.00000     -0.000  -0.000  -0.000
    4     Total     1.19163   0.00000     -0.000  -0.000  -0.000

    9  1 1s         0.47597   0.00000      0.000  -0.000  -0.000
    9  2 1s         0.19562   0.00000      0.000   0.000   0.000
    9  3 2Ppy       0.02360   0.00000      0.000   0.000  -0.000
    9  4 2Ppz       0.04828   0.00000     -0.000  -0.000  -0.000
    9  5 2Ppx       0.01209   0.00000      0.000  -0.000  -0.000
    9     Total     0.75555   0.00000      0.000  -0.000   0.000

   10  1 1s         0.48200   0.00000     -0.000   0.000   0.000
   10  2 1s         0.19604   0.00000     -0.000  -0.000   0.000
   10  3 2Ppy       0.00689   0.00000      0.000  -0.000  -0.000
   10  4 2Ppz       0.05298   0.00000     -0.000   0.000   0.000
   10  5 2Ppx       0.02899   0.00000      0.000   0.000  -0.000
   10     Total     0.76691   0.00000     -0.000   0.000   0.000

   13  1 1s         1.01068   0.00000      0.000  -0.000   0.000
   13  2 1s         0.09962   0.00000     -0.000  -0.000   0.000
   13  3 2Ppy       0.02519   0.00000     -0.000  -0.000   0.000
   13  4 2Ppz       0.01432   0.00000      0.000   0.000  -0.000
   13  5 2Ppx       0.01759   0.00000     -0.000   0.000   0.000
   13     Total     1.16740   0.00000      0.000   0.000   0.000

   18  1 1s         1.05010   0.00000     -0.000  -0.000  -0.000
   18  2 1s         0.08397   0.00000      0.000   0.000   0.000
   18  3 2Ppy       0.02780   0.00000     -0.000  -0.000   0.000
   18  4 2Ppz       0.01891   0.00000     -0.000   0.000  -0.000
   18  5 2Ppx       0.01767   0.00000     -0.000  -0.000   0.000
   18     Total     1.19845   0.00000     -0.000  -0.000  -0.000

   21  1 1s         1.06629   0.00000     -0.000  -0.000  -0.000
   21  2 1s         0.08298   0.00000      0.000   0.000   0.000
   21  3 2Ppy       0.02228   0.00000     -0.000   0.000   0.000
   21  4 2Ppz       0.02109   0.00000     -0.000   0.000   0.000
   21  5 2Ppx       0.01159   0.00000     -0.000   0.000  -0.000
   21     Total     1.20423   0.00000     -0.000  -0.000  -0.000

   22  1 1s         1.05235   0.00000     -0.000  -0.000  -0.000
   22  2 1s         0.08344   0.00000      0.000   0.000   0.000
   22  3 2Ppy       0.02012   0.00000      0.000   0.000   0.000
   22  4 2Ppz       0.01768   0.00000      0.000   0.000   0.000
   22  5 2Ppx       0.01709   0.00000     -0.000  -0.000   0.000
   22     Total     1.19068   0.00000     -0.000  -0.000  -0.000

   23  1 1s         1.06499   0.00000      0.000  -0.000  -0.000
   23  2 1s         0.08209   0.00000     -0.000  -0.000   0.000
   23  3 2Ppy       0.01684   0.00000     -0.000  -0.000  -0.000
   23  4 2Ppz       0.02462   0.00000      0.000   0.000   0.000
   23  5 2Ppx       0.01349   0.00000     -0.000  -0.000  -0.000
   23     Total     1.20203   0.00000      0.000  -0.000  -0.000

   27  1 1s         0.46274   0.00000      0.000   0.000   0.000
   27  2 1s         0.19067   0.00000     -0.000  -0.000   0.000
   27  3 2Ppy       0.02070   0.00000     -0.000  -0.000  -0.000
   27  4 2Ppz       0.02526   0.00000      0.000  -0.000   0.000
   27  5 2Ppx       0.02913   0.00000      0.000   0.000   0.000
   27     Total     0.72849   0.00000     -0.000   0.000   0.000

   30  1 1s         0.48359   0.00000     -0.000  -0.000  -0.000
   30  2 1s         0.18901   0.00000      0.000   0.000   0.000
   30  3 2Ppy       0.02655   0.00000      0.000  -0.000  -0.000
   30  4 2Ppz       0.03451   0.00000      0.000  -0.000   0.000
   30  5 2Ppx       0.02314   0.00000      0.000  -0.000   0.000
   30     Total     0.75681   0.00000     -0.000  -0.000   0.000

----------------------------------------------------------------
Total              10.95194   0.00000      0.000  -0.000  -0.000


Species: N                   

Atom      Orb        Charge      Spin       Svec
----------------------------------------------------------------
    2  1 2s         1.38106   0.00000     -0.000  -0.000  -0.000
    2  2 2s         0.12661   0.00000      0.000   0.000   0.000
    2  3 2py        1.06841   0.00000      0.000   0.000  -0.000
    2  4 2pz        1.49536   0.00000      0.000  -0.000  -0.000
    2  5 2px        1.01733   0.00000     -0.000  -0.000  -0.000
    2  6 2py        0.19589   0.00000     -0.000   0.000   0.000
    2  7 2pz        0.01431   0.00000     -0.000   0.000   0.000
    2  8 2px        0.20998   0.00000      0.000   0.000   0.000
    2  9 3Pdxy      0.00674   0.00000      0.000   0.000   0.000
    2 10 3Pdyz      0.00607   0.00000     -0.000   0.000   0.000
    2 11 3Pdz2      0.00151   0.00000      0.000  -0.000   0.000
    2 12 3Pdxz      0.00304   0.00000      0.000  -0.000   0.000
    2 13 3Pdx2-y2   0.00297   0.00000     -0.000  -0.000  -0.000
    2     Total     5.52929   0.00000      0.000  -0.000  -0.000

    5  1 2s         1.55812   0.00000      0.000   0.000  -0.000
    5  2 2s         0.08114   0.00000     -0.000   0.000   0.000
    5  3 2py        0.90454   0.00000      0.000   0.000  -0.000
    5  4 2pz        1.22242   0.00000     -0.000  -0.000  -0.000
    5  5 2px        1.14198   0.00000     -0.000  -0.000  -0.000
    5  6 2py        0.23012   0.00000      0.000   0.000   0.000
    5  7 2pz        0.05523   0.00000      0.000  -0.000   0.000
    5  8 2px        0.14627   0.00000      0.000   0.000   0.000
    5  9 3Pdxy      0.00854   0.00000      0.000  -0.000  -0.000
    5 10 3Pdyz      0.00701   0.00000     -0.000  -0.000   0.000
    5 11 3Pdz2      0.00189   0.00000     -0.000   0.000   0.000
    5 12 3Pdxz      0.01129   0.00000      0.000   0.000   0.000
    5 13 3Pdx2-y2   0.00920   0.00000     -0.000   0.000   0.000
    5     Total     5.37775   0.00000     -0.000  -0.000  -0.000

    8  1 2s         1.28489   0.00000     -0.000   0.000  -0.000
    8  2 2s         0.17155   0.00000      0.000  -0.000   0.000
    8  3 2py        1.06447   0.00000      0.000   0.000  -0.000
    8  4 2pz        1.57047   0.00000     -0.000  -0.000  -0.000
    8  5 2px        1.00419   0.00000     -0.000   0.000  -0.000
    8  6 2py        0.19435   0.00000     -0.000  -0.000   0.000
    8  7 2pz        0.02728   0.00000     -0.000   0.000   0.000
    8  8 2px        0.22861   0.00000      0.000  -0.000   0.000
    8  9 3Pdxy      0.00271   0.00000      0.000  -0.000   0.000
    8 10 3Pdyz      0.00083   0.00000     -0.000   0.000  -0.000
    8 11 3Pdz2      0.00272   0.00000      0.000   0.000   0.000
    8 12 3Pdxz      0.00243   0.00000     -0.000  -0.000  -0.000
    8 13 3Pdx2-y2   0.00431   0.00000     -0.000  -0.000  -0.000
    8     Total     5.55882   0.00000      0.000  -0.000  -0.000

   11  1 2s         1.45809   0.00000      0.000  -0.000   0.000
   11  2 2s         0.11418   0.00000     -0.000   0.000   0.000
   11  3 2py        1.22563   0.00000      0.000   0.000   0.000
   11  4 2pz        1.28884   0.00000     -0.000  -0.000   0.000
   11  5 2px        0.80026   0.00000     -0.000  -0.000   0.000
   11  6 2py        0.11049   0.00000     -0.000  -0.000  -0.000
   11  7 2pz        0.04589   0.00000      0.000  -0.000  -0.000
   11  8 2px        0.31735   0.00000      0.000   0.000  -0.000
   11  9 3Pdxy      0.00736   0.00000     -0.000  -0.000   0.000
   11 10 3Pdyz      0.00604   0.00000      0.000   0.000   0.000
   11 11 3Pdz2      0.00054   0.00000      0.000   0.000  -0.000
   11 12 3Pdxz      0.00496   0.00000      0.000   0.000  -0.000
   11 13 3Pdx2-y2   0.00518   0.00000     -0.000   0.000   0.000
   11     Total     5.38480   0.00000      0.000  -0.000   0.000

   14  1 2s         1.50653   0.00000      0.000  -0.000   0.000
   14  2 2s         0.10228   0.00000     -0.000   0.000   0.000
   14  3 2py        0.84442   0.00000      0.000   0.000   0.000
   14  4 2pz        1.23731   0.00000      0.000   0.000   0.000
   14  5 2px        1.17691   0.00000      0.000  -0.000   0.000
   14  6 2py        0.27730   0.00000      0.000   0.000  -0.000
   14  7 2pz        0.05440   0.00000     -0.000  -0.000  -0.000
   14  8 2px        0.13209   0.00000      0.000   0.000   0.000
   14  9 3Pdxy      0.00949   0.00000     -0.000  -0.000   0.000
   14 10 3Pdyz      0.00490   0.00000      0.000   0.000  -0.000
   14 11 3Pdz2      0.00147   0.00000      0.000   0.000  -0.000
   14 12 3Pdxz      0.01066   0.00000     -0.000   0.000  -0.000
   14 13 3Pdx2-y2   0.00791   0.00000      0.000   0.000   0.000
   14     Total     5.36568   0.00000      0.000   0.000   0.000

   16  1 2s         1.37880   0.00000     -0.000   0.000  -0.000
   16  2 2s         0.12581   0.00000      0.000  -0.000   0.000
   16  3 2py        0.99149   0.00000      0.000   0.000   0.000
   16  4 2pz        1.54750   0.00000      0.000   0.000  -0.000
   16  5 2px        1.08027   0.00000      0.000   0.000  -0.000
   16  6 2py        0.23942   0.00000     -0.000  -0.000  -0.000
   16  7 2pz        0.00320   0.00000      0.000  -0.000   0.000
   16  8 2px        0.18049   0.00000     -0.000  -0.000   0.000
   16  9 3Pdxy      0.00153   0.00000     -0.000   0.000   0.000
   16 10 3Pdyz      0.00476   0.00000      0.000   0.000  -0.000
   16 11 3Pdz2      0.00088   0.00000     -0.000   0.000   0.000
   16 12 3Pdxz      0.00237   0.00000      0.000   0.000  -0.000
   16 13 3Pdx2-y2   0.00610   0.00000      0.000   0.000  -0.000
   16     Total     5.56261   0.00000      0.000  -0.000  -0.000

   26  1 2s         1.37278   0.00000      0.000  -0.000   0.000
   26  2 2s         0.12553   0.00000     -0.000   0.000  -0.000
   26  3 2py        1.11384   0.00000     -0.000  -0.000  -0.000
   26  4 2pz        1.53017   0.00000      0.000  -0.000  -0.000
   26  5 2px        0.94604   0.00000      0.000  -0.000   0.000
   26  6 2py        0.16904   0.00000      0.000   0.000   0.000
   26  7 2pz        0.00499   0.00000     -0.000  -0.000   0.000
   26  8 2px        0.26520   0.00000     -0.000   0.000   0.000
   26  9 3Pdxy      0.00064   0.00000     -0.000  -0.000  -0.000
   26 10 3Pdyz      0.00080   0.00000      0.000   0.000   0.000
   26 11 3Pdz2     -0.00128   0.00000     -0.000  -0.000  -0.000
   26 12 3Pdxz      0.00468   0.00000      0.000  -0.000  -0.000
   26 13 3Pdx2-y2   0.00216   0.00000      0.000   0.000   0.000
   26     Total     5.53459   0.00000      0.000  -0.000  -0.000

----------------------------------------------------------------
Total              49.26547   0.00000      0.000  -0.000  -0.000


Species: Si                  

Atom      Orb        Charge      Spin       Svec
----------------------------------------------------------------
    3  1 3s         0.55107   0.00000     -0.000  -0.000   0.000
    3  2 3s         0.38743   0.00000      0.000   0.000   0.000
    3  3 3py        0.08191   0.00000      0.000   0.000   0.000
    3  4 3pz        0.53614   0.00000      0.000   0.000   0.000
    3  5 3px        0.36836   0.00000     -0.000  -0.000   0.000
    3  6 3py        0.49892   0.00000     -0.000   0.000   0.000
    3  7 3pz        0.17589   0.00000      0.000   0.000   0.000
    3  8 3px        0.23720   0.00000     -0.000   0.000   0.000
    3  9 3Pdxy      0.10816   0.00000      0.000   0.000   0.000
    3 10 3Pdyz      0.05210   0.00000     -0.000  -0.000   0.000
    3 11 3Pdz2      0.01015   0.00000     -0.000  -0.000  -0.000
    3 12 3Pdxz      0.13300   0.00000      0.000  -0.000   0.000
    3 13 3Pdx2-y2   0.32443   0.00000      0.000   0.000   0.000
    3     Total     3.46477   0.00000      0.000   0.000   0.000

    6  1 3s         0.66190   0.00000     -0.000   0.000   0.000
    6  2 3s         0.37033   0.00000      0.000  -0.000   0.000
    6  3 3py        0.13101   0.00000      0.000  -0.000  -0.000
    6  4 3pz        0.69510   0.00000     -0.000  -0.000   0.000
    6  5 3px        0.49073   0.00000      0.000   0.000   0.000
    6  6 3py        0.46528   0.00000     -0.000   0.000   0.000
    6  7 3pz        0.24290   0.00000      0.000   0.000   0.000
    6  8 3px        0.24552   0.00000     -0.000  -0.000   0.000
    6  9 3Pdxy      0.18493   0.00000      0.000   0.000   0.000
    6 10 3Pdyz      0.14714   0.00000     -0.000  -0.000  -0.000
    6 11 3Pdz2      0.01169   0.00000     -0.000   0.000  -0.000
    6 12 3Pdxz      0.03654   0.00000     -0.000  -0.000  -0.000
    6 13 3Pdx2-y2   0.18866   0.00000     -0.000   0.000  -0.000
    6     Total     3.87174   0.00000     -0.000   0.000   0.000

    7  1 3s         0.62630   0.00000      0.000   0.000  -0.000
    7  2 3s         0.36978   0.00000     -0.000  -0.000  -0.000
    7  3 3py        0.37295   0.00000      0.000  -0.000  -0.000
    7  4 3pz        0.49287   0.00000      0.000  -0.000  -0.000
    7  5 3px        0.08004   0.00000     -0.000  -0.000  -0.000
    7  6 3py        0.30318   0.00000     -0.000   0.000   0.000
    7  7 3pz        0.20839   0.00000     -0.000  -0.000  -0.000
    7  8 3px        0.42181   0.00000      0.000   0.000   0.000
    7  9 3Pdxy      0.20446   0.00000      0.000  -0.000  -0.000
    7 10 3Pdyz      0.14276   0.00000      0.000   0.000  -0.000
    7 11 3Pdz2      0.01067   0.00000      0.000  -0.000  -0.000
    7 12 3Pdxz      0.15046   0.00000      0.000   0.000  -0.000
    7 13 3Pdx2-y2   0.24178   0.00000     -0.000  -0.000  -0.000
    7     Total     3.62547   0.00000      0.000  -0.000  -0.000

   12  1 3s         0.52893   0.00000      0.000  -0.000  -0.000
   12  2 3s         0.40167   0.00000     -0.000   0.000   0.000
   12  3 3py        0.23063   0.00000     -0.000  -0.000  -0.000
   12  4 3pz        0.43805   0.00000      0.000  -0.000  -0.000
   12  5 3px        0.29017   0.00000     -0.000   0.000  -0.000
   12  6 3py        0.39472   0.00000      0.000   0.000  -0.000
   12  7 3pz        0.17020   0.00000     -0.000   0.000  -0.000
   12  8 3px        0.34393   0.00000      0.000  -0.000  -0.000
   12  9 3Pdxy      0.38691   0.00000     -0.000   0.000  -0.000
   12 10 3Pdyz      0.08032   0.00000     -0.000   0.000  -0.000
   12 11 3Pdz2      0.01044   0.00000     -0.000   0.000   0.000
   12 12 3Pdxz      0.09259   0.00000      0.000   0.000  -0.000
   12 13 3Pdx2-y2   0.16491   0.00000      0.000   0.000  -0.000
   12     Total     3.53347   0.00000     -0.000   0.000  -0.000

   15  1 3s         0.66109   0.00000      0.000  -0.000   0.000
   15  2 3s         0.36709   0.00000     -0.000   0.000   0.000
   15  3 3py       -0.03270   0.00000     -0.000  -0.000   0.000
   15  4 3pz        0.51060   0.00000      0.000   0.000   0.000
   15  5 3px        0.38879   0.00000     -0.000   0.000  -0.000
   15  6 3py        0.47440   0.00000      0.000   0.000   0.000
   15  7 3pz        0.20022   0.00000     -0.000   0.000   0.000
   15  8 3px        0.34013   0.00000      0.000  -0.000   0.000
   15  9 3Pdxy      0.14149   0.00000     -0.000   0.000   0.000
   15 10 3Pdyz      0.12585   0.00000     -0.000  -0.000  -0.000
   15 11 3Pdz2      0.01385   0.00000      0.000   0.000   0.000
   15 12 3Pdxz      0.12462   0.00000     -0.000  -0.000   0.000
   15 13 3Pdx2-y2   0.30191   0.00000      0.000  -0.000  -0.000
   15     Total     3.61733   0.00000     -0.000  -0.000   0.000

   17  1 3s         0.73170   0.00000      0.000  -0.000  -0.000
   17  2 3s         0.35635   0.00000     -0.000   0.000   0.000
   17  3 3py        0.09597   0.00000      0.000   0.000  -0.000
   17  4 3pz        0.62663   0.00000     -0.000   0.000  -0.000
   17  5 3px        0.35546   0.00000     -0.000   0.000  -0.000
   17  6 3py        0.45303   0.00000     -0.000  -0.000   0.000
   17  7 3pz        0.15093   0.00000      0.000   0.000   0.000
   17  8 3px        0.33538   0.00000      0.000  -0.000   0.000
   17  9 3Pdxy      0.15114   0.00000      0.000  -0.000   0.000
   17 10 3Pdyz      0.02343   0.00000      0.000   0.000  -0.000
   17 11 3Pdz2      0.00917   0.00000     -0.000   0.000  -0.000
   17 12 3Pdxz      0.12870   0.00000     -0.000   0.000  -0.000
   17 13 3Pdx2-y2   0.12693   0.00000     -0.000   0.000   0.000
   17     Total     3.54482   0.00000     -0.000   0.000  -0.000

   19  1 3s         0.86251   0.00000      0.000   0.000   0.000
   19  2 3s         0.31292   0.00000     -0.000  -0.000  -0.000
   19  3 3py        0.44671   0.00000      0.000  -0.000   0.000
   19  4 3pz        0.66016   0.00000      0.000  -0.000   0.000
   19  5 3px        0.35331   0.00000     -0.000  -0.000   0.000
   19  6 3py        0.32156   0.00000      0.000   0.000  -0.000
   19  7 3pz        0.26811   0.00000      0.000  -0.000   0.000
   19  8 3px        0.35635   0.00000      0.000   0.000  -0.000
   19  9 3Pdxy      0.09347   0.00000     -0.000   0.000   0.000
   19 10 3Pdyz      0.02937   0.00000      0.000   0.000  -0.000
   19 11 3Pdz2      0.01454   0.00000      0.000   0.000  -0.000
   19 12 3Pdxz      0.05649   0.00000     -0.000   0.000  -0.000
   19 13 3Pdx2-y2   0.13125   0.00000      0.000   0.000   0.000
   19     Total     3.90675   0.00000      0.000  -0.000   0.000

   20  1 3s         0.54045   0.00000      0.000   0.000   0.000
   20  2 3s         0.44403   0.00000     -0.000  -0.000   0.000
   20  3 3py        0.31074   0.00000     -0.000   0.000   0.000
   20  4 3pz        0.25491   0.00000     -0.000  -0.000   0.000
   20  5 3px        0.45510   0.00000      0.000   0.000  -0.000
   20  6 3py        0.38731   0.00000      0.000  -0.000   0.000
   20  7 3pz        0.42307   0.00000      0.000   0.000   0.000
   20  8 3px        0.27761   0.00000     -0.000  -0.000   0.000
   20  9 3Pdxy      0.06998   0.00000     -0.000  -0.000  -0.000
   20 10 3Pdyz      0.08423   0.00000     -0.000  -0.000   0.000
   20 11 3Pdz2      0.05093   0.00000     -0.000  -0.000  -0.000
   20 12 3Pdxz      0.07241   0.00000     -0.000  -0.000   0.000
   20 13 3Pdx2-y2   0.04582   0.00000      0.000   0.000   0.000
   20     Total     3.41660   0.00000     -0.000   0.000   0.000

   24  1 3s         0.60579   0.00000     -0.000  -0.000  -0.000
   24  2 3s         0.36942   0.00000      0.000   0.000  -0.000
   24  3 3py        0.27088   0.00000     -0.000   0.000  -0.000
   24  4 3pz        0.40993   0.00000     -0.000   0.000  -0.000
   24  5 3px        0.16825   0.00000      0.000   0.000  -0.000
   24  6 3py        0.39796   0.00000      0.000  -0.000  -0.000
   24  7 3pz        0.19285   0.00000      0.000  -0.000  -0.000
   24  8 3px        0.36021   0.00000     -0.000  -0.000  -0.000
   24  9 3Pdxy      0.14233   0.00000      0.000   0.000  -0.000
   24 10 3Pdyz      0.14035   0.00000     -0.000  -0.000  -0.000
   24 11 3Pdz2      0.01532   0.00000     -0.000  -0.000  -0.000
   24 12 3Pdxz      0.12118   0.00000     -0.000  -0.000  -0.000
   24 13 3Pdx2-y2   0.34926   0.00000     -0.000  -0.000  -0.000
   24     Total     3.54372   0.00000     -0.000  -0.000  -0.000

   28  1 3s         0.43348   0.00000      0.000  -0.000  -0.000
   28  2 3s         0.37772   0.00000     -0.000   0.000  -0.000
   28  3 3py        0.16103   0.00000     -0.000  -0.000  -0.000
   28  4 3pz        0.39959   0.00000      0.000   0.000  -0.000
   28  5 3px        0.16715   0.00000      0.000   0.000  -0.000
   28  6 3py        0.36851   0.00000      0.000   0.000   0.000
   28  7 3pz        0.20462   0.00000      0.000   0.000  -0.000
   28  8 3px        0.38535   0.00000     -0.000  -0.000  -0.000
   28  9 3Pdxy      0.14399   0.00000     -0.000   0.000  -0.000
   28 10 3Pdyz      0.12374   0.00000     -0.000  -0.000  -0.000
   28 11 3Pdz2      0.01560   0.00000      0.000   0.000  -0.000
   28 12 3Pdxz      0.15665   0.00000      0.000  -0.000  -0.000
   28 13 3Pdx2-y2   0.35140   0.00000     -0.000  -0.000  -0.000
   28     Total     3.28882   0.00000     -0.000   0.000  -0.000

----------------------------------------------------------------
Total              85.07896   0.00000      0.000  -0.000  -0.000


Species: O                   

Atom      Orb        Charge      Spin       Svec
----------------------------------------------------------------
   25  1 2s         1.73809   0.00000     -0.000  -0.000   0.000
   25  2 2s         0.07116   0.00000      0.000   0.000   0.000
   25  3 2py        1.46687   0.00000     -0.000  -0.000   0.000
   25  4 2pz        1.51057   0.00000      0.000   0.000   0.000
   25  5 2px        1.59099   0.00000     -0.000   0.000   0.000
   25  6 2py        0.03340   0.00000      0.000  -0.000   0.000
   25  7 2pz        0.00022   0.00000     -0.000  -0.000   0.000
   25  8 2px        0.02397   0.00000      0.000  -0.000   0.000
   25  9 3Pdxy      0.00721   0.00000     -0.000  -0.000  -0.000
   25 10 3Pdyz      0.00618   0.00000      0.000  -0.000  -0.000
   25 11 3Pdz2      0.00135   0.00000     -0.000   0.000  -0.000
   25 12 3Pdxz      0.00440   0.00000     -0.000  -0.000  -0.000
   25 13 3Pdx2-y2   0.00737   0.00000     -0.000   0.000  -0.000
   25     Total     6.46176   0.00000     -0.000   0.000   0.000

   29  1 2s         1.73612   0.00000     -0.000   0.000  -0.000
   29  2 2s         0.07224   0.00000      0.000   0.000   0.000
   29  3 2py        1.48377   0.00000      0.000   0.000   0.000
   29  4 2pz        1.52867   0.00000     -0.000   0.000   0.000
   29  5 2px        1.52563   0.00000      0.000  -0.000   0.000
   29  6 2py        0.04211   0.00000     -0.000  -0.000  -0.000
   29  7 2pz        0.00513   0.00000      0.000  -0.000   0.000
   29  8 2px        0.03704   0.00000     -0.000   0.000   0.000
   29  9 3Pdxy      0.00817   0.00000     -0.000  -0.000  -0.000
   29 10 3Pdyz      0.00487   0.00000      0.000  -0.000  -0.000
   29 11 3Pdz2      0.00139   0.00000      0.000   0.000   0.000
   29 12 3Pdxz      0.00628   0.00000     -0.000   0.000  -0.000
   29 13 3Pdx2-y2   0.00786   0.00000      0.000   0.000   0.000
   29     Total     6.45927   0.00000      0.000   0.000   0.000

----------------------------------------------------------------
Total              98.00000   0.00000      0.000  -0.000   0.000


siesta: Eigenvalues (eV):
ik =     1
  -22.9328  -22.9328  -22.5453  -22.5453  -21.9795  -21.9795  -21.2550  -21.2550  -21.0606  -21.0606
  -20.7764  -20.7764  -19.4672  -19.4672  -19.2805  -19.2805  -18.6755  -18.6755  -15.3145  -15.3145
  -14.3771  -14.3771  -13.6819  -13.6819  -13.6620  -13.6620  -13.3023  -13.3023  -12.9516  -12.9516
  -12.5376  -12.5376  -12.0379  -12.0379  -12.0302  -12.0302  -11.5696  -11.5696  -11.4959  -11.4959
  -10.9639  -10.9639  -10.7628  -10.7628  -10.2452  -10.2452   -9.8363   -9.8363   -9.5763   -9.5763
   -9.3365   -9.3365   -9.1821   -9.1821   -9.1689   -9.1689   -8.8759   -8.8759   -8.7262   -8.7262
   -8.4007   -8.4007   -8.2201   -8.2201   -8.1831   -8.1831   -8.1296   -8.1296   -7.9750   -7.9750
   -7.9276   -7.9276   -7.3806   -7.3806   -7.3788   -7.3788   -7.3185   -7.3185   -6.8285   -6.8285
   -6.7916   -6.7916   -6.6486   -6.6485   -6.4256   -6.4256   -6.3740   -6.3740   -6.1696   -6.1696
   -5.9478   -5.9478   -5.7891   -5.7891   -5.5988   -5.5988   -4.2718   -4.2718   -3.7287   -3.7287
   -2.8467   -2.8467   -2.4724   -2.4724   -2.2621   -2.2621   -2.1833   -2.1833   -2.0923   -2.0923
   -1.9641   -1.9641   -1.7012   -1.7012   -1.6228   -1.6228   -1.5925   -1.5925   -1.3987   -1.3987
   -1.0932   -1.0932   -0.6650   -0.6650   -0.3963   -0.3963   -0.2804   -0.2804   -0.2131   -0.2131
   -0.2067   -0.2067   -0.0715   -0.0715    0.2610    0.2610    0.4046    0.4046    0.5306    0.5306
    0.5745    0.5745    0.7249    0.7249    1.0607    1.0607    1.2361    1.2361    1.2798    1.2798
    1.3497    1.3497    1.5411    1.5411    1.8709    1.8709    2.0232    2.0232    2.1839    2.1839
    2.5038    2.5038    2.6209    2.6209    2.6774    2.6774    2.8328    2.8328    2.9739    2.9739
    2.9890    2.9890    3.0833    3.0833    3.1185    3.1185    3.2330    3.2330    3.5534    3.5534
    3.7475    3.7475    3.9130    3.9130    4.1658    4.1658    4.2854    4.2854    4.3881    4.3881
    4.4633    4.4633    4.6329    4.6329    4.6725    4.6725    4.8157    4.8157    4.9954    4.9954
    5.0860    5.0860    5.2551    5.2551    5.4407    5.4407    5.5842    5.5842    5.8458    5.8458
    5.8900    5.8900    6.0166    6.0166    6.0937    6.0937    6.3133    6.3133    6.4083    6.4083
    6.5249    6.5249    6.6669    6.6669    6.7914    6.7914    6.9790    6.9790    7.1283    7.1283
    7.2005    7.2005    7.5331    7.5331    7.7121    7.7121    7.7544    7.7544    7.8795    7.8795
    7.9805    7.9805    8.2790    8.2790    8.3175    8.3175    8.3734    8.3734    8.5013    8.5013
    8.5448    8.5448    8.9387    8.9387    8.9511    8.9511    9.3510    9.3510    9.6346    9.6346
    9.6673    9.6673    9.8681    9.8681    9.8908    9.8908    9.9131    9.9131    9.9811    9.9811
   10.0010   10.0010   10.4375   10.4375   10.6512   10.6512   10.9418   10.9418   11.1048   11.1048
   11.3572   11.3572   11.3732   11.3732   11.5200   11.5200   11.7467   11.7467   11.8321   11.8321
   11.9191   11.9191   12.3033   12.3033   12.4562   12.4562   12.6693   12.6693   12.7610   12.7610
   12.8959   12.8959   13.1002   13.1002   13.2754   13.2754   13.3081   13.3081   13.4345   13.4345
   13.6614   13.6614   13.9406   13.9406   14.3540   14.3540   14.5578   14.5578   14.7800   14.7800
   14.8086   14.8086   15.1552   15.1552   15.5542   15.5542   16.0777   16.0777   16.3018   16.3018
   16.4140   16.4140   16.8353   16.8353   16.8864   16.8864   17.1957   17.1957   17.3622   17.3622
   17.9307   17.9307   18.0408   18.0408   18.3587   18.3587   18.6047   18.6047   18.7470   18.7470
   18.7978   18.7978   19.7712   19.7712   19.9603   19.9603   20.3414   20.3414   20.4641   20.4641
   20.9024   20.9024   21.0850   21.0850   21.3012   21.3012   21.6313   21.6313   22.2479   22.2479
   22.4764   22.4764   22.8282   22.8282   22.9830   22.9830   23.0611   23.0611   23.0712   23.0712
   24.2766   24.2766   24.6672   24.6672   25.1178   25.1178   25.6219   25.6219   25.8820   25.8820
   26.1703   26.1703   26.6188   26.6188   27.0300   27.0300   27.9491   27.9491   28.1535   28.1535
   28.4975   28.4975   28.5617   28.5617   29.8183   29.8183   30.1176   30.1176   30.5668   30.5668
   30.7986   30.7986   30.8513   30.8513   31.3244   31.3244   31.4811   31.4811   31.6489   31.6489
   31.8374   31.8374   32.3960   32.3960   32.5783   32.5783   33.4569   33.4569   33.7311   33.7311
   34.0604   34.0604   34.2599   34.2599   34.4587   34.4587   35.0034   35.0034   35.4688   35.4688
   35.9216   35.9216   36.2100   36.2100   36.3885   36.3885   37.2025   37.2025   37.4558   37.4558
   37.7363   37.7363   37.8770   37.8770   38.5228   38.5228   38.8564   38.8564   38.9531   38.9531
   39.8592   39.8592   40.5473   40.5473   40.8113   40.8113   41.4427   41.4427   41.6067   41.6067
   41.8315   41.8315   41.9148   41.9148   42.2423   42.2423   42.9052   42.9052   43.3236   43.3236
   43.9065   43.9065   44.5617   44.5617   44.7669   44.7669   44.9681   44.9681   45.2738   45.2738
   45.3103   45.3103   45.8100   45.8100   46.4891   46.4891   46.5929   46.5929   47.1369   47.1369
   47.7654   47.7654   48.0192   48.0192   48.8350   48.8350   48.8426   48.8426   49.2186   49.2186
   49.9197   49.9197   50.2074   50.2074   50.4303   50.4303   50.6390   50.6390   50.9397   50.9397
   52.0118   52.0118   52.2575   52.2575   54.0186   54.0186   54.2046   54.2046   54.8614   54.8614
   55.3050   55.3050   55.4087   55.4087   56.2916   56.2916   56.4418   56.4418   56.8584   56.8584
   56.9207   56.9207   57.7697   57.7697   58.7908   58.7908   59.0133   59.0133   59.7159   59.7159
   60.4296   60.4296   61.3483   61.3483   61.6596   61.6596   62.2709   62.2709   62.9115   62.9115
   65.6565   65.6565   66.3487   66.3487   67.1303   67.1303   67.3983   67.3983   68.1656   68.1656
   68.9723   68.9723   71.4249   71.4249   73.6800   73.6800   79.1636   79.1636   91.6085   91.6085
   92.4768   92.4768   92.9756   92.9756   95.6048   95.6048   97.7862   97.7862  100.4534  100.4534
  100.7974  100.7974  103.0388  103.0388  113.5001  113.5001  120.4286  120.4286  123.0949  123.0949
  135.7103  135.7103  140.5102  140.5102
siesta: Fermi energy =      -4.000274 eV

siesta: Program's energy decomposition (eV):
siesta: Ebs     =     -1118.734306
siesta: Eions   =      3553.971015
siesta: Ena     =       377.805112
siesta: Ekin    =      2751.412634
siesta: Enl     =     -2532.239309
siesta: Eso     =        -0.004696
siesta: Edftu   =         0.000000
siesta: DEna    =        37.145987
siesta: DUscf   =        14.118794
siesta: DUext   =         0.000000
siesta: Exc     =     -1093.081679
siesta: eta*DQ  =         0.000000
siesta: Emadel  =         0.000000
siesta: Emeta   =         0.000000
siesta: Emolmec =         0.000000
siesta: Ekinion =         0.000000
siesta: Eharris =     -3998.814172
siesta: Etot    =     -3998.814172
siesta: FreeEng =     -3998.814205

siesta: Final energy (eV):
siesta:  Band Struct. =   -1118.734306
siesta:       Kinetic =    2751.412634
siesta:       Hartree =    7171.360885
siesta:       Edftu   =       0.000000
siesta:       Eso     =      -0.004696
siesta:    Ext. field =       0.000000
siesta:   Exch.-corr. =   -1093.081679
siesta:  Ion-electron =  -16794.230232
siesta:       Ion-ion =    3965.728917
siesta:       Ekinion =       0.000000
siesta:         Total =   -3998.814172
siesta:         Fermi =      -4.000274

siesta: Atomic forces (eV/Ang):
siesta:      1   -0.037512    0.057572    0.000002
siesta:      2   -0.005801   -0.040139   -0.000002
siesta:      3   -0.002548    0.042831    0.000004
siesta:      4   -0.020469   -0.013717    0.000001
siesta:      5    0.022220   -0.042161   -0.000003
siesta:      6    0.028536    0.004808   -0.000000
siesta:      7   -0.095255    0.116550    0.000009
siesta:      8    0.065696   -0.057622   -0.000033
siesta:      9    0.016862   -0.016743    0.000051
siesta:     10    0.092625    0.031437    0.000007
siesta:     11   -0.032289   -0.018634   -0.000011
siesta:     12    0.059946    0.067588    0.000000
siesta:     13   -0.083761   -0.112234   -0.000000
siesta:     14   -0.013990   -0.063871    0.000001
siesta:     15   -0.000152    0.066166   -0.000000
siesta:     16    0.003181    0.165211    0.008257
siesta:     17   -0.004662   -0.045518   -0.039780
siesta:     18   -0.209668    0.053663    0.008249
siesta:     19    0.001903    0.028979   -0.041176
siesta:     20    0.043663   -0.050969    0.027576
siesta:     21   -0.068194    0.014272   -0.071560
siesta:     22   -0.029571    0.099667    0.026914
siesta:     23    0.025223    0.024239   -0.052876
siesta:     24    0.061439   -0.113693   -0.026646
siesta:     25   -3.402627    0.975917    0.003060
siesta:     26   -0.052812    0.072791    0.006543
siesta:     27    0.051815   -0.119870    0.002795
siesta:     28   -0.011864   -0.127161   -0.000872
siesta:     29    4.758277    0.985368   -0.001094
siesta:     30   -0.022242    0.135479    0.008275
siesta: ----------------------------------------
siesta:    Tot    1.137968    2.120204   -0.142310

siesta: Stress tensor (static) (eV/Ang**3):
siesta:    -0.001087    0.000175    0.000030
siesta:     0.000175   -0.000238   -0.000026
siesta:     0.000030   -0.000026   -0.000137

siesta: Cell volume =       4455.928621 Ang**3

siesta: Pressure (static):
siesta:                Solid            Molecule  Units
siesta:           0.00000531         -0.00001751  Ry/Bohr**3
siesta:           0.00048751         -0.00160809  eV/Ang**3
siesta:           0.78107788         -2.57647672  kBar
(Free)E+ p_basis*V_orbitals  =       -3977.686120
(Free)Eharris+ p_basis*V_orbitals  =       -3977.686120
     spin moment: S , {S} =    0.00000   0.00000  -0.00000   0.00000

siesta: Electric dipole (a.u.)  =   -0.307432    2.576201   -0.013027
siesta: Electric dipole (Debye) =   -0.781415    6.548054   -0.033111

cite: Please see "AT.bib" for an exhaustive BiBTeX file.
cite: Please clearly indicate Siesta version in published work: v4.1.5-1-g384057250
cite: This calculation has made use of the following articles
cite: which are encouraged to be cited in a published work.
        Primary SIESTA paper
          DOI: www.doi.org/10.1088/0953-8984/14/11/302
        Spin-orbit coupling (on-site approximation)
          DOI: www.doi.org/10.1088/0953-8984/19/19/489001


WARNING: alloc-realloc-dealloc name mismatch
         Name: atomlist isa
         Size:              -120. Bytes
         Node:     0
         Subsequent mismatches will not be reported
>> End of run:  22-MAY-2023  10:26:35
Job completed
