Siesta Version  : v4.1.5-1-g384057250
Architecture    : gcc
Compiler version: GNU Fortran (Debian 10.2.1-6) 10.2.1 20210110
Compiler flags  : mpifort -O2 -fPIC -ftree-vectorize -fallow-argument-mismatch
PP flags        : -DFC_HAVE_ABORT -DMPI -DSIESTA__FLOOK -DSIESTA__METIS -DSIESTA__MUMPS -DCDF -DNCDF -DNCDF_4 -DNCDF_PARALLEL -DSIESTA__MRRR -DSIESTA__ELPA
Libraries       : libncdf.a libfdict.a  -lflookall -ldl -lnetcdff -lnetcdf -lhdf5_hl -lhdf5 -lhdf5_fortran -lz -lscalapack-openmpi -lopenblas -lmetis -lzmumps -lcmumps -ldmumps -lmumps_common -lpord -lsmumps -lesmumps -lscotch -lscotcherr -fopenmp -lelpa
PARALLEL version
NetCDF support
NetCDF-4 support
NetCDF-4 MPI-IO support
METIS ordering support
Lua support

* Running on 6 nodes in parallel
>> Start of run:  16-OCT-2023  18:56:14

                           ***********************       
                           *  WELCOME TO SIESTA  *       
                           ***********************       

reinit: Reading from standard input
reinit: Dumped input in INPUT_TMP.29902
************************** Dump of input data file ****************************
# mpirun -np 4 siesta-4.1.5 < GC.fdf > GC.out &
SystemLabel      GC
NumberOfAtoms    29
NumberOfSpecies  4
%block ChemicalSpeciesLabel
    1    1  H
    2    7  N
    3   14  Si
    4    8  O
%endblock ChemicalSpeciesLabel
############################################
# This overrides Defaults.fdf configuration
############################################
MD.TypeOfRun                CG # CG, Verlet
MD.Steps                    0
MaxSCFIterations            600
AtomicCoordinatesFormat NotScaledCartesianAng
%block AtomicCoordinatesAndAtomicSpecies
    -0.5623017023057815 5.97386526418302 0.0  1  1  H
    -1.2687884323057814 5.18382908418302 0.0  2  2  N
    -2.9990753423057814 5.62519299418302 0.0  3  3  Si
    -3.1548550223057816 7.11518525418302 0.0  1  4  H
    -4.522396962305781 4.06628547418302 0.0  3  5  Si
    -6.005584592305782 4.30911583418302 0.0  1  6  H
    -3.3240061023057814 2.1530093141830196 0.0  3  7  Si
    -4.090031562305781 0.6202925741830196 0.0  2  8  N
    -3.4997850123057814 -0.33692045581698027 0.0  1  9  H
    -5.141653882305781 0.5398323441830197 0.0  1  10  H
    -1.6078060423057814 2.2081836241830195 0.0  2  11  N
    -0.5327834223057815 3.5385224641830195 0.0  3  12  Si
    1.0758898976942184 3.51971220418302 0.0  4  13  O
    5.6164483 -7.44953905 0.0  1  14  H
    4.58206954 -7.2320376 0.0  2  15  N
    3.29666389 -8.492636 0.0  3  16  Si
    3.80117524 -9.90371886 -0.0  1  17  H
    1.65934232 -8.01362137 0.0  2  18  N
    1.68097912 -6.20463398 -0.0  3  19  Si
    0.54543521 -4.28636135 0.0  3  20  Si
    -1.03431493 -3.94450034 0.0  4  21  O
    1.73226934 -2.87719605 0.0  2  22  N
    1.20957366 -1.92961761 -0.0  1  23  H
    3.50853448 -2.77677601 0.0  3  24  Si
    4.13684451 -1.17938608 0.0  2  25  N
    3.54296161 -0.26248101 0.0  1  26  H
    5.18364407 -1.05231197 -0.0  1  27  H
    4.63288658 -4.07521596 -0.0  2  28  N
    3.79410501 -5.58634043 0.0  3  29  Si
%endblock AtomicCoordinatesAndAtomicSpecies
%include ../../../../Defaults.fdf
************************** End of input data file *****************************

reinit: -----------------------------------------------------------------------
reinit: System Name: 
reinit: -----------------------------------------------------------------------
reinit: System Label: GC
reinit: -----------------------------------------------------------------------

initatom: Reading input for the pseudopotentials and atomic orbitals ----------
Species number:   1 Atomic number:    1 Label: H
Species number:   2 Atomic number:    7 Label: N
Species number:   3 Atomic number:   14 Label: Si
Species number:   4 Atomic number:    8 Label: O

Ground state valence configuration:   1s01
Reading pseudopotential information in formatted form from H.psf

Pseudopotential generated from a relativistic atomic calculation

Valence configuration for pseudopotential generation:
1s( 1.00) rc: 0.01
2p( 0.00) rc: 0.60
3d( 0.00) rc: 1.99
4f( 0.00) rc: 2.49
Ground state valence configuration:   2s02  2p03
Reading pseudopotential information in formatted form from N.psf

Pseudopotential generated from a relativistic atomic calculation

Valence configuration for pseudopotential generation:
2s( 2.00) rc: 0.94
2p( 3.00) rc: 0.59
3d( 0.00) rc: 3.46
4f( 0.00) rc: 2.47
Ground state valence configuration:   3s02  3p02
Reading pseudopotential information in formatted form from Si.psf

Pseudopotential generated from a relativistic atomic calculation

Valence configuration for pseudopotential generation:
3s( 2.00) rc: 1.67
3p( 2.00) rc: 2.04
3d( 0.00) rc: 2.89
4f( 0.00) rc: 2.49
Ground state valence configuration:   2s02  2p04
Reading pseudopotential information in formatted form from O.psf

Pseudopotential generated from a relativistic atomic calculation

Valence configuration for pseudopotential generation:
2s( 2.00) rc: 0.45
2p( 4.00) rc: 0.92
3d( 0.00) rc: 2.24
4f( 0.00) rc: 0.25
For H, standard SIESTA heuristics set lmxkb to 2
 (one more than the basis l, including polarization orbitals).
Use PS.lmax or PS.KBprojectors blocks to override.
For N, standard SIESTA heuristics set lmxkb to 3
 (one more than the basis l, including polarization orbitals).
Use PS.lmax or PS.KBprojectors blocks to override.
For Si, standard SIESTA heuristics set lmxkb to 3
 (one more than the basis l, including polarization orbitals).
Use PS.lmax or PS.KBprojectors blocks to override.
For O, standard SIESTA heuristics set lmxkb to 3
 (one more than the basis l, including polarization orbitals).
Use PS.lmax or PS.KBprojectors blocks to override.

<basis_specs>
===============================================================================
H                    Z=   1    Mass=  1.0100        Charge= 0.17977+309
Lmxo=0 Lmxkb= 2    BasisType=split      Semic=F
L=0  Nsemic=0  Cnfigmx=1
          i=1  nzeta=2  polorb=1  (1s)
            splnorm:   0.62000    
               vcte:    0.0000    
               rinn:    0.0000    
               qcoe:    0.0000    
               qyuk:    0.0000    
               qwid:   0.10000E-01
                rcs:    0.0000      0.0000    
            lambdas:    1.0000      1.0000    
-------------------------------------------------------------------------------
L=0  Nkbl=1  erefs: 0.17977+309
L=1  Nkbl=1  erefs: 0.17977+309
L=2  Nkbl=1  erefs: 0.17977+309
===============================================================================
</basis_specs>

atom: Called for H                     (Z =   1)

read_vps: Pseudopotential generation method:
read_vps: ATM4.2.7  Troullier-Martins                       
Valence charge for ps generation:    1.00000

xc_check: Exchange-correlation functional:
xc_check: GGA Perdew, Burke & Ernzerhof 1996
V l=0 = -2*Zval/r beyond r=  0.0098
V l=1 = -2*Zval/r beyond r=  0.5817
V l=2 = -2*Zval/r beyond r=  1.9372
All V_l potentials equal beyond r=  1.9372
This should be close to max(r_c) in ps generation
All pots = -2*Zval/r beyond r=  1.9372

VLOCAL1: 99.0% of the norm of Vloc inside     11.567 Ry
VLOCAL1: 99.9% of the norm of Vloc inside     26.362 Ry
atom: Maximum radius for 4*pi*r*r*local-pseudopot. charge    2.25106
atom: Maximum radius for r*vlocal+2*Zval:    1.91306
GHOST: No ghost state for L =  0
GHOST: No ghost state for L =  1
GHOST: No ghost state for L =  2

KBgen: Kleinman-Bylander projectors: 
   l= 0   rc=  2.036604   el= -0.477180   Ekb= -6.081590   kbcos= -0.277285
   l= 1   rc=  2.195416   el=  0.001076   Ekb= -0.926943   kbcos= -0.034643
   l= 2   rc=  2.251056   el=  0.002010   Ekb= -0.130941   kbcos= -0.009788

KBgen: Total number of Kleinman-Bylander projectors:    9
atom: -------------------------------------------------------------------------

atom: SANKEY-TYPE ORBITALS:
atom: Selected multiple-zeta basis: split     

SPLIT: Orbitals with angular momentum L= 0

SPLIT: Basis orbitals for state 1s

SPLIT: PAO cut-off radius determined from an
SPLIT: energy shift=  0.002000 Ry

   izeta = 1
                 lambda =    1.000000
                     rc =    6.518340
                 energy =   -0.475305
                kinetic =    0.912139
    potential(screened) =   -1.387444
       potential(ionic) =   -1.907295

   izeta = 2
                 rmatch =    2.141150
              splitnorm =    0.620000
                 energy =    0.566467
                kinetic =    3.772856
    potential(screened) =   -3.206389
       potential(ionic) =   -3.759093

POLgen: Perturbative polarization orbital with L=  1

POLgen: Polarization orbital for state 1s

   izeta = 1
                     rc =    6.518340
                 energy =    0.533861
                kinetic =    1.121086
    potential(screened) =   -0.587225
       potential(ionic) =   -1.053027
atom: Total number of Sankey-type orbitals:  5

atm_pop: Valence configuration (for local Pseudopot. screening):
 1s( 1.00)                                                            
Vna: chval, zval:    1.00000   1.00000

Vna:  Cut-off radius for the neutral-atom potential:   6.518340

atom: _________________________________________________________________________

<basis_specs>
===============================================================================
N                    Z=   7    Mass=  14.010        Charge= 0.17977+309
Lmxo=1 Lmxkb= 3    BasisType=split      Semic=F
L=0  Nsemic=0  Cnfigmx=2
          i=1  nzeta=2  polorb=0  (2s)
            splnorm:   0.28000    
               vcte:    0.0000    
               rinn:    0.0000    
               qcoe:    0.0000    
               qyuk:    0.0000    
               qwid:   0.10000E-01
                rcs:    0.0000      0.0000    
            lambdas:    1.0000      1.0000    
L=1  Nsemic=0  Cnfigmx=2
          i=1  nzeta=2  polorb=1  (2p)
            splnorm:   0.28000    
               vcte:    0.0000    
               rinn:    0.0000    
               qcoe:    0.0000    
               qyuk:    0.0000    
               qwid:   0.10000E-01
                rcs:    0.0000      0.0000    
            lambdas:    1.0000      1.0000    
-------------------------------------------------------------------------------
L=0  Nkbl=1  erefs: 0.17977+309
L=1  Nkbl=1  erefs: 0.17977+309
L=2  Nkbl=1  erefs: 0.17977+309
L=3  Nkbl=1  erefs: 0.17977+309
===============================================================================
</basis_specs>

atom: Called for N                     (Z =   7)

read_vps: Pseudopotential generation method:
read_vps: ATM4.2.7  Troullier-Martins                       
Valence charge for ps generation:    5.00000

xc_check: Exchange-correlation functional:
xc_check: GGA Perdew, Burke & Ernzerhof 1996
V l=0 = -2*Zval/r beyond r=  1.2889
V l=1 = -2*Zval/r beyond r=  1.2889
V l=2 = -2*Zval/r beyond r=  3.4178
V l=3 = -2*Zval/r beyond r=  2.4084
All V_l potentials equal beyond r=  3.3753
This should be close to max(r_c) in ps generation
All pots = -2*Zval/r beyond r=  3.4178

VLOCAL1: 99.0% of the norm of Vloc inside      3.810 Ry
VLOCAL1: 99.9% of the norm of Vloc inside      8.683 Ry
atom: Maximum radius for 4*pi*r*r*local-pseudopot. charge    4.02088
atom: Maximum radius for r*vlocal+2*Zval:    3.54838
GHOST: No ghost state for L =  0
GHOST: No ghost state for L =  1
GHOST: No ghost state for L =  2
GHOST: No ghost state for L =  3

KBgen: Kleinman-Bylander projectors: 
   l= 0   rc=  3.417763   el= -1.365098   Ekb= -4.433130   kbcos= -0.707855
   l= 1   rc=  3.375302   el= -0.521201   Ekb=-13.264039   kbcos= -0.535594
   l= 2   rc=  3.872880   el=  0.001991   Ekb= -0.641094   kbcos= -0.062456
   l= 3   rc=  3.970931   el=  0.003093   Ekb= -0.474517   kbcos= -0.018236

KBgen: Total number of Kleinman-Bylander projectors:   16
atom: -------------------------------------------------------------------------

atom: SANKEY-TYPE ORBITALS:
atom: Selected multiple-zeta basis: split     

SPLIT: Orbitals with angular momentum L= 0

SPLIT: Basis orbitals for state 2s

SPLIT: PAO cut-off radius determined from an
SPLIT: energy shift=  0.002000 Ry

   izeta = 1
                 lambda =    1.000000
                     rc =    4.730425
                 energy =   -1.363399
                kinetic =    1.245246
    potential(screened) =   -2.608645
       potential(ionic) =   -8.121105

   izeta = 2
                 rmatch =    2.531849
              splitnorm =    0.280000
                 energy =   -0.959908
                kinetic =    2.409435
    potential(screened) =   -3.369343
       potential(ionic) =   -9.427975

SPLIT: Orbitals with angular momentum L= 1

SPLIT: Basis orbitals for state 2p

SPLIT: PAO cut-off radius determined from an
SPLIT: energy shift=  0.002000 Ry

   izeta = 1
                 lambda =    1.000000
                     rc =    5.924108
                 energy =   -0.519262
                kinetic =    3.672940
    potential(screened) =   -4.192202
       potential(ionic) =   -9.518354

   izeta = 2
                 rmatch =    2.531849
              splitnorm =    0.280000
                 energy =   -0.104258
                kinetic =    6.807538
    potential(screened) =   -6.911796
       potential(ionic) =  -13.149920

POLgen: Perturbative polarization orbital with L=  2

POLgen: Polarization orbital for state 2p

   izeta = 1
                     rc =    5.924108
                 energy =    1.427508
                kinetic =    2.872379
    potential(screened) =   -1.444871
       potential(ionic) =   -5.563644
atom: Total number of Sankey-type orbitals: 13

atm_pop: Valence configuration (for local Pseudopot. screening):
 2s( 2.00)                                                            
 2p( 3.00)                                                            
Vna: chval, zval:    5.00000   5.00000

Vna:  Cut-off radius for the neutral-atom potential:   5.924108

atom: _________________________________________________________________________

<basis_specs>
===============================================================================
Si                   Z=  14    Mass=  28.090        Charge= 0.17977+309
Lmxo=1 Lmxkb= 3    BasisType=split      Semic=F
L=0  Nsemic=0  Cnfigmx=3
          i=1  nzeta=2  polorb=0  (3s)
            splnorm:   0.28000    
               vcte:    0.0000    
               rinn:    0.0000    
               qcoe:    0.0000    
               qyuk:    0.0000    
               qwid:   0.10000E-01
                rcs:    0.0000      0.0000    
            lambdas:    1.0000      1.0000    
L=1  Nsemic=0  Cnfigmx=3
          i=1  nzeta=2  polorb=1  (3p)
            splnorm:   0.28000    
               vcte:    0.0000    
               rinn:    0.0000    
               qcoe:    0.0000    
               qyuk:    0.0000    
               qwid:   0.10000E-01
                rcs:    0.0000      0.0000    
            lambdas:    1.0000      1.0000    
-------------------------------------------------------------------------------
L=0  Nkbl=1  erefs: 0.17977+309
L=1  Nkbl=1  erefs: 0.17977+309
L=2  Nkbl=1  erefs: 0.17977+309
L=3  Nkbl=1  erefs: 0.17977+309
===============================================================================
</basis_specs>

atom: Called for Si                    (Z =  14)

read_vps: Pseudopotential generation method:
read_vps: ATM4.2.7  Troullier-Martins                       
Valence charge for ps generation:    4.00000

xc_check: Exchange-correlation functional:
xc_check: GGA Perdew, Burke & Ernzerhof 1996
V l=0 = -2*Zval/r beyond r=  2.7826
V l=1 = -2*Zval/r beyond r=  2.7826
V l=2 = -2*Zval/r beyond r=  2.9253
V l=3 = -2*Zval/r beyond r=  2.7826
All V_l potentials equal beyond r=  2.8530
This should be close to max(r_c) in ps generation
All pots = -2*Zval/r beyond r=  2.9253

VLOCAL1: 99.0% of the norm of Vloc inside      5.333 Ry
VLOCAL1: 99.9% of the norm of Vloc inside     12.154 Ry
atom: Maximum radius for 4*pi*r*r*local-pseudopot. charge    3.39869
atom: Maximum radius for r*vlocal+2*Zval:    2.96205
GHOST: No ghost state for L =  0
GHOST: No ghost state for L =  1
GHOST: No ghost state for L =  2
GHOST: No ghost state for L =  3

KBgen: Kleinman-Bylander projectors: 
   l= 0   rc=  3.075247   el= -0.794092   Ekb=  5.879390   kbcos=  0.167461
   l= 1   rc=  3.153101   el= -0.300068   Ekb=  2.642817   kbcos=  0.058301
   l= 2   rc=  3.273594   el=  0.001958   Ekb= -1.185135   kbcos= -0.104411
   l= 3   rc=  3.232927   el=  0.003046   Ekb= -0.497174   kbcos= -0.015889

KBgen: Total number of Kleinman-Bylander projectors:   16
atom: -------------------------------------------------------------------------

atom: SANKEY-TYPE ORBITALS:
atom: Selected multiple-zeta basis: split     

SPLIT: Orbitals with angular momentum L= 0

SPLIT: Basis orbitals for state 3s

SPLIT: PAO cut-off radius determined from an
SPLIT: energy shift=  0.002000 Ry

   izeta = 1
                 lambda =    1.000000
                     rc =    6.429618
                 energy =   -0.792283
                kinetic =    0.525293
    potential(screened) =   -1.317576
       potential(ionic) =   -3.744923

   izeta = 2
                 rmatch =    3.998416
              splitnorm =    0.280000
                 energy =   -0.583081
                kinetic =    1.069570
    potential(screened) =   -1.652651
       potential(ionic) =   -4.235185

SPLIT: Orbitals with angular momentum L= 1

SPLIT: Basis orbitals for state 3p

SPLIT: PAO cut-off radius determined from an
SPLIT: energy shift=  0.002000 Ry

   izeta = 1
                 lambda =    1.000000
                     rc =    8.464845
                 energy =   -0.298236
                kinetic =    0.785360
    potential(screened) =   -1.083596
       potential(ionic) =   -3.273779

   izeta = 2
                 rmatch =    4.587816
              splitnorm =    0.280000
                 energy =   -0.131871
                kinetic =    1.403687
    potential(screened) =   -1.535557
       potential(ionic) =   -4.015310

POLgen: Perturbative polarization orbital with L=  2

POLgen: Polarization orbital for state 3p

   izeta = 1
                     rc =    8.464845
                 energy =    0.321949
                kinetic =    1.055677
    potential(screened) =   -0.733728
       potential(ionic) =   -2.672950
atom: Total number of Sankey-type orbitals: 13

atm_pop: Valence configuration (for local Pseudopot. screening):
 3s( 2.00)                                                            
 3p( 2.00)                                                            
Vna: chval, zval:    4.00000   4.00000

Vna:  Cut-off radius for the neutral-atom potential:   8.464845

atom: _________________________________________________________________________

<basis_specs>
===============================================================================
O                    Z=   8    Mass=  16.000        Charge= 0.17977+309
Lmxo=1 Lmxkb= 3    BasisType=split      Semic=F
L=0  Nsemic=0  Cnfigmx=2
          i=1  nzeta=2  polorb=0  (2s)
            splnorm:   0.28000    
               vcte:    0.0000    
               rinn:    0.0000    
               qcoe:    0.0000    
               qyuk:    0.0000    
               qwid:   0.10000E-01
                rcs:    0.0000      0.0000    
            lambdas:    1.0000      1.0000    
L=1  Nsemic=0  Cnfigmx=2
          i=1  nzeta=2  polorb=1  (2p)
            splnorm:   0.28000    
               vcte:    0.0000    
               rinn:    0.0000    
               qcoe:    0.0000    
               qyuk:    0.0000    
               qwid:   0.10000E-01
                rcs:    0.0000      0.0000    
            lambdas:    1.0000      1.0000    
-------------------------------------------------------------------------------
L=0  Nkbl=1  erefs: 0.17977+309
L=1  Nkbl=1  erefs: 0.17977+309
L=2  Nkbl=1  erefs: 0.17977+309
L=3  Nkbl=1  erefs: 0.17977+309
===============================================================================
</basis_specs>

atom: Called for O                     (Z =   8)

read_vps: Pseudopotential generation method:
read_vps: ATM4.2.7  Troullier-Martins                       
Valence charge for ps generation:    6.00000

xc_check: Exchange-correlation functional:
xc_check: GGA Perdew, Burke & Ernzerhof 1996
V l=0 = -2*Zval/r beyond r=  1.1000
V l=1 = -2*Zval/r beyond r=  1.1000
V l=2 = -2*Zval/r beyond r=  2.2154
V l=3 = -2*Zval/r beyond r=  1.1000
All V_l potentials equal beyond r=  2.2154
This should be close to max(r_c) in ps generation
All pots = -2*Zval/r beyond r=  2.2154

VLOCAL1: 99.0% of the norm of Vloc inside      8.845 Ry
VLOCAL1: 99.9% of the norm of Vloc inside     20.157 Ry
atom: Maximum radius for 4*pi*r*r*local-pseudopot. charge    2.67231
atom: Maximum radius for r*vlocal+2*Zval:    2.32897
GHOST: No ghost state for L =  0
GHOST: No ghost state for L =  1
GHOST: No ghost state for L =  2
GHOST: No ghost state for L =  3

KBgen: Kleinman-Bylander projectors: 
   l= 0   rc=  2.243238   el= -1.759686   Ekb=**********   kbcos= -0.171774
   l= 1   rc=  2.328968   el= -0.663873   Ekb=-14.506792   kbcos= -0.519897
   l= 2   rc=  2.573941   el=  0.002031   Ekb= -1.137373   kbcos= -0.019581
   l= 3   rc=  2.606321   el=  0.003153   Ekb= -1.013546   kbcos= -0.003122

KBgen: Total number of Kleinman-Bylander projectors:   16
atom: -------------------------------------------------------------------------

atom: SANKEY-TYPE ORBITALS:
atom: Selected multiple-zeta basis: split     

SPLIT: Orbitals with angular momentum L= 0

SPLIT: Basis orbitals for state 2s

SPLIT: PAO cut-off radius determined from an
SPLIT: energy shift=  0.002000 Ry

   izeta = 1
                 lambda =    1.000000
                     rc =    4.243912
                 energy =   -1.758270
                kinetic =    3.286084
    potential(screened) =   -5.044353
       potential(ionic) =  -12.921184

   izeta = 2
                 rmatch =    2.187845
              splitnorm =    0.280000
                 energy =   -0.885018
                kinetic =    8.134434
    potential(screened) =   -9.019452
       potential(ionic) =  -17.710645

SPLIT: Orbitals with angular momentum L= 1

SPLIT: Basis orbitals for state 2p

SPLIT: PAO cut-off radius determined from an
SPLIT: energy shift=  0.002000 Ry

   izeta = 1
                 lambda =    1.000000
                     rc =    5.314825
                 energy =   -0.661986
                kinetic =    4.917472
    potential(screened) =   -5.579458
       potential(ionic) =  -13.236259

   izeta = 2
                 rmatch =    2.160663
              splitnorm =    0.280000
                 energy =   -0.068760
                kinetic =    9.183374
    potential(screened) =   -9.252135
       potential(ionic) =  -18.274251

POLgen: Perturbative polarization orbital with L=  2

POLgen: Polarization orbital for state 2p

   izeta = 1
                     rc =    5.314825
                 energy =    1.970580
                kinetic =    3.886128
    potential(screened) =   -1.915547
       potential(ionic) =   -7.749584
atom: Total number of Sankey-type orbitals: 13

atm_pop: Valence configuration (for local Pseudopot. screening):
 2s( 2.00)                                                            
 2p( 4.00)                                                            
Vna: chval, zval:    6.00000   6.00000

Vna:  Cut-off radius for the neutral-atom potential:   5.314825

atom: _________________________________________________________________________

prinput: Basis input ----------------------------------------------------------

PAO.BasisType split     

%block ChemicalSpeciesLabel
    1    1 H                       # Species index, atomic number, species label
    2    7 N                       # Species index, atomic number, species label
    3   14 Si                      # Species index, atomic number, species label
    4    8 O                       # Species index, atomic number, species label
%endblock ChemicalSpeciesLabel

%block PAO.Basis                 # Define Basis set
H                     1                    # Species label, number of l-shells
 n=1   0   2 P   1                   # n, l, Nzeta, Polarization, NzetaPol
   6.518      2.141   
   1.000      1.000   
N                     2                    # Species label, number of l-shells
 n=2   0   2                         # n, l, Nzeta 
   4.730      2.532   
   1.000      1.000   
 n=2   1   2 P   1                   # n, l, Nzeta, Polarization, NzetaPol
   5.924      2.532   
   1.000      1.000   
Si                    2                    # Species label, number of l-shells
 n=3   0   2                         # n, l, Nzeta 
   6.430      3.998   
   1.000      1.000   
 n=3   1   2 P   1                   # n, l, Nzeta, Polarization, NzetaPol
   8.465      4.588   
   1.000      1.000   
O                     2                    # Species label, number of l-shells
 n=2   0   2                         # n, l, Nzeta 
   4.244      2.188   
   1.000      1.000   
 n=2   1   2 P   1                   # n, l, Nzeta, Polarization, NzetaPol
   5.315      2.161   
   1.000      1.000   
%endblock PAO.Basis

prinput: ----------------------------------------------------------------------

Dumping basis to NetCDF file H.ion.nc
Dumping basis to NetCDF file N.ion.nc
Dumping basis to NetCDF file Si.ion.nc
Dumping basis to NetCDF file O.ion.nc
coor:   Atomic-coordinates input format  =     Cartesian coordinates
coor:                                          (in Angstroms)

siesta: Atomic coordinates (Bohr) and species
siesta:     -1.06260  11.28897   0.00000  1        1
siesta:     -2.39766   9.79602   0.00000  2        2
siesta:     -5.66743  10.63008   0.00000  3        3
siesta:     -5.96181  13.44576   0.00000  1        4
siesta:     -8.54610   7.68417   0.00000  3        5
siesta:    -11.34891   8.14305   0.00000  1        6
siesta:     -6.28146   4.06860   0.00000  3        7
siesta:     -7.72904   1.17218   0.00000  2        8
siesta:     -6.61364  -0.63669   0.00000  1        9
siesta:     -9.71632   1.02014   0.00000  1       10
siesta:     -3.03831   4.17286   0.00000  2       11
siesta:     -1.00682   6.68684   0.00000  3       12
siesta:      2.03314   6.65129   0.00000  4       13
siesta:     10.61355 -14.07759   0.00000  1       14
siesta:      8.65886 -13.66658   0.00000  2       15
siesta:      6.22979 -16.04876   0.00000  3       16
siesta:      7.18318 -18.71532  -0.00000  1       17
siesta:      3.13570 -15.14356   0.00000  2       18
siesta:      3.17659 -11.72506  -0.00000  3       19
siesta:      1.03072  -8.10005   0.00000  3       20
siesta:     -1.95457  -7.45403   0.00000  4       21
siesta:      3.27352  -5.43711   0.00000  2       22
siesta:      2.28576  -3.64645  -0.00000  1       23
siesta:      6.63017  -5.24735   0.00000  3       24
siesta:      7.81751  -2.22872   0.00000  2       25
siesta:      6.69523  -0.49602   0.00000  1       26
siesta:      9.79567  -1.98858  -0.00000  1       27
siesta:      8.75489  -7.70105  -0.00000  2       28
siesta:      7.16982 -10.55666   0.00000  3       29

siesta: Automatic unit cell vectors (Ang):
siesta:   20.372819    0.000000    0.000000
siesta:    0.000000   26.309377    0.000000
siesta:    0.000000    0.000000    9.854683

siesta: System type = molecule  

initatomlists: Number of atoms, orbitals, and projectors:     29   297   394

siesta: ******************** Simulation parameters ****************************
siesta:
siesta: The following are some of the parameters of the simulation.
siesta: A complete list of the parameters used, including default values,
siesta: can be found in file out.fdf
siesta:
redata: Spin configuration                          = spin-orbit
redata: Number of spin components                   = 8
redata: Time-Reversal Symmetry                      = F
redata: Spin spiral                                 = F
############################################################
This spin-orbit implementation uses a local approximation.
From 4.2 and onwards the full non-local approximation is implemented
You are strongly advised to use >=4.2 versions!
############################################################
redata: Long output                                 =   F
redata: Number of Atomic Species                    =        4
redata: Charge density info will appear in .RHO file
redata: Write Mulliken Pop.                         = NO
redata: Matel table size (NRTAB)                    =     1024
redata: Mesh Cutoff                                 =   340.0000 Ry
redata: Net charge of the system                    =     0.0000 |e|
redata: Min. number of SCF Iter                     =        1
redata: Max. number of SCF Iter                     =      600
redata: SCF convergence failure will abort job
redata: SCF mix quantity                            = Hamiltonian
redata: Mix DM or H after convergence               =   F
redata: Recompute H after scf cycle                 =   F
redata: Mix DM in first SCF step                    =   T
redata: Write Pulay info on disk                    =   F
redata: New DM Occupancy tolerance                  = 0.000000000001
redata: No kicks to SCF
redata: DM Mixing Weight for Kicks                  =     0.5000
redata: Require Harris convergence for SCF          =   F
redata: Harris energy tolerance for SCF             =     0.000100 eV
redata: Require DM convergence for SCF              =   T
redata: DM tolerance for SCF                        =     0.000008
redata: Require EDM convergence for SCF             =   F
redata: EDM tolerance for SCF                       =     0.001000 eV
redata: Require H convergence for SCF               =   T
redata: Hamiltonian tolerance for SCF               =     0.000001 eV
redata: Require (free) Energy convergence for SCF   =   F
redata: (free) Energy tolerance for SCF             =     0.000100 eV
redata: Using Saved Data (generic)                  =   F
redata: Use continuation files for DM               =   T
redata: Neglect nonoverlap interactions             =   F
redata: Method of Calculation                       = Diagonalization
redata: Electronic Temperature                      =   299.9978 K
redata: Fix the spin of the system                  =   F
redata: Dynamics option                             = Single-point calculation
mix.SCF: Pulay mixing                            = Pulay
mix.SCF:    Variant                              = stable
mix.SCF:    History steps                        = 6
mix.SCF:    Linear mixing weight                 =     0.250000
mix.SCF:    Mixing weight                        =     0.250000
mix.SCF:    SVD condition                        = 0.1000E-07
mix.SCF:    Restart steps                        = 24
mix.SCF:    Restart save steps                   = 3
mix.SCF: Spin-component mixing                   all
redata: Save all siesta data in one NC              =   F
redata: ***********************************************************************

%block SCF.Mixers
  Pulay
%endblock SCF.Mixers

%block SCF.Mixer.Pulay
  # Mixing method
  method pulay
  variant stable

  # Mixing options
  weight 0.2500
  weight.linear 0.2500
  history 6
  restart 24
  restart.save 3
%endblock SCF.Mixer.Pulay

DM_history_depth set to one: no extrapolation allowed by default for geometry relaxation
Size of DM history Fstack: 1
Total number of electrons:    98.000000
Total ionic charge:    98.000000

* ProcessorY, Blocksize:    2  24


* Orbital distribution balance (max,min):    57    48


Time-reversal symmetry not used.

siesta: k-grid: Number of k-points =     1
siesta: k-grid: Cutoff (effective) =     4.927 Ang
siesta: k-grid: Supercell and displacements
siesta: k-grid:    1   0   0      0.000
siesta: k-grid:    0   1   0      0.000
siesta: k-grid:    0   0   1      0.000

diag: Algorithm                                     = ELPA-1stage
diag: Parallel over k                               =   F
diag: Use parallel 2D distribution                  =   T
diag: Parallel block-size                           = 24
diag: Parallel distribution                         =     2 x     3
diag: Used triangular part                          = Lower
diag: Absolute tolerance                            =  0.100E-15
diag: Orthogonalization factor                      =  0.100E-05
diag: Memory factor                                 =  1.0000


ts: **************************************************************
ts: Save H and S matrices                           =    F
ts: Save DM and EDM matrices                        =    F
ts: Only save the overlap matrix S                  =    F
ts: **************************************************************

************************ Begin: TS CHECKS AND WARNINGS ************************
************************ End: TS CHECKS AND WARNINGS **************************


                     ====================================
                        Single-point calculation
                     ====================================

outcoor: Atomic coordinates (Ang):                          
   -0.56230170    5.97386526    0.00000000   1       1  H
   -1.26878843    5.18382908    0.00000000   2       2  N
   -2.99907534    5.62519299    0.00000000   3       3  Si
   -3.15485502    7.11518525    0.00000000   1       4  H
   -4.52239696    4.06628547    0.00000000   3       5  Si
   -6.00558459    4.30911583    0.00000000   1       6  H
   -3.32400610    2.15300931    0.00000000   3       7  Si
   -4.09003156    0.62029257    0.00000000   2       8  N
   -3.49978501   -0.33692046    0.00000000   1       9  H
   -5.14165388    0.53983234    0.00000000   1      10  H
   -1.60780604    2.20818362    0.00000000   2      11  N
   -0.53278342    3.53852246    0.00000000   3      12  Si
    1.07588990    3.51971220    0.00000000   4      13  O
    5.61644830   -7.44953905    0.00000000   1      14  H
    4.58206954   -7.23203760    0.00000000   2      15  N
    3.29666389   -8.49263600    0.00000000   3      16  Si
    3.80117524   -9.90371886    0.00000000   1      17  H
    1.65934232   -8.01362137    0.00000000   2      18  N
    1.68097912   -6.20463398    0.00000000   3      19  Si
    0.54543521   -4.28636135    0.00000000   3      20  Si
   -1.03431493   -3.94450034    0.00000000   4      21  O
    1.73226934   -2.87719605    0.00000000   2      22  N
    1.20957366   -1.92961761    0.00000000   1      23  H
    3.50853448   -2.77677601    0.00000000   3      24  Si
    4.13684451   -1.17938608    0.00000000   2      25  N
    3.54296161   -0.26248101    0.00000000   1      26  H
    5.18364407   -1.05231197    0.00000000   1      27  H
    4.63288658   -4.07521596    0.00000000   2      28  N
    3.79410501   -5.58634043    0.00000000   3      29  Si

outcell: Unit cell vectors (Ang):
       20.372819    0.000000    0.000000
        0.000000   26.309377    0.000000
        0.000000    0.000000    9.854683

outcell: Cell vector modules (Ang)   :   20.372819   26.309377    9.854683
outcell: Cell angles (23,13,12) (deg):     90.0000     90.0000     90.0000
outcell: Cell volume (Ang**3)        :   5282.0726
<dSpData1D:S at geom step 0
  <sparsity:sparsity for geom step 0
    nrows_g=297 nrows=57 sparsity=.0976 nnzs=8609, refcount: 8>
  <dData1D:(new from dSpData1D) n=8609, refcount: 1>
refcount: 1>
new_DM -- step:     1
Initializing Density Matrix...

Attempting to read DM from file... Failed...
DM filled with atomic data:
<dSpData2D:DM initialized from atoms
  <sparsity:sparsity for geom step 0
    nrows_g=297 nrows=57 sparsity=.0976 nnzs=8609, refcount: 9>
  <dData2D:DM n=8609 m=8, refcount: 1>
refcount: 1>
     spin moment: S , {S} =   56.00000   0.00000   0.00000  56.00000
No. of atoms with KB's overlaping orbs in proc 0. Max # of overlaps:      28     142

Initializing spin-orbit part of the Hamiltonian
  Adding spin-orbit effects for H 
  Adding spin-orbit effects for N 
  Adding spin-orbit effects for Si
  Adding spin-orbit effects for O 


New grid distribution:   1
           1       1:  120    1:   75    1:   20
           2       1:  120    1:   75   21:   40
           3       1:  120    1:   75   41:   60
           4       1:  120   76:  150    1:   20
           5       1:  120   76:  150   21:   40
           6       1:  120   76:  150   41:   60

InitMesh: MESH =   240 x   300 x   120 =     8640000
InitMesh: (bp) =   120 x   150 x    60 =     1080000
InitMesh: Mesh cutoff (required, used) =   340.000   359.354 Ry
ExtMesh (bp) on 0 =   228 x   179 x   132 =     5387184
New grid distribution:   2
           1       1:   84    1:  106    1:   60
           2      85:  120    1:   21    1:   60
           3       1:   15  107:  150    1:   60
           4      16:  120  127:  150    1:   60
           5      85:  120   22:  106    1:   60
           6      16:  120  107:  126    1:   60
New grid distribution:   3
           1      37:  120   26:   91    1:   60
           2       1:   36    1:   91    1:   60
           3      37:  120    1:   25    1:   60
           4       1:   21   92:  150    1:   60
           5      22:  120   92:  126    1:   60
           6      22:  120  127:  150    1:   60
Setting up quadratic distribution...
ExtMesh (bp) on 0 =   192 x   210 x   172 =     6935040
PhiOnMesh: Number of (b)points on node 0 =               534240
PhiOnMesh: nlist on node 0 =              2421247

stepf: Fermi-Dirac step function

siesta: Program's energy decomposition (eV):
siesta: Ebs     =      -619.925000
siesta: Eions   =      3585.165840
siesta: Ena     =       381.828355
siesta: Ekin    =      3369.594744
siesta: Enl     =     -3297.905101
siesta: Eso     =        -0.003409
siesta: Edftu   =         0.000000
siesta: DEna    =       153.580200
siesta: DUscf   =        81.748747
siesta: DUext   =         0.000000
siesta: Exc     =     -1204.254261
siesta: eta*DQ  =         0.000000
siesta: Emadel  =         0.000000
siesta: Emeta   =         0.000000
siesta: Emolmec =         0.000000
siesta: Ekinion =         0.000000
siesta: Eharris =     -4021.070895
siesta: Etot    =     -4100.576565
siesta: FreeEng =     -4100.577600

        iscf     Eharris(eV)        E_KS(eV)     FreeEng(eV)     dDmax    Ef(eV) dHmax(eV)
   scf:    1    -4021.070895    -4100.576565    -4100.577600  0.965654 -4.903620 21.930183
     spin moment: S , {S} =    2.00582   0.00000  -0.00000   2.00582
timer: Routine,Calls,Time,% = IterSCF        1       6.291  24.38
   scf:    2    -4147.479843    -4136.074014    -4136.076206  0.452603 -4.211193 11.462099
     spin moment: S , {S} =    1.98774  -0.00000   0.00000   1.98774
   scf:    3    -4108.778833    -4133.821807    -4133.830090  0.423836 -4.333275 11.813833
     spin moment: S , {S} =    2.04369  -0.00000  -0.00000   2.04369
   scf:    4    -4149.622628    -4145.051317    -4145.051317  0.323702 -3.905255  6.827106
     spin moment: S , {S} =    0.00010  -0.00000  -0.00000   0.00010
   scf:    5    -4146.370184    -4145.815946    -4145.815946  0.035789 -3.697578  4.352662
     spin moment: S , {S} =    0.00006  -0.00000  -0.00000   0.00006
   scf:    6    -4146.613771    -4146.224677    -4146.224677  0.024482 -3.530817  2.083080
     spin moment: S , {S} =    0.00003  -0.00000  -0.00000   0.00003
   scf:    7    -4146.580635    -4146.399402    -4146.399402  0.021062 -3.741965  0.886599
     spin moment: S , {S} =    0.00001   0.00000   0.00000   0.00001
   scf:    8    -4146.518845    -4146.457257    -4146.457257  0.012167 -3.673883  0.495293
     spin moment: S , {S} =    0.00000  -0.00000   0.00000   0.00000
   scf:    9    -4146.495675    -4146.475807    -4146.475807  0.006518 -3.788650  0.366919
     spin moment: S , {S} =    0.00000   0.00000  -0.00000   0.00000
   scf:   10    -4146.526140    -4146.495310    -4146.495310  0.020691 -3.785269  0.215147
     spin moment: S , {S} =    0.00000  -0.00000  -0.00000  -0.00000
   scf:   11    -4146.499028    -4146.497132    -4146.497132  0.005782 -3.772183  0.058350
     spin moment: S , {S} =    0.00000   0.00000  -0.00000  -0.00000
   scf:   12    -4146.498124    -4146.497641    -4146.497641  0.001027 -3.767380  0.024930
     spin moment: S , {S} =    0.00000   0.00000  -0.00000   0.00000
   scf:   13    -4146.498071    -4146.497853    -4146.497853  0.001300 -3.764808  0.015649
     spin moment: S , {S} =    0.00000   0.00000  -0.00000   0.00000
   scf:   14    -4146.498098    -4146.497968    -4146.497968  0.001184 -3.764306  0.011714
     spin moment: S , {S} =    0.00000   0.00000  -0.00000   0.00000
   scf:   15    -4146.498070    -4146.498016    -4146.498016  0.000926 -3.763440  0.008760
     spin moment: S , {S} =    0.00000  -0.00000  -0.00000   0.00000
   scf:   16    -4146.498094    -4146.498049    -4146.498050  0.001070 -3.764141  0.005767
     spin moment: S , {S} =    0.00000  -0.00000  -0.00000   0.00000
   scf:   17    -4146.498068    -4146.498058    -4146.498058  0.000472 -3.764200  0.004297
     spin moment: S , {S} =    0.00000  -0.00000  -0.00000   0.00000
   scf:   18    -4146.498068    -4146.498062    -4146.498062  0.000392 -3.764401  0.002505
     spin moment: S , {S} =    0.00000  -0.00000  -0.00000   0.00000
   scf:   19    -4146.498067    -4146.498065    -4146.498065  0.000278 -3.764542  0.001509
     spin moment: S , {S} =    0.00000   0.00000  -0.00000   0.00000
   scf:   20    -4146.498067    -4146.498065    -4146.498065  0.000194 -3.764539  0.000804
     spin moment: S , {S} =    0.00000   0.00000  -0.00000   0.00000
   scf:   21    -4146.498066    -4146.498066    -4146.498066  0.000140 -3.764514  0.000301
     spin moment: S , {S} =    0.00000  -0.00000  -0.00000   0.00000
   scf:   22    -4146.498066    -4146.498066    -4146.498066  0.000058 -3.764482  0.000160
     spin moment: S , {S} =    0.00000  -0.00000  -0.00000   0.00000
   scf:   23    -4146.498066    -4146.498066    -4146.498066  0.000012 -3.764477  0.000112
     spin moment: S , {S} =    0.00000  -0.00000  -0.00000   0.00000
   scf:   24    -4146.498066    -4146.498066    -4146.498066  0.000005 -3.764476  0.000055
     spin moment: S , {S} =    0.00000   0.00000  -0.00000   0.00000
mix: Pulay -- resetting history
   scf:   25    -4146.498066    -4146.498066    -4146.498066  0.000003 -3.764476  0.000031
     spin moment: S , {S} =    0.00000  -0.00000  -0.00000   0.00000
   scf:   26    -4146.498066    -4146.498066    -4146.498066  0.000002 -3.764475  0.000020
     spin moment: S , {S} =    0.00000  -0.00000  -0.00000  -0.00000
   scf:   27    -4146.498066    -4146.498066    -4146.498066  0.000001 -3.764473  0.000016
     spin moment: S , {S} =    0.00000  -0.00000  -0.00000  -0.00000
   scf:   28    -4146.498066    -4146.498066    -4146.498066  0.000001 -3.764473  0.000010
     spin moment: S , {S} =    0.00000  -0.00000  -0.00000  -0.00000
   scf:   29    -4146.498066    -4146.498066    -4146.498066  0.000001 -3.764472  0.000006
     spin moment: S , {S} =    0.00000  -0.00000  -0.00000  -0.00000
   scf:   30    -4146.498066    -4146.498066    -4146.498066  0.000001 -3.764473  0.000003
     spin moment: S , {S} =    0.00000  -0.00000  -0.00000  -0.00000
   scf:   31    -4146.498066    -4146.498066    -4146.498066  0.000001 -3.764473  0.000002
     spin moment: S , {S} =    0.00000  -0.00000  -0.00000  -0.00000
   scf:   32    -4146.498066    -4146.498066    -4146.498066  0.000000 -3.764473  0.000001
     spin moment: S , {S} =    0.00000  -0.00000  -0.00000  -0.00000

SCF Convergence by DM+H criterion
max |DM_out - DM_in|         :     0.0000002141
max |H_out - H_in|      (eV) :     0.0000008323
SCF cycle converged after 32 iterations

Using DM_out to compute the final energy and forces
No. of atoms with KB's overlaping orbs in proc 0. Max # of overlaps:      28     142

siesta: E_KS(eV) =            -4146.4981

siesta: E_KS - E_eggbox =     -4146.4981
     spin moment: S , {S} =    0.00000  -0.00000  -0.00000  -0.00000

siesta: Atomic forces (eV/Ang):
     1    0.001463   -0.051744    0.000000
     2   -0.487998    0.328992    0.000000
     3    0.410272   -0.023092    0.000000
     4   -0.007982    0.035786    0.000000
     5   -0.202829   -0.213418   -0.000000
     6   -0.057374    0.008708    0.000000
     7    1.161567    1.003670    0.000000
     8    0.780451   -2.281009   -0.000000
     9   -1.216803    1.743622   -0.000000
    10    0.112612   -0.309576    0.000000
    11   -0.974580   -0.290113   -0.000000
    12    1.178739   -0.222616    0.000000
    13    1.283869   -2.527582   -0.000000
    14   -0.103637   -0.039351    0.000000
    15    0.106567    0.035929   -0.000000
    16    0.022691   -0.015046    0.000000
    17    0.051086    0.001302    0.000000
    18   -0.005110    0.038612   -0.000000
    19    0.254609    0.030096   -0.000000
    20   -1.346921   -0.168837    0.000000
    21    2.607050   -0.387838   -0.000000
    22    0.344868    0.759249    0.000000
    23    0.122822   -0.591893   -0.000000
    24   -0.325569   -0.930280    0.000000
    25   -0.489234    1.542318    0.000000
    26    0.906925   -1.171934   -0.000000
    27   -0.283628    0.145406   -0.000000
    28    0.039203    0.701677    0.000000
    29   -0.296778   -0.400059   -0.000000
----------------------------------------
   Tot    3.586351   -3.249022    0.000000
----------------------------------------
   Max    2.607050
   Res    0.682225    sqrt( Sum f_i^2 / 3N )
----------------------------------------
   Max    2.607050    constrained

Stress tensor Voigt[x,y,z,yz,xz,xy] (kbar):        1.28        0.37       -0.10       -0.00       -0.00       -1.27
(Free)E + p*V (eV/cell)    -4148.2027
Target enthalpy (eV/cell)    -4146.4981

siesta: Eigenvalues (eV):
ik =     1
  -21.8688  -21.8688  -21.8280  -21.8280  -21.5668  -21.5668  -21.5651  -21.5651  -21.2337  -21.2337
  -21.0439  -21.0439  -20.8388  -20.8388  -19.8181  -19.8181  -19.3832  -19.3832  -19.3642  -19.3642
  -14.7464  -14.7464  -13.8963  -13.8963  -13.3274  -13.3274  -13.1761  -13.1761  -13.0717  -13.0717
  -12.8645  -12.8645  -12.8589  -12.8589  -12.4763  -12.4763  -12.4105  -12.4105  -12.0299  -12.0299
  -11.4247  -11.4247  -10.8058  -10.8058  -10.7653  -10.7653  -10.7376  -10.7376  -10.0784  -10.0784
   -9.5531   -9.5531   -9.2679   -9.2679   -8.8539   -8.8539   -8.7032   -8.7032   -8.6687   -8.6687
   -8.6379   -8.6379   -8.4045   -8.4045   -8.1842   -8.1842   -7.8309   -7.8309   -7.6238   -7.6238
   -7.6218   -7.6218   -7.3213   -7.3213   -7.2908   -7.2908   -6.8853   -6.8853   -6.7505   -6.7505
   -6.5165   -6.5165   -6.4885   -6.4885   -6.1183   -6.1183   -6.1093   -6.1093   -6.1075   -6.1075
   -5.7544   -5.7544   -5.6181   -5.6181   -5.4583   -5.4583   -4.3078   -4.3078   -3.2209   -3.2209
   -2.3189   -2.3189   -2.2949   -2.2949   -2.2912   -2.2912   -1.9117   -1.9117   -1.8532   -1.8532
   -1.8414   -1.8414   -1.7869   -1.7869   -1.5818   -1.5818   -1.5599   -1.5599   -0.9735   -0.9735
   -0.9359   -0.9359   -0.8038   -0.8038   -0.4132   -0.4132   -0.1653   -0.1653    0.0480    0.0480
    0.3572    0.3572    0.4077    0.4077    0.5538    0.5538    0.6998    0.6998    0.7976    0.7976
    0.9752    0.9752    1.2497    1.2497    1.3162    1.3162    1.3922    1.3922    1.4437    1.4437
    1.7212    1.7212    1.8370    1.8370    1.9279    1.9279    2.3163    2.3163    2.7268    2.7268
    2.7326    2.7326    2.8201    2.8201    2.9815    2.9815    3.1544    3.1544    3.3404    3.3404
    3.3820    3.3820    3.7403    3.7403    3.8132    3.8132    4.1124    4.1124    4.2620    4.2620
    4.4223    4.4223    4.4394    4.4394    4.5863    4.5863    4.5911    4.5911    4.7964    4.7964
    4.9265    4.9265    4.9834    4.9834    5.2324    5.2324    5.5119    5.5119    5.6833    5.6833
    5.7577    5.7577    5.7597    5.7597    5.8767    5.8767    5.9682    5.9682    5.9756    5.9756
    6.1844    6.1844    6.3546    6.3546    6.6250    6.6250    6.6822    6.6822    6.8418    6.8418
    7.0395    7.0395    7.1664    7.1664    7.4156    7.4156    7.5163    7.5163    7.7310    7.7310
    7.8138    7.8138    7.9693    7.9693    8.1039    8.1039    8.2590    8.2590    8.2870    8.2870
    8.5037    8.5037    8.7040    8.7040    8.8522    8.8522    8.9188    8.9188    9.1445    9.1445
    9.1859    9.1859    9.2231    9.2231    9.7157    9.7157    9.8323    9.8323    9.8408    9.8408
   10.0392   10.0392   10.1790   10.1790   10.4357   10.4357   10.7671   10.7671   10.8338   10.8338
   10.9601   10.9601   10.9684   10.9684   11.1712   11.1712   11.6792   11.6792   11.7244   11.7244
   11.8304   11.8304   11.8648   11.8648   12.0847   12.0847   12.3755   12.3755   12.7166   12.7166
   12.7353   12.7353   12.7843   12.7843   13.2789   13.2789   13.4736   13.4736   13.6371   13.6371
   13.8060   13.8060   14.1173   14.1173   14.2566   14.2566   14.6349   14.6349   14.7352   14.7352
   14.8693   14.8693   15.3571   15.3571   15.9907   15.9907   16.4433   16.4433   16.7266   16.7266
   16.9109   16.9109   17.3431   17.3431   17.6096   17.6096   18.1592   18.1592   18.4032   18.4032
   18.5907   18.5907   19.2085   19.2085   19.3283   19.3283   19.8820   19.8820   20.2941   20.2941
   20.9890   20.9890   21.2497   21.2497   21.9220   21.9220   22.2468   22.2468   22.3418   22.3418
   22.9006   22.9006   23.2229   23.2229   23.6951   23.6951   23.8092   23.8092   23.8992   23.8992
   24.8700   24.8700   25.3183   25.3183   25.9690   25.9690   26.6909   26.6909   27.4858   27.4858
   28.3207   28.3207   28.9593   28.9593   29.1597   29.1597   29.3920   29.3920   29.6700   29.6700
   29.9560   29.9560   30.0741   30.0741   30.2254   30.2254   30.6867   30.6867   30.8395   30.8395
   30.9890   30.9890   31.1927   31.1927   31.5403   31.5403   31.6398   31.6398   32.0745   32.0745
   32.6087   32.6087   33.7971   33.7971   34.5861   34.5861   34.6300   34.6300   34.9377   34.9377
   34.9756   34.9756   35.0459   35.0459   35.4979   35.4979   35.6038   35.6038   35.8715   35.8715
   36.6990   36.6990   36.8239   36.8239   37.0512   37.0512   37.2586   37.2586   37.5593   37.5593
   38.1871   38.1871   38.3882   38.3882   39.2892   39.2892   39.3899   39.3899   39.7822   39.7822
   40.3681   40.3681   40.4908   40.4908   40.6025   40.6025   40.7071   40.7071   40.8890   40.8890
   40.9742   40.9742   41.2333   41.2333   42.4847   42.4847   42.8538   42.8538   42.8763   42.8763
   43.3108   43.3108   43.7434   43.7434   43.9052   43.9052   43.9820   43.9820   44.3282   44.3282
   44.6407   44.6407   44.6896   44.6896   45.0926   45.0926   45.4221   45.4221   45.9943   45.9943
   46.3142   46.3142   46.9890   46.9890   47.3115   47.3115   48.7924   48.7924   49.1209   49.1209
   49.4301   49.4301   50.3104   50.3104   50.4547   50.4547   50.9841   50.9841   51.0409   51.0409
   51.5833   51.5833   51.6171   51.6171   52.6804   52.6804   52.8649   52.8649   54.1095   54.1095
   54.2706   54.2706   54.5269   54.5269   54.7911   54.7911   55.6577   55.6577   55.7598   55.7598
   55.7939   55.7939   56.0601   56.0601   56.3891   56.3891   58.1235   58.1235   58.3336   58.3336
   58.6107   58.6107   60.1192   60.1192   60.2069   60.2069   60.6389   60.6389   61.0982   61.0982
   61.8228   61.8228   61.9492   61.9492   62.1230   62.1230   64.7056   64.7056   66.5438   66.5438
   66.7641   66.7641   67.1655   67.1655   68.0322   68.0322   68.5071   68.5071   70.8390   70.8390
   73.7643   73.7643   80.2408   80.2408   91.0680   91.0680   92.0484   92.0484   93.1957   93.1957
   98.2284   98.2284   98.6137   98.6137   99.4769   99.4769  102.9914  102.9914  103.6017  103.6017
  110.0563  110.0563  111.6047  111.6047  124.0090  124.0090  126.2468  126.2468  129.1458  129.1458
  135.1668  135.1668  138.2393  138.2393
siesta: Fermi energy =      -3.764473 eV

siesta: Program's energy decomposition (eV):
siesta: Ebs     =     -1134.513856
siesta: Eions   =      3585.165840
siesta: Ena     =       381.828355
siesta: Ekin    =      2902.977328
siesta: Enl     =     -2787.621383
siesta: Eso     =        -0.004275
siesta: Edftu   =         0.000000
siesta: DEna    =        46.909506
siesta: DUscf   =        14.330593
siesta: DUext   =         0.000000
siesta: Exc     =     -1119.752350
siesta: eta*DQ  =         0.000000
siesta: Emadel  =         0.000000
siesta: Emeta   =         0.000000
siesta: Emolmec =         0.000000
siesta: Ekinion =         0.000000
siesta: Eharris =     -4146.498066
siesta: Etot    =     -4146.498066
siesta: FreeEng =     -4146.498066

siesta: Final energy (eV):
siesta:  Band Struct. =   -1134.513856
siesta:       Kinetic =    2902.977328
siesta:       Hartree =    8186.535417
siesta:       Edftu   =       0.000000
siesta:       Eso     =      -0.004275
siesta:    Ext. field =       0.000000
siesta:   Exch.-corr. =   -1119.752350
siesta:  Ion-electron =  -18957.004701
siesta:       Ion-ion =    4840.750516
siesta:       Ekinion =       0.000000
siesta:         Total =   -4146.498066
siesta:         Fermi =      -3.764473

siesta: Atomic forces (eV/Ang):
siesta:      1    0.001463   -0.051744    0.000000
siesta:      2   -0.487998    0.328992    0.000000
siesta:      3    0.410272   -0.023092    0.000000
siesta:      4   -0.007982    0.035786    0.000000
siesta:      5   -0.202829   -0.213418   -0.000000
siesta:      6   -0.057374    0.008708    0.000000
siesta:      7    1.161567    1.003670    0.000000
siesta:      8    0.780451   -2.281009   -0.000000
siesta:      9   -1.216803    1.743622   -0.000000
siesta:     10    0.112612   -0.309576    0.000000
siesta:     11   -0.974580   -0.290113   -0.000000
siesta:     12    1.178739   -0.222616    0.000000
siesta:     13    1.283869   -2.527582   -0.000000
siesta:     14   -0.103637   -0.039351    0.000000
siesta:     15    0.106567    0.035929   -0.000000
siesta:     16    0.022691   -0.015046    0.000000
siesta:     17    0.051086    0.001302    0.000000
siesta:     18   -0.005110    0.038612   -0.000000
siesta:     19    0.254609    0.030096   -0.000000
siesta:     20   -1.346921   -0.168837    0.000000
siesta:     21    2.607050   -0.387838   -0.000000
siesta:     22    0.344868    0.759249    0.000000
siesta:     23    0.122822   -0.591893   -0.000000
siesta:     24   -0.325569   -0.930280    0.000000
siesta:     25   -0.489234    1.542318    0.000000
siesta:     26    0.906925   -1.171934   -0.000000
siesta:     27   -0.283628    0.145406   -0.000000
siesta:     28    0.039203    0.701677    0.000000
siesta:     29   -0.296778   -0.400059   -0.000000
siesta: ----------------------------------------
siesta:    Tot    3.586351   -3.249022    0.000000

siesta: Stress tensor (static) (eV/Ang**3):
siesta:     0.000802   -0.000792   -0.000000
siesta:    -0.000792    0.000230    0.000000
siesta:    -0.000000   -0.000000   -0.000064

siesta: Cell volume =       5282.072609 Ang**3

siesta: Pressure (static):
siesta:                Solid            Molecule  Units
siesta:          -0.00000351          0.00000905  Ry/Bohr**3
siesta:          -0.00032273          0.00083101  eV/Ang**3
siesta:          -0.51706983          1.33144029  kBar
(Free)E+ p_basis*V_orbitals  =       -4126.647648
(Free)Eharris+ p_basis*V_orbitals  =       -4126.647648
     spin moment: S , {S} =    0.00000  -0.00000  -0.00000  -0.00000

siesta: Electric dipole (a.u.)  =    0.017702    1.537637    0.000000
siesta: Electric dipole (Debye) =    0.044994    3.908287    0.000000

cite: Please see "GC.bib" for an exhaustive BiBTeX file.
cite: Please clearly indicate Siesta version in published work: v4.1.5-1-g384057250
cite: This calculation has made use of the following articles
cite: which are encouraged to be cited in a published work.
        Primary SIESTA paper
          DOI: www.doi.org/10.1088/0953-8984/14/11/302
        Spin-orbit coupling (on-site approximation)
          DOI: www.doi.org/10.1088/0953-8984/19/19/489001


WARNING: alloc-realloc-dealloc name mismatch
         Name: atomlist isa
         Size:              -116. Bytes
         Node:     0
         Subsequent mismatches will not be reported
>> End of run:  16-OCT-2023  18:58:27
Job completed
