Siesta Version  : v4.1.5-1-g384057250
Architecture    : gcc
Compiler version: GNU Fortran (Ubuntu 11.3.0-1ubuntu1~22.04) 11.3.0
Compiler flags  : mpifort -O2 -fPIC -ftree-vectorize -fallow-argument-mismatch
PP flags        : -DFC_HAVE_ABORT -DMPI -DSIESTA__FLOOK -DSIESTA__METIS -DSIESTA__MUMPS -DCDF -DNCDF -DNCDF_4 -DNCDF_PARALLEL -DSIESTA__MRRR -DSIESTA__ELPA
Libraries       : libncdf.a libfdict.a  -lflookall -ldl -lnetcdff -lnetcdf -lhdf5_hl -lhdf5 -lhdf5_fortran -lz -lscalapack-openmpi -lopenblas -lmetis -lzmumps -lcmumps -ldmumps -lmumps_common -lpord -lsmumps -lesmumps -lscotch -lscotcherr -fopenmp -lelpa
PARALLEL version
NetCDF support
NetCDF-4 support
NetCDF-4 MPI-IO support
METIS ordering support
Lua support

* Running on 4 nodes in parallel
>> Start of run:  28-JUN-2023  16:31:40

                           ***********************       
                           *  WELCOME TO SIESTA  *       
                           ***********************       

reinit: Reading from standard input
reinit: Dumped input in INPUT_TMP.40868
************************** Dump of input data file ****************************
SystemLabel      GC
NumberOfAtoms    29
NumberOfSpecies  4
%block ChemicalSpeciesLabel
    1    8  O
    2    7  N
    3   14  Si
    4    1  H
%endblock ChemicalSpeciesLabel
# Single point calculation
MD.TypeOfRun                CG
MD.Steps                    0
SCF.MustConverge            F # In case it does not. There can be 2 very close atoms
AtomicCoordinatesFormat NotScaledCartesianAng
%block AtomicCoordinatesAndAtomicSpecies
1.043624880    3.939228610    0.000000000       1
-3.040641290   1.071078170    0.000000000       2
2.054601450    1.213582070    0.000000000       2
0.999014100    -1.732643800   0.000000000       2
-2.132351640   -1.812968220   0.000000000       2
3.860190550    -1.112298180   0.000000000       2
-1.236183220   1.152964460    0.000000000       3
-0.532924260   -0.939006270   0.000000000       3
0.635660470    2.374516770    0.000000000       3
2.245170240    -0.549967100   0.000000000       3
-3.449816660   -0.583665030   0.000000000       3
2.963714090    1.790992630    0.000000000       4
-4.845591350   -1.123549660   0.000000000       4
4.007020910    -2.152308560   0.000000000       4
4.772194380    -0.502318160   0.000000000       4
-2.265399090   -2.864605110   0.000000000       4
8.412374638    7.274043895    0.000000000       3
10.317258608   8.480682835    0.000000000       3
9.821504468    4.507708925    0.000000000       3
11.898974758   6.976926085    0.000000000       3
8.471997308    5.556616325    0.000000000       2
6.873239578    8.027721205    0.000000000       2
11.473799728   5.237546145    0.000000000       2
10.508603408   9.972836585    0.000000000       4
13.383342738   7.195656905    0.000000000       4
6.761894298    9.076916315    0.000000000       4
5.940681868    7.402807025    0.000000000       4
9.811277638    2.899597805    0.000000000       1
12.249225608   4.510854585    0.000000000       4
%endblock AtomicCoordinatesAndAtomicSpecies
%include ../../../Defaults.fdf
************************** End of input data file *****************************

reinit: -----------------------------------------------------------------------
reinit: System Name: 
reinit: -----------------------------------------------------------------------
reinit: System Label: GC
reinit: -----------------------------------------------------------------------

initatom: Reading input for the pseudopotentials and atomic orbitals ----------
Species number:   1 Atomic number:    8 Label: O
Species number:   2 Atomic number:    7 Label: N
Species number:   3 Atomic number:   14 Label: Si
Species number:   4 Atomic number:    1 Label: H

Ground state valence configuration:   2s02  2p04
Reading pseudopotential information in formatted form from O.psf

Pseudopotential generated from a relativistic atomic calculation

Valence configuration for pseudopotential generation:
2s( 2.00) rc: 0.45
2p( 4.00) rc: 0.92
3d( 0.00) rc: 2.24
4f( 0.00) rc: 0.25
Ground state valence configuration:   2s02  2p03
Reading pseudopotential information in formatted form from N.psf

Pseudopotential generated from a relativistic atomic calculation

Valence configuration for pseudopotential generation:
2s( 2.00) rc: 0.94
2p( 3.00) rc: 0.59
3d( 0.00) rc: 3.46
4f( 0.00) rc: 2.47
Ground state valence configuration:   3s02  3p02
Reading pseudopotential information in formatted form from Si.psf

Pseudopotential generated from a relativistic atomic calculation

Valence configuration for pseudopotential generation:
3s( 2.00) rc: 1.67
3p( 2.00) rc: 2.04
3d( 0.00) rc: 2.89
4f( 0.00) rc: 2.49
Ground state valence configuration:   1s01
Reading pseudopotential information in formatted form from H.psf

Pseudopotential generated from a relativistic atomic calculation

Valence configuration for pseudopotential generation:
1s( 1.00) rc: 0.01
2p( 0.00) rc: 0.60
3d( 0.00) rc: 1.99
4f( 0.00) rc: 2.49
For O, standard SIESTA heuristics set lmxkb to 3
 (one more than the basis l, including polarization orbitals).
Use PS.lmax or PS.KBprojectors blocks to override.
For N, standard SIESTA heuristics set lmxkb to 3
 (one more than the basis l, including polarization orbitals).
Use PS.lmax or PS.KBprojectors blocks to override.
For Si, standard SIESTA heuristics set lmxkb to 3
 (one more than the basis l, including polarization orbitals).
Use PS.lmax or PS.KBprojectors blocks to override.
For H, standard SIESTA heuristics set lmxkb to 2
 (one more than the basis l, including polarization orbitals).
Use PS.lmax or PS.KBprojectors blocks to override.

<basis_specs>
===============================================================================
O                    Z=   8    Mass=  16.000        Charge= 0.17977+309
Lmxo=1 Lmxkb= 3    BasisType=split      Semic=F
L=0  Nsemic=0  Cnfigmx=2
          i=1  nzeta=2  polorb=0  (2s)
            splnorm:   0.28000    
               vcte:    0.0000    
               rinn:    0.0000    
               qcoe:    0.0000    
               qyuk:    0.0000    
               qwid:   0.10000E-01
                rcs:    0.0000      0.0000    
            lambdas:    1.0000      1.0000    
L=1  Nsemic=0  Cnfigmx=2
          i=1  nzeta=2  polorb=1  (2p)
            splnorm:   0.28000    
               vcte:    0.0000    
               rinn:    0.0000    
               qcoe:    0.0000    
               qyuk:    0.0000    
               qwid:   0.10000E-01
                rcs:    0.0000      0.0000    
            lambdas:    1.0000      1.0000    
-------------------------------------------------------------------------------
L=0  Nkbl=1  erefs: 0.17977+309
L=1  Nkbl=1  erefs: 0.17977+309
L=2  Nkbl=1  erefs: 0.17977+309
L=3  Nkbl=1  erefs: 0.17977+309
===============================================================================
</basis_specs>

atom: Called for O                     (Z =   8)

read_vps: Pseudopotential generation method:
read_vps: ATM4.2.7  Troullier-Martins                       
Valence charge for ps generation:    6.00000

xc_check: Exchange-correlation functional:
xc_check: GGA Perdew, Burke & Ernzerhof 1996
V l=0 = -2*Zval/r beyond r=  1.1000
V l=1 = -2*Zval/r beyond r=  1.1000
V l=2 = -2*Zval/r beyond r=  2.2154
V l=3 = -2*Zval/r beyond r=  1.1000
All V_l potentials equal beyond r=  2.2154
This should be close to max(r_c) in ps generation
All pots = -2*Zval/r beyond r=  2.2154

VLOCAL1: 99.0% of the norm of Vloc inside      8.845 Ry
VLOCAL1: 99.9% of the norm of Vloc inside     20.157 Ry
atom: Maximum radius for 4*pi*r*r*local-pseudopot. charge    2.67231
atom: Maximum radius for r*vlocal+2*Zval:    2.32897
GHOST: No ghost state for L =  0
GHOST: No ghost state for L =  1
GHOST: No ghost state for L =  2
GHOST: No ghost state for L =  3

KBgen: Kleinman-Bylander projectors: 
   l= 0   rc=  2.243238   el= -1.759686   Ekb=**********   kbcos= -0.171774
   l= 1   rc=  2.328968   el= -0.663873   Ekb=-14.506792   kbcos= -0.519897
   l= 2   rc=  2.573941   el=  0.002031   Ekb= -1.137373   kbcos= -0.019581
   l= 3   rc=  2.606321   el=  0.003153   Ekb= -1.013546   kbcos= -0.003122

KBgen: Total number of Kleinman-Bylander projectors:   16
atom: -------------------------------------------------------------------------

atom: SANKEY-TYPE ORBITALS:
atom: Selected multiple-zeta basis: split     

SPLIT: Orbitals with angular momentum L= 0

SPLIT: Basis orbitals for state 2s

SPLIT: PAO cut-off radius determined from an
SPLIT: energy shift=  0.002000 Ry

   izeta = 1
                 lambda =    1.000000
                     rc =    4.243912
                 energy =   -1.758270
                kinetic =    3.286084
    potential(screened) =   -5.044353
       potential(ionic) =  -12.921184

   izeta = 2
                 rmatch =    2.187845
              splitnorm =    0.280000
                 energy =   -0.885018
                kinetic =    8.134434
    potential(screened) =   -9.019452
       potential(ionic) =  -17.710645

SPLIT: Orbitals with angular momentum L= 1

SPLIT: Basis orbitals for state 2p

SPLIT: PAO cut-off radius determined from an
SPLIT: energy shift=  0.002000 Ry

   izeta = 1
                 lambda =    1.000000
                     rc =    5.314825
                 energy =   -0.661986
                kinetic =    4.917472
    potential(screened) =   -5.579458
       potential(ionic) =  -13.236259

   izeta = 2
                 rmatch =    2.160663
              splitnorm =    0.280000
                 energy =   -0.068760
                kinetic =    9.183374
    potential(screened) =   -9.252135
       potential(ionic) =  -18.274251

POLgen: Perturbative polarization orbital with L=  2

POLgen: Polarization orbital for state 2p

   izeta = 1
                     rc =    5.314825
                 energy =    1.970580
                kinetic =    3.886128
    potential(screened) =   -1.915547
       potential(ionic) =   -7.749584
atom: Total number of Sankey-type orbitals: 13

atm_pop: Valence configuration (for local Pseudopot. screening):
 2s( 2.00)                                                            
 2p( 4.00)                                                            
Vna: chval, zval:    6.00000   6.00000

Vna:  Cut-off radius for the neutral-atom potential:   5.314825

atom: _________________________________________________________________________

<basis_specs>
===============================================================================
N                    Z=   7    Mass=  14.010        Charge= 0.17977+309
Lmxo=1 Lmxkb= 3    BasisType=split      Semic=F
L=0  Nsemic=0  Cnfigmx=2
          i=1  nzeta=2  polorb=0  (2s)
            splnorm:   0.28000    
               vcte:    0.0000    
               rinn:    0.0000    
               qcoe:    0.0000    
               qyuk:    0.0000    
               qwid:   0.10000E-01
                rcs:    0.0000      0.0000    
            lambdas:    1.0000      1.0000    
L=1  Nsemic=0  Cnfigmx=2
          i=1  nzeta=2  polorb=1  (2p)
            splnorm:   0.28000    
               vcte:    0.0000    
               rinn:    0.0000    
               qcoe:    0.0000    
               qyuk:    0.0000    
               qwid:   0.10000E-01
                rcs:    0.0000      0.0000    
            lambdas:    1.0000      1.0000    
-------------------------------------------------------------------------------
L=0  Nkbl=1  erefs: 0.17977+309
L=1  Nkbl=1  erefs: 0.17977+309
L=2  Nkbl=1  erefs: 0.17977+309
L=3  Nkbl=1  erefs: 0.17977+309
===============================================================================
</basis_specs>

atom: Called for N                     (Z =   7)

read_vps: Pseudopotential generation method:
read_vps: ATM4.2.7  Troullier-Martins                       
Valence charge for ps generation:    5.00000

xc_check: Exchange-correlation functional:
xc_check: GGA Perdew, Burke & Ernzerhof 1996
V l=0 = -2*Zval/r beyond r=  1.2889
V l=1 = -2*Zval/r beyond r=  1.2889
V l=2 = -2*Zval/r beyond r=  3.4178
V l=3 = -2*Zval/r beyond r=  2.4084
All V_l potentials equal beyond r=  3.3753
This should be close to max(r_c) in ps generation
All pots = -2*Zval/r beyond r=  3.4178

VLOCAL1: 99.0% of the norm of Vloc inside      3.810 Ry
VLOCAL1: 99.9% of the norm of Vloc inside      8.683 Ry
atom: Maximum radius for 4*pi*r*r*local-pseudopot. charge    4.02088
atom: Maximum radius for r*vlocal+2*Zval:    3.54838
GHOST: No ghost state for L =  0
GHOST: No ghost state for L =  1
GHOST: No ghost state for L =  2
GHOST: No ghost state for L =  3

KBgen: Kleinman-Bylander projectors: 
   l= 0   rc=  3.417763   el= -1.365098   Ekb= -4.433130   kbcos= -0.707855
   l= 1   rc=  3.375302   el= -0.521201   Ekb=-13.264039   kbcos= -0.535594
   l= 2   rc=  3.872880   el=  0.001991   Ekb= -0.641094   kbcos= -0.062456
   l= 3   rc=  3.970931   el=  0.003093   Ekb= -0.474517   kbcos= -0.018236

KBgen: Total number of Kleinman-Bylander projectors:   16
atom: -------------------------------------------------------------------------

atom: SANKEY-TYPE ORBITALS:
atom: Selected multiple-zeta basis: split     

SPLIT: Orbitals with angular momentum L= 0

SPLIT: Basis orbitals for state 2s

SPLIT: PAO cut-off radius determined from an
SPLIT: energy shift=  0.002000 Ry

   izeta = 1
                 lambda =    1.000000
                     rc =    4.730425
                 energy =   -1.363399
                kinetic =    1.245246
    potential(screened) =   -2.608645
       potential(ionic) =   -8.121105

   izeta = 2
                 rmatch =    2.531849
              splitnorm =    0.280000
                 energy =   -0.959908
                kinetic =    2.409435
    potential(screened) =   -3.369343
       potential(ionic) =   -9.427975

SPLIT: Orbitals with angular momentum L= 1

SPLIT: Basis orbitals for state 2p

SPLIT: PAO cut-off radius determined from an
SPLIT: energy shift=  0.002000 Ry

   izeta = 1
                 lambda =    1.000000
                     rc =    5.924108
                 energy =   -0.519262
                kinetic =    3.672940
    potential(screened) =   -4.192202
       potential(ionic) =   -9.518354

   izeta = 2
                 rmatch =    2.531849
              splitnorm =    0.280000
                 energy =   -0.104258
                kinetic =    6.807538
    potential(screened) =   -6.911796
       potential(ionic) =  -13.149920

POLgen: Perturbative polarization orbital with L=  2

POLgen: Polarization orbital for state 2p

   izeta = 1
                     rc =    5.924108
                 energy =    1.427508
                kinetic =    2.872379
    potential(screened) =   -1.444871
       potential(ionic) =   -5.563644
atom: Total number of Sankey-type orbitals: 13

atm_pop: Valence configuration (for local Pseudopot. screening):
 2s( 2.00)                                                            
 2p( 3.00)                                                            
Vna: chval, zval:    5.00000   5.00000

Vna:  Cut-off radius for the neutral-atom potential:   5.924108

atom: _________________________________________________________________________

<basis_specs>
===============================================================================
Si                   Z=  14    Mass=  28.090        Charge= 0.17977+309
Lmxo=1 Lmxkb= 3    BasisType=split      Semic=F
L=0  Nsemic=0  Cnfigmx=3
          i=1  nzeta=2  polorb=0  (3s)
            splnorm:   0.28000    
               vcte:    0.0000    
               rinn:    0.0000    
               qcoe:    0.0000    
               qyuk:    0.0000    
               qwid:   0.10000E-01
                rcs:    0.0000      0.0000    
            lambdas:    1.0000      1.0000    
L=1  Nsemic=0  Cnfigmx=3
          i=1  nzeta=2  polorb=1  (3p)
            splnorm:   0.28000    
               vcte:    0.0000    
               rinn:    0.0000    
               qcoe:    0.0000    
               qyuk:    0.0000    
               qwid:   0.10000E-01
                rcs:    0.0000      0.0000    
            lambdas:    1.0000      1.0000    
-------------------------------------------------------------------------------
L=0  Nkbl=1  erefs: 0.17977+309
L=1  Nkbl=1  erefs: 0.17977+309
L=2  Nkbl=1  erefs: 0.17977+309
L=3  Nkbl=1  erefs: 0.17977+309
===============================================================================
</basis_specs>

atom: Called for Si                    (Z =  14)

read_vps: Pseudopotential generation method:
read_vps: ATM4.2.7  Troullier-Martins                       
Valence charge for ps generation:    4.00000

xc_check: Exchange-correlation functional:
xc_check: GGA Perdew, Burke & Ernzerhof 1996
V l=0 = -2*Zval/r beyond r=  2.7826
V l=1 = -2*Zval/r beyond r=  2.7826
V l=2 = -2*Zval/r beyond r=  2.9253
V l=3 = -2*Zval/r beyond r=  2.7826
All V_l potentials equal beyond r=  2.8530
This should be close to max(r_c) in ps generation
All pots = -2*Zval/r beyond r=  2.9253

VLOCAL1: 99.0% of the norm of Vloc inside      5.333 Ry
VLOCAL1: 99.9% of the norm of Vloc inside     12.154 Ry
atom: Maximum radius for 4*pi*r*r*local-pseudopot. charge    3.39869
atom: Maximum radius for r*vlocal+2*Zval:    2.96205
GHOST: No ghost state for L =  0
GHOST: No ghost state for L =  1
GHOST: No ghost state for L =  2
GHOST: No ghost state for L =  3

KBgen: Kleinman-Bylander projectors: 
   l= 0   rc=  3.075247   el= -0.794092   Ekb=  5.879390   kbcos=  0.167461
   l= 1   rc=  3.153101   el= -0.300068   Ekb=  2.642817   kbcos=  0.058301
   l= 2   rc=  3.273594   el=  0.001958   Ekb= -1.185135   kbcos= -0.104411
   l= 3   rc=  3.232927   el=  0.003046   Ekb= -0.497174   kbcos= -0.015889

KBgen: Total number of Kleinman-Bylander projectors:   16
atom: -------------------------------------------------------------------------

atom: SANKEY-TYPE ORBITALS:
atom: Selected multiple-zeta basis: split     

SPLIT: Orbitals with angular momentum L= 0

SPLIT: Basis orbitals for state 3s

SPLIT: PAO cut-off radius determined from an
SPLIT: energy shift=  0.002000 Ry

   izeta = 1
                 lambda =    1.000000
                     rc =    6.429618
                 energy =   -0.792283
                kinetic =    0.525293
    potential(screened) =   -1.317576
       potential(ionic) =   -3.744923

   izeta = 2
                 rmatch =    3.998416
              splitnorm =    0.280000
                 energy =   -0.583081
                kinetic =    1.069570
    potential(screened) =   -1.652651
       potential(ionic) =   -4.235185

SPLIT: Orbitals with angular momentum L= 1

SPLIT: Basis orbitals for state 3p

SPLIT: PAO cut-off radius determined from an
SPLIT: energy shift=  0.002000 Ry

   izeta = 1
                 lambda =    1.000000
                     rc =    8.464845
                 energy =   -0.298236
                kinetic =    0.785360
    potential(screened) =   -1.083596
       potential(ionic) =   -3.273779

   izeta = 2
                 rmatch =    4.587816
              splitnorm =    0.280000
                 energy =   -0.131871
                kinetic =    1.403687
    potential(screened) =   -1.535557
       potential(ionic) =   -4.015310

POLgen: Perturbative polarization orbital with L=  2

POLgen: Polarization orbital for state 3p

   izeta = 1
                     rc =    8.464845
                 energy =    0.321949
                kinetic =    1.055677
    potential(screened) =   -0.733728
       potential(ionic) =   -2.672950
atom: Total number of Sankey-type orbitals: 13

atm_pop: Valence configuration (for local Pseudopot. screening):
 3s( 2.00)                                                            
 3p( 2.00)                                                            
Vna: chval, zval:    4.00000   4.00000

Vna:  Cut-off radius for the neutral-atom potential:   8.464845

atom: _________________________________________________________________________

<basis_specs>
===============================================================================
H                    Z=   1    Mass=  1.0100        Charge= 0.17977+309
Lmxo=0 Lmxkb= 2    BasisType=split      Semic=F
L=0  Nsemic=0  Cnfigmx=1
          i=1  nzeta=2  polorb=1  (1s)
            splnorm:   0.62000    
               vcte:    0.0000    
               rinn:    0.0000    
               qcoe:    0.0000    
               qyuk:    0.0000    
               qwid:   0.10000E-01
                rcs:    0.0000      0.0000    
            lambdas:    1.0000      1.0000    
-------------------------------------------------------------------------------
L=0  Nkbl=1  erefs: 0.17977+309
L=1  Nkbl=1  erefs: 0.17977+309
L=2  Nkbl=1  erefs: 0.17977+309
===============================================================================
</basis_specs>

atom: Called for H                     (Z =   1)

read_vps: Pseudopotential generation method:
read_vps: ATM4.2.7  Troullier-Martins                       
Valence charge for ps generation:    1.00000

xc_check: Exchange-correlation functional:
xc_check: GGA Perdew, Burke & Ernzerhof 1996
V l=0 = -2*Zval/r beyond r=  0.0098
V l=1 = -2*Zval/r beyond r=  0.5817
V l=2 = -2*Zval/r beyond r=  1.9372
All V_l potentials equal beyond r=  1.9372
This should be close to max(r_c) in ps generation
All pots = -2*Zval/r beyond r=  1.9372

VLOCAL1: 99.0% of the norm of Vloc inside     11.567 Ry
VLOCAL1: 99.9% of the norm of Vloc inside     26.362 Ry
atom: Maximum radius for 4*pi*r*r*local-pseudopot. charge    2.25106
atom: Maximum radius for r*vlocal+2*Zval:    1.91306
GHOST: No ghost state for L =  0
GHOST: No ghost state for L =  1
GHOST: No ghost state for L =  2

KBgen: Kleinman-Bylander projectors: 
   l= 0   rc=  2.036604   el= -0.477180   Ekb= -6.081590   kbcos= -0.277285
   l= 1   rc=  2.195416   el=  0.001076   Ekb= -0.926943   kbcos= -0.034643
   l= 2   rc=  2.251056   el=  0.002010   Ekb= -0.130941   kbcos= -0.009788

KBgen: Total number of Kleinman-Bylander projectors:    9
atom: -------------------------------------------------------------------------

atom: SANKEY-TYPE ORBITALS:
atom: Selected multiple-zeta basis: split     

SPLIT: Orbitals with angular momentum L= 0

SPLIT: Basis orbitals for state 1s

SPLIT: PAO cut-off radius determined from an
SPLIT: energy shift=  0.002000 Ry

   izeta = 1
                 lambda =    1.000000
                     rc =    6.518340
                 energy =   -0.475305
                kinetic =    0.912139
    potential(screened) =   -1.387444
       potential(ionic) =   -1.907295

   izeta = 2
                 rmatch =    2.141150
              splitnorm =    0.620000
                 energy =    0.566467
                kinetic =    3.772856
    potential(screened) =   -3.206389
       potential(ionic) =   -3.759093

POLgen: Perturbative polarization orbital with L=  1

POLgen: Polarization orbital for state 1s

   izeta = 1
                     rc =    6.518340
                 energy =    0.533861
                kinetic =    1.121086
    potential(screened) =   -0.587225
       potential(ionic) =   -1.053027
atom: Total number of Sankey-type orbitals:  5

atm_pop: Valence configuration (for local Pseudopot. screening):
 1s( 1.00)                                                            
Vna: chval, zval:    1.00000   1.00000

Vna:  Cut-off radius for the neutral-atom potential:   6.518340

atom: _________________________________________________________________________

prinput: Basis input ----------------------------------------------------------

PAO.BasisType split     

%block ChemicalSpeciesLabel
    1    8 O                       # Species index, atomic number, species label
    2    7 N                       # Species index, atomic number, species label
    3   14 Si                      # Species index, atomic number, species label
    4    1 H                       # Species index, atomic number, species label
%endblock ChemicalSpeciesLabel

%block PAO.Basis                 # Define Basis set
O                     2                    # Species label, number of l-shells
 n=2   0   2                         # n, l, Nzeta 
   4.244      2.188   
   1.000      1.000   
 n=2   1   2 P   1                   # n, l, Nzeta, Polarization, NzetaPol
   5.315      2.161   
   1.000      1.000   
N                     2                    # Species label, number of l-shells
 n=2   0   2                         # n, l, Nzeta 
   4.730      2.532   
   1.000      1.000   
 n=2   1   2 P   1                   # n, l, Nzeta, Polarization, NzetaPol
   5.924      2.532   
   1.000      1.000   
Si                    2                    # Species label, number of l-shells
 n=3   0   2                         # n, l, Nzeta 
   6.430      3.998   
   1.000      1.000   
 n=3   1   2 P   1                   # n, l, Nzeta, Polarization, NzetaPol
   8.465      4.588   
   1.000      1.000   
H                     1                    # Species label, number of l-shells
 n=1   0   2 P   1                   # n, l, Nzeta, Polarization, NzetaPol
   6.518      2.141   
   1.000      1.000   
%endblock PAO.Basis

prinput: ----------------------------------------------------------------------

Dumping basis to NetCDF file O.ion.nc
Dumping basis to NetCDF file N.ion.nc
Dumping basis to NetCDF file Si.ion.nc
Dumping basis to NetCDF file H.ion.nc
coor:   Atomic-coordinates input format  =     Cartesian coordinates
coor:                                          (in Angstroms)

siesta: Atomic coordinates (Bohr) and species
siesta:      1.97217   7.44407   0.00000  1        1
siesta:     -5.74598   2.02405   0.00000  2        2
siesta:      3.88264   2.29334   0.00000  2        3
siesta:      1.88786  -3.27422   0.00000  2        4
siesta:     -4.02956  -3.42601   0.00000  2        5
siesta:      7.29471  -2.10194   0.00000  2        6
siesta:     -2.33605   2.17879   0.00000  3        7
siesta:     -1.00708  -1.77447   0.00000  3        8
siesta:      1.20122   4.48719   0.00000  3        9
siesta:      4.24276  -1.03929   0.00000  3       10
siesta:     -6.51921  -1.10297   0.00000  3       11
siesta:      5.60061   3.38449   0.00000  4       12
siesta:     -9.15684  -2.12320   0.00000  4       13
siesta:      7.57218  -4.06728   0.00000  4       14
siesta:      9.01814  -0.94924   0.00000  4       15
siesta:     -4.28099  -5.41332   0.00000  4       16
siesta:     15.89709  13.74596   0.00000  3       17
siesta:     19.49680  16.02617   0.00000  3       18
siesta:     18.55996   8.51834   0.00000  3       19
siesta:     22.48581  13.18448   0.00000  3       20
siesta:     16.00976  10.50049   0.00000  2       21
siesta:     12.98855  15.17020   0.00000  2       22
siesta:     21.68235   9.89753   0.00000  2       23
siesta:     19.85839  18.84594   0.00000  4       24
siesta:     25.29086  13.59783   0.00000  4       25
siesta:     12.77813  17.15289   0.00000  4       26
siesta:     11.22627  13.98928   0.00000  4       27
siesta:     18.54064   5.47945   0.00000  1       28
siesta:     23.14769   8.52428   0.00000  4       29

siesta: Automatic unit cell vectors (Ang):
siesta:   27.640410    0.000000    0.000000
siesta:    0.000000   21.709769    0.000000
siesta:    0.000000    0.000000    9.854683

siesta: System type = molecule  

initatomlists: Number of atoms, orbitals, and projectors:     29   297   394

siesta: ******************** Simulation parameters ****************************
siesta:
siesta: The following are some of the parameters of the simulation.
siesta: A complete list of the parameters used, including default values,
siesta: can be found in file out.fdf
siesta:
redata: Spin configuration                          = spin-orbit
redata: Number of spin components                   = 8
redata: Time-Reversal Symmetry                      = F
redata: Spin spiral                                 = F
############################################################
This spin-orbit implementation uses a local approximation.
From 4.2 and onwards the full non-local approximation is implemented
You are strongly advised to use >=4.2 versions!
############################################################
redata: Long output                                 =   F
redata: Number of Atomic Species                    =        4
redata: Charge density info will appear in .RHO file
redata: Write Mulliken Pop.                         = Atomic and Orbital charges
redata: Matel table size (NRTAB)                    =     1024
redata: Mesh Cutoff                                 =   340.0000 Ry
redata: Net charge of the system                    =     0.0000 |e|
redata: Min. number of SCF Iter                     =        1
redata: Max. number of SCF Iter                     =      200
redata: SCF mix quantity                            = Hamiltonian
redata: Mix DM or H after convergence               =   F
redata: Recompute H after scf cycle                 =   F
redata: Mix DM in first SCF step                    =   T
redata: Write Pulay info on disk                    =   F
redata: New DM Occupancy tolerance                  = 0.000000000001
redata: No kicks to SCF
redata: DM Mixing Weight for Kicks                  =     0.5000
redata: Require Harris convergence for SCF          =   F
redata: Harris energy tolerance for SCF             =     0.000100 eV
redata: Require DM convergence for SCF              =   T
redata: DM tolerance for SCF                        =     0.000008
redata: Require EDM convergence for SCF             =   F
redata: EDM tolerance for SCF                       =     0.001000 eV
redata: Require H convergence for SCF               =   T
redata: Hamiltonian tolerance for SCF               =     0.000001 eV
redata: Require (free) Energy convergence for SCF   =   F
redata: (free) Energy tolerance for SCF             =     0.000100 eV
redata: Using Saved Data (generic)                  =   F
redata: Use continuation files for DM               =   F
redata: Neglect nonoverlap interactions             =   F
redata: Method of Calculation                       = Diagonalization
redata: Electronic Temperature                      =   299.9978 K
redata: Fix the spin of the system                  =   F
redata: Dynamics option                             = Single-point calculation
mix.SCF: Pulay mixing                            = Pulay
mix.SCF:    Variant                              = stable
mix.SCF:    History steps                        = 6
mix.SCF:    Linear mixing weight                 =     0.250000
mix.SCF:    Mixing weight                        =     0.250000
mix.SCF:    SVD condition                        = 0.1000E-07
mix.SCF:    Restart steps                        = 24
mix.SCF:    Restart save steps                   = 3
mix.SCF: Spin-component mixing                   all
redata: Save all siesta data in one NC              =   F
redata: ***********************************************************************

%block SCF.Mixers
  Pulay
%endblock SCF.Mixers

%block SCF.Mixer.Pulay
  # Mixing method
  method pulay
  variant stable

  # Mixing options
  weight 0.2500
  weight.linear 0.2500
  history 6
  restart 24
  restart.save 3
%endblock SCF.Mixer.Pulay

DM_history_depth set to one: no extrapolation allowed by default for geometry relaxation
Size of DM history Fstack: 1
Total number of electrons:    98.000000
Total ionic charge:    98.000000

* ProcessorY, Blocksize:    2  24


* Orbital distribution balance (max,min):    81    72


Time-reversal symmetry not used.

siesta: k-grid: Number of k-points =     1
siesta: k-grid: Cutoff (effective) =     4.927 Ang
siesta: k-grid: Supercell and displacements
siesta: k-grid:    1   0   0      0.000
siesta: k-grid:    0   1   0      0.000
siesta: k-grid:    0   0   1      0.000

diag: Algorithm                                     = ELPA-1stage
diag: Parallel over k                               =   F
diag: Use parallel 2D distribution                  =   T
diag: Parallel block-size                           = 24
diag: Parallel distribution                         =     2 x     2
diag: Used triangular part                          = Lower
diag: Absolute tolerance                            =  0.100E-15
diag: Orthogonalization factor                      =  0.100E-05
diag: Memory factor                                 =  1.0000


ts: **************************************************************
ts: Save H and S matrices                           =    F
ts: Save DM and EDM matrices                        =    F
ts: Only save the overlap matrix S                  =    F
ts: **************************************************************

************************ Begin: TS CHECKS AND WARNINGS ************************
************************ End: TS CHECKS AND WARNINGS **************************


                     ====================================
                        Single-point calculation
                     ====================================

outcoor: Atomic coordinates (Ang):                          
    1.04362488    3.93922861    0.00000000   1       1  O
   -3.04064129    1.07107817    0.00000000   2       2  N
    2.05460145    1.21358207    0.00000000   2       3  N
    0.99901410   -1.73264380    0.00000000   2       4  N
   -2.13235164   -1.81296822    0.00000000   2       5  N
    3.86019055   -1.11229818    0.00000000   2       6  N
   -1.23618322    1.15296446    0.00000000   3       7  Si
   -0.53292426   -0.93900627    0.00000000   3       8  Si
    0.63566047    2.37451677    0.00000000   3       9  Si
    2.24517024   -0.54996710    0.00000000   3      10  Si
   -3.44981666   -0.58366503    0.00000000   3      11  Si
    2.96371409    1.79099263    0.00000000   4      12  H
   -4.84559135   -1.12354966    0.00000000   4      13  H
    4.00702091   -2.15230856    0.00000000   4      14  H
    4.77219438   -0.50231816    0.00000000   4      15  H
   -2.26539909   -2.86460511    0.00000000   4      16  H
    8.41237464    7.27404390    0.00000000   3      17  Si
   10.31725861    8.48068283    0.00000000   3      18  Si
    9.82150447    4.50770893    0.00000000   3      19  Si
   11.89897476    6.97692608    0.00000000   3      20  Si
    8.47199731    5.55661633    0.00000000   2      21  N
    6.87323958    8.02772121    0.00000000   2      22  N
   11.47379973    5.23754614    0.00000000   2      23  N
   10.50860341    9.97283658    0.00000000   4      24  H
   13.38334274    7.19565690    0.00000000   4      25  H
    6.76189430    9.07691632    0.00000000   4      26  H
    5.94068187    7.40280703    0.00000000   4      27  H
    9.81127764    2.89959780    0.00000000   1      28  O
   12.24922561    4.51085458    0.00000000   4      29  H

outcell: Unit cell vectors (Ang):
       27.640410    0.000000    0.000000
        0.000000   21.709769    0.000000
        0.000000    0.000000    9.854683

outcell: Cell vector modules (Ang)   :   27.640410   21.709769    9.854683
outcell: Cell angles (23,13,12) (deg):     90.0000     90.0000     90.0000
outcell: Cell volume (Ang**3)        :   5913.4694
<dSpData1D:S at geom step 0
  <sparsity:sparsity for geom step 0
    nrows_g=297 nrows=81 sparsity=.1376 nnzs=12141, refcount: 8>
  <dData1D:(new from dSpData1D) n=12141, refcount: 1>
refcount: 1>
new_DM -- step:     1
Initializing Density Matrix...
DM filled with atomic data:
<dSpData2D:DM initialized from atoms
  <sparsity:sparsity for geom step 0
    nrows_g=297 nrows=81 sparsity=.1376 nnzs=12141, refcount: 9>
  <dData2D:DM n=12141 m=8, refcount: 1>
refcount: 1>
     spin moment: S , {S} =   56.00000   0.00000   0.00000  56.00000
No. of atoms with KB's overlaping orbs in proc 0. Max # of overlaps:      29     142

Initializing spin-orbit part of the Hamiltonian
  Adding spin-orbit effects for O 
  Adding spin-orbit effects for N 
  Adding spin-orbit effects for Si
  Adding spin-orbit effects for H 


New grid distribution:   1
           1       1:  160    1:   63    1:   30
           2       1:  160    1:   63   31:   60
           3       1:  160   64:  125    1:   30
           4       1:  160   64:  125   31:   60

InitMesh: MESH =   320 x   250 x   120 =     9600000
InitMesh: (bp) =   160 x   125 x    60 =     1200000
InitMesh: Mesh cutoff (required, used) =   340.000   366.498 Ry
ExtMesh (bp) on 0 =   264 x   167 x   142 =     6260496
New grid distribution:   2
           1      58:  160    1:   38    1:   60
           2       1:   57    1:   39    1:   60
           3      58:  160   39:  125    1:   60
           4       1:   57   40:  125    1:   60
New grid distribution:   3
           1      59:  160    1:   41    1:   60
           2       1:   58    1:   41    1:   60
           3      59:  160   42:  125    1:   60
           4       1:   58   42:  125    1:   60
Setting up quadratic distribution...
ExtMesh (bp) on 0 =   207 x   142 x   172 =     5055768
PhiOnMesh: Number of (b)points on node 0 =               234840
PhiOnMesh: nlist on node 0 =              2573872

stepf: Fermi-Dirac step function

siesta: Program's energy decomposition (eV):
siesta: Ebs     =      -625.466830
siesta: Eions   =      3585.165840
siesta: Ena     =       382.019161
siesta: Ekin    =      3369.366379
siesta: Enl     =     -3297.952189
siesta: Eso     =        -0.003411
siesta: Edftu   =         0.000000
siesta: DEna    =       153.677954
siesta: DUscf   =        81.956358
siesta: DUext   =         0.000000
siesta: Exc     =     -1204.060156
siesta: eta*DQ  =         0.000000
siesta: Emadel  =         0.000000
siesta: Emeta   =         0.000000
siesta: Emolmec =         0.000000
siesta: Ekinion =         0.000000
siesta: Eharris =     -4020.049357
siesta: Etot    =     -4100.161743
siesta: FreeEng =     -4100.163165

        iscf     Eharris(eV)        E_KS(eV)     FreeEng(eV)     dDmax    Ef(eV) dHmax(eV)
   scf:    1    -4020.049357    -4100.161743    -4100.163165  0.965084 -4.904548 21.872244
     spin moment: S , {S} =    2.00727  -0.00000   0.00000   2.00727
timer: Routine,Calls,Time,% = IterSCF        1      13.570  19.18
   scf:    2    -4146.568816    -4135.550082    -4135.551981  0.449243 -4.233170 11.776809
     spin moment: S , {S} =    1.98838   0.00000   0.00000   1.98838
   scf:    3    -4104.147612    -4132.344987    -4132.365145  0.420228 -4.340629 12.406394
     spin moment: S , {S} =    2.21464  -0.00000  -0.00000   2.21464
   scf:    4    -4149.724109    -4144.780468    -4144.780468  0.318820 -3.907673  7.141942
     spin moment: S , {S} =    0.00010  -0.00000  -0.00000   0.00010
   scf:    5    -4146.160896    -4145.578251    -4145.578251  0.037217 -3.680537  4.599018
     spin moment: S , {S} =    0.00006  -0.00000   0.00000   0.00006
   scf:    6    -4146.341736    -4145.968899    -4145.968899  0.024259 -3.649034  2.288486
     spin moment: S , {S} =    0.00003   0.00000   0.00000   0.00003
   scf:    7    -4146.328804    -4146.144985    -4146.144985  0.021997 -3.549356  0.884959
     spin moment: S , {S} =    0.00001  -0.00000   0.00000   0.00001
   scf:    8    -4146.262746    -4146.201909    -4146.201909  0.012104 -3.792910  0.515106
     spin moment: S , {S} =    0.00000   0.00000   0.00000   0.00000
   scf:    9    -4146.241013    -4146.220761    -4146.220761  0.006624 -3.748671  0.398301
     spin moment: S , {S} =    0.00000  -0.00000   0.00000   0.00000
   scf:   10    -4146.273638    -4146.240132    -4146.240132  0.022698 -3.804725  0.246635
     spin moment: S , {S} =    0.00000  -0.00000   0.00000  -0.00000
   scf:   11    -4146.244169    -4146.242183    -4146.242183  0.005667 -3.789545  0.067610
     spin moment: S , {S} =    0.00000   0.00000   0.00000  -0.00000
   scf:   12    -4146.243545    -4146.242879    -4146.242879  0.001082 -3.782474  0.030781
     spin moment: S , {S} =    0.00000   0.00000   0.00000  -0.00000
   scf:   13    -4146.243435    -4146.243154    -4146.243154  0.001182 -3.779167  0.020276
     spin moment: S , {S} =    0.00000   0.00000   0.00000  -0.00000
   scf:   14    -4146.243440    -4146.243291    -4146.243291  0.000811 -3.778907  0.011907
     spin moment: S , {S} =    0.00000   0.00000   0.00000  -0.00000
   scf:   15    -4146.243409    -4146.243346    -4146.243346  0.000784 -3.777848  0.007294
     spin moment: S , {S} =    0.00000   0.00000   0.00000  -0.00000
   scf:   16    -4146.243412    -4146.243376    -4146.243376  0.000735 -3.779592  0.005380
     spin moment: S , {S} =    0.00000   0.00000   0.00000   0.00000
   scf:   17    -4146.243394    -4146.243384    -4146.243384  0.000396 -3.779460  0.003950
     spin moment: S , {S} =    0.00000   0.00000   0.00000   0.00000
   scf:   18    -4146.243392    -4146.243388    -4146.243388  0.000263 -3.779648  0.002648
     spin moment: S , {S} =    0.00000   0.00000   0.00000   0.00000
   scf:   19    -4146.243392    -4146.243390    -4146.243390  0.000219 -3.779826  0.001792
     spin moment: S , {S} =    0.00000  -0.00000   0.00000   0.00000
   scf:   20    -4146.243391    -4146.243390    -4146.243390  0.000114 -3.779858  0.001292
     spin moment: S , {S} =    0.00000   0.00000   0.00000   0.00000
   scf:   21    -4146.243392    -4146.243391    -4146.243391  0.000174 -3.779837  0.000705
     spin moment: S , {S} =    0.00000   0.00000   0.00000   0.00000
   scf:   22    -4146.243392    -4146.243391    -4146.243391  0.000111 -3.779806  0.000239
     spin moment: S , {S} =    0.00000  -0.00000   0.00000   0.00000
   scf:   23    -4146.243391    -4146.243391    -4146.243391  0.000038 -3.779799  0.000172
     spin moment: S , {S} =    0.00000  -0.00000   0.00000   0.00000
   scf:   24    -4146.243391    -4146.243391    -4146.243391  0.000018 -3.779804  0.000105
     spin moment: S , {S} =    0.00000  -0.00000   0.00000   0.00000
mix: Pulay -- resetting history
   scf:   25    -4146.243391    -4146.243391    -4146.243391  0.000011 -3.779808  0.000051
     spin moment: S , {S} =    0.00000  -0.00000   0.00000   0.00000
   scf:   26    -4146.243391    -4146.243391    -4146.243391  0.000003 -3.779809  0.000034
     spin moment: S , {S} =    0.00000  -0.00000   0.00000   0.00000
   scf:   27    -4146.243391    -4146.243391    -4146.243391  0.000003 -3.779807  0.000022
     spin moment: S , {S} =    0.00000  -0.00000   0.00000   0.00000
   scf:   28    -4146.243391    -4146.243391    -4146.243391  0.000002 -3.779806  0.000012
     spin moment: S , {S} =    0.00000  -0.00000   0.00000   0.00000
   scf:   29    -4146.243391    -4146.243391    -4146.243391  0.000001 -3.779806  0.000008
     spin moment: S , {S} =    0.00000  -0.00000   0.00000   0.00000
   scf:   30    -4146.243391    -4146.243391    -4146.243391  0.000001 -3.779806  0.000004
     spin moment: S , {S} =    0.00000  -0.00000   0.00000   0.00000
   scf:   31    -4146.243391    -4146.243391    -4146.243391  0.000000 -3.779806  0.000002
     spin moment: S , {S} =    0.00000  -0.00000   0.00000   0.00000
   scf:   32    -4146.243391    -4146.243391    -4146.243391  0.000000 -3.779806  0.000001
     spin moment: S , {S} =    0.00000  -0.00000   0.00000   0.00000
   scf:   33    -4146.243391    -4146.243391    -4146.243391  0.000000 -3.779806  0.000001
     spin moment: S , {S} =    0.00000  -0.00000   0.00000   0.00000

SCF Convergence by DM+H criterion
max |DM_out - DM_in|         :     0.0000001732
max |H_out - H_in|      (eV) :     0.0000005994
SCF cycle converged after 33 iterations

Using DM_out to compute the final energy and forces
No. of atoms with KB's overlaping orbs in proc 0. Max # of overlaps:      29     142

siesta: E_KS(eV) =            -4146.2434

siesta: E_KS - E_eggbox =     -4146.2434
     spin moment: S , {S} =    0.00000  -0.00000   0.00000   0.00000

siesta: Atomic forces (eV/Ang):
     1   -1.922399   -2.035403   -0.000000
     2    0.006275    0.026877   -0.000000
     3    0.781171   -0.432446   -0.000000
     4    0.789209   -0.023669    0.000000
     5    0.055435   -0.094073   -0.000000
     6    1.839316    0.660650   -0.000000
     7    0.039506   -0.267625    0.000000
     8   -0.451176    0.308736    0.000000
     9   -0.214509    1.329864    0.000000
    10   -1.124770    0.378910    0.000000
    11   -0.028174   -0.020457    0.000000
    12   -0.403766   -0.185871    0.000000
    13    0.147040   -0.079624   -0.000000
    14    0.180932   -0.108026   -0.000000
    15   -1.405468   -0.960602   -0.000000
    16    0.037356    0.127336    0.000000
    17    1.093054   -1.170176   -0.000000
    18   -0.230894    0.210108    0.000000
    19   -0.194503   -1.350946    0.000000
    20   -0.010074   -0.451398    0.000000
    21   -0.277122    1.135365   -0.000000
    22   -2.264175   -0.869444   -0.000000
    23    0.268530    0.593474    0.000000
    24    0.146490   -0.005703   -0.000000
    25    0.128286    0.145998   -0.000000
    26   -0.285191   -0.179891    0.000000
    27    1.738497    1.333469    0.000000
    28    1.975020   -2.336800   -0.000000
    29    0.048181    0.131923   -0.000000
----------------------------------------
   Tot    0.462074   -4.189443    0.000000
----------------------------------------
   Max    2.336800
   Res    0.732096    sqrt( Sum f_i^2 / 3N )
----------------------------------------
   Max    2.336800    constrained

Stress tensor Voigt[x,y,z,yz,xz,xy] (kbar):        0.01        1.48       -0.08       -0.00       -0.00        1.25
(Free)E + p*V (eV/cell)    -4147.9762
Target enthalpy (eV/cell)    -4146.2434

mulliken: Atomic and Orbital Populations:

Species: O                   

Atom      Orb        Charge      Spin       Svec
----------------------------------------------------------------
    1  1 2s         1.74979   0.00000     -0.000   0.000  -0.000
    1  2 2s         0.06572   0.00000      0.000  -0.000   0.000
    1  3 2py        1.42304   0.00000      0.000  -0.000  -0.000
    1  4 2pz        1.54201   0.00000      0.000  -0.000  -0.000
    1  5 2px        1.62345   0.00000     -0.000  -0.000  -0.000
    1  6 2py        0.04026   0.00000     -0.000   0.000   0.000
    1  7 2pz       -0.00512   0.00000     -0.000   0.000   0.000
    1  8 2px        0.00610   0.00000      0.000   0.000   0.000
    1  9 3Pdxy      0.00712   0.00000      0.000  -0.000   0.000
    1 10 3Pdyz      0.00913   0.00000     -0.000   0.000  -0.000
    1 11 3Pdz2      0.00160   0.00000     -0.000   0.000   0.000
    1 12 3Pdxz      0.00038   0.00000     -0.000   0.000   0.000
    1 13 3Pdx2-y2   0.00697   0.00000     -0.000  -0.000   0.000
    1     Total     6.47046   0.00000      0.000  -0.000  -0.000

   28  1 2s         1.75207   0.00000      0.000   0.000   0.000
   28  2 2s         0.06144   0.00000     -0.000  -0.000   0.000
   28  3 2py        1.40652   0.00000     -0.000   0.000   0.000
   28  4 2pz        1.54082   0.00000      0.000   0.000   0.000
   28  5 2px        1.64476   0.00000     -0.000  -0.000   0.000
   28  6 2py        0.04296   0.00000     -0.000  -0.000   0.000
   28  7 2pz       -0.00470   0.00000      0.000  -0.000   0.000
   28  8 2px        0.01176   0.00000     -0.000   0.000   0.000
   28  9 3Pdxy      0.00650   0.00000     -0.000   0.000  -0.000
   28 10 3Pdyz      0.00984   0.00000     -0.000  -0.000  -0.000
   28 11 3Pdz2      0.00128   0.00000     -0.000   0.000   0.000
   28 12 3Pdxz     -0.00018   0.00000     -0.000  -0.000   0.000
   28 13 3Pdx2-y2   0.00778   0.00000      0.000  -0.000  -0.000
   28     Total     6.48084   0.00000      0.000   0.000   0.000

----------------------------------------------------------------
Total              12.95130   0.00000      0.000   0.000   0.000


Species: N                   

Atom      Orb        Charge      Spin       Svec
----------------------------------------------------------------
    2  1 2s         1.55169   0.00000     -0.000   0.000  -0.000
    2  2 2s         0.08406   0.00000      0.000  -0.000   0.000
    2  3 2py        1.04335   0.00000     -0.000  -0.000  -0.000
    2  4 2pz        1.22416   0.00000      0.000   0.000  -0.000
    2  5 2px        0.98923   0.00000      0.000   0.000  -0.000
    2  6 2py        0.18863   0.00000      0.000  -0.000   0.000
    2  7 2pz        0.05546   0.00000     -0.000  -0.000   0.000
    2  8 2px        0.19597   0.00000     -0.000  -0.000   0.000
    2  9 3Pdxy      0.00840   0.00000     -0.000  -0.000   0.000
    2 10 3Pdyz      0.01100   0.00000     -0.000   0.000   0.000
    2 11 3Pdz2      0.00196   0.00000     -0.000  -0.000   0.000
    2 12 3Pdxz      0.00757   0.00000     -0.000   0.000   0.000
    2 13 3Pdx2-y2   0.00910   0.00000      0.000   0.000  -0.000
    2     Total     5.37056   0.00000      0.000   0.000  -0.000

    3  1 2s         1.40130   0.00000      0.000  -0.000  -0.000
    3  2 2s         0.11610   0.00000     -0.000   0.000   0.000
    3  3 2py        0.94147   0.00000      0.000  -0.000  -0.000
    3  4 2pz        1.54324   0.00000      0.000  -0.000  -0.000
    3  5 2px        1.08163   0.00000      0.000   0.000  -0.000
    3  6 2py        0.24855   0.00000     -0.000   0.000   0.000
    3  7 2pz        0.00739   0.00000     -0.000   0.000   0.000
    3  8 2px        0.17862   0.00000     -0.000   0.000   0.000
    3  9 3Pdxy      0.00401   0.00000     -0.000  -0.000   0.000
    3 10 3Pdyz      0.00420   0.00000     -0.000  -0.000  -0.000
    3 11 3Pdz2      0.00075   0.00000      0.000   0.000   0.000
    3 12 3Pdxz      0.00279   0.00000     -0.000  -0.000  -0.000
    3 13 3Pdx2-y2   0.00286   0.00000      0.000  -0.000  -0.000
    3     Total     5.53292   0.00000      0.000  -0.000  -0.000

    4  1 2s         1.45970   0.00000     -0.000  -0.000  -0.000
    4  2 2s         0.11894   0.00000      0.000   0.000   0.000
    4  3 2py        1.13124   0.00000     -0.000  -0.000  -0.000
    4  4 2pz        1.29443   0.00000      0.000  -0.000  -0.000
    4  5 2px        0.82591   0.00000      0.000  -0.000  -0.000
    4  6 2py        0.14952   0.00000     -0.000   0.000   0.000
    4  7 2pz        0.05365   0.00000      0.000   0.000   0.000
    4  8 2px        0.29226   0.00000      0.000   0.000   0.000
    4  9 3Pdxy      0.00869   0.00000     -0.000   0.000   0.000
    4 10 3Pdyz      0.01045   0.00000     -0.000  -0.000   0.000
    4 11 3Pdz2      0.00126   0.00000     -0.000   0.000  -0.000
    4 12 3Pdxz      0.00500   0.00000     -0.000  -0.000  -0.000
    4 13 3Pdx2-y2   0.00797   0.00000     -0.000   0.000  -0.000
    4     Total     5.35903   0.00000      0.000  -0.000  -0.000

    5  1 2s         1.37618   0.00000     -0.000  -0.000  -0.000
    5  2 2s         0.12796   0.00000      0.000   0.000   0.000
    5  3 2py        1.02615   0.00000     -0.000  -0.000  -0.000
    5  4 2pz        1.50091   0.00000     -0.000  -0.000  -0.000
    5  5 2px        1.05992   0.00000     -0.000   0.000  -0.000
    5  6 2py        0.20377   0.00000     -0.000   0.000   0.000
    5  7 2pz        0.01335   0.00000      0.000  -0.000   0.000
    5  8 2px        0.20096   0.00000      0.000  -0.000   0.000
    5  9 3Pdxy      0.00393   0.00000      0.000  -0.000   0.000
    5 10 3Pdyz      0.00241   0.00000     -0.000  -0.000   0.000
    5 11 3Pdz2      0.00142   0.00000     -0.000  -0.000   0.000
    5 12 3Pdxz      0.00685   0.00000      0.000  -0.000   0.000
    5 13 3Pdx2-y2   0.00558   0.00000      0.000  -0.000   0.000
    5     Total     5.52939   0.00000     -0.000  -0.000  -0.000

    6  1 2s         1.26975   0.00000      0.000   0.000  -0.000
    6  2 2s         0.17902   0.00000     -0.000  -0.000   0.000
    6  3 2py        1.07659   0.00000     -0.000  -0.000  -0.000
    6  4 2pz        1.57533   0.00000     -0.000   0.000  -0.000
    6  5 2px        0.95497   0.00000     -0.000  -0.000  -0.000
    6  6 2py        0.18795   0.00000     -0.000  -0.000   0.000
    6  7 2pz        0.02977   0.00000      0.000  -0.000   0.000
    6  8 2px        0.25575   0.00000      0.000   0.000   0.000
    6  9 3Pdxy      0.00249   0.00000     -0.000  -0.000   0.000
    6 10 3Pdyz      0.00016   0.00000     -0.000   0.000  -0.000
    6 11 3Pdz2      0.00178   0.00000      0.000   0.000   0.000
    6 12 3Pdxz      0.00325   0.00000      0.000  -0.000  -0.000
    6 13 3Pdx2-y2   0.00395   0.00000      0.000   0.000   0.000
    6     Total     5.54077   0.00000     -0.000   0.000  -0.000

   21  1 2s         1.42474   0.00000      0.000   0.000   0.000
   21  2 2s         0.12783   0.00000     -0.000  -0.000   0.000
   21  3 2py        0.87094   0.00000      0.000   0.000  -0.000
   21  4 2pz        1.29398   0.00000      0.000   0.000   0.000
   21  5 2px        1.15606   0.00000     -0.000  -0.000  -0.000
   21  6 2py        0.27573   0.00000     -0.000  -0.000   0.000
   21  7 2pz        0.04901   0.00000     -0.000  -0.000   0.000
   21  8 2px        0.16345   0.00000      0.000   0.000   0.000
   21  9 3Pdxy      0.00652   0.00000     -0.000  -0.000  -0.000
   21 10 3Pdyz      0.00511   0.00000      0.000   0.000  -0.000
   21 11 3Pdz2      0.00017   0.00000     -0.000   0.000  -0.000
   21 12 3Pdxz      0.00575   0.00000     -0.000  -0.000  -0.000
   21 13 3Pdx2-y2   0.00562   0.00000     -0.000  -0.000  -0.000
   21     Total     5.38492   0.00000      0.000   0.000  -0.000

   22  1 2s         1.29461   0.00000      0.000  -0.000   0.000
   22  2 2s         0.16759   0.00000     -0.000   0.000   0.000
   22  3 2py        1.05639   0.00000      0.000   0.000  -0.000
   22  4 2pz        1.55902   0.00000     -0.000  -0.000  -0.000
   22  5 2px        0.98194   0.00000     -0.000   0.000   0.000
   22  6 2py        0.19652   0.00000     -0.000  -0.000   0.000
   22  7 2pz        0.02820   0.00000     -0.000   0.000   0.000
   22  8 2px        0.23508   0.00000      0.000  -0.000   0.000
   22  9 3Pdxy      0.00333   0.00000     -0.000  -0.000   0.000
   22 10 3Pdyz      0.00035   0.00000     -0.000   0.000  -0.000
   22 11 3Pdz2      0.00257   0.00000     -0.000   0.000   0.000
   22 12 3Pdxz      0.00314   0.00000      0.000  -0.000  -0.000
   22 13 3Pdx2-y2   0.00478   0.00000      0.000  -0.000  -0.000
   22     Total     5.53352   0.00000     -0.000  -0.000  -0.000

   23  1 2s         1.39732   0.00000     -0.000  -0.000   0.000
   23  2 2s         0.11785   0.00000      0.000   0.000  -0.000
   23  3 2py        1.00648   0.00000      0.000  -0.000  -0.000
   23  4 2pz        1.52419   0.00000      0.000   0.000  -0.000
   23  5 2px        1.06531   0.00000      0.000  -0.000  -0.000
   23  6 2py        0.21171   0.00000     -0.000   0.000   0.000
   23  7 2pz        0.00495   0.00000     -0.000  -0.000   0.000
   23  8 2px        0.19807   0.00000     -0.000   0.000   0.000
   23  9 3Pdxy      0.00529   0.00000      0.000  -0.000   0.000
   23 10 3Pdyz      0.00445   0.00000     -0.000  -0.000  -0.000
   23 11 3Pdz2      0.00058   0.00000      0.000  -0.000  -0.000
   23 12 3Pdxz      0.00243   0.00000      0.000   0.000  -0.000
   23 13 3Pdx2-y2   0.00137   0.00000     -0.000   0.000  -0.000
   23     Total     5.53999   0.00000      0.000   0.000  -0.000

----------------------------------------------------------------
Total              56.74240   0.00000      0.000  -0.000  -0.000


Species: Si                  

Atom      Orb        Charge      Spin       Svec
----------------------------------------------------------------
    7  1 3s         0.66755   0.00000     -0.000  -0.000   0.000
    7  2 3s         0.36516   0.00000      0.000   0.000   0.000
    7  3 3py        0.48755   0.00000     -0.000   0.000   0.000
    7  4 3pz        0.68926   0.00000     -0.000   0.000   0.000
    7  5 3px        0.12477   0.00000     -0.000  -0.000   0.000
    7  6 3py        0.26470   0.00000      0.000  -0.000   0.000
    7  7 3pz        0.25932   0.00000      0.000   0.000   0.000
    7  8 3px        0.43853   0.00000      0.000   0.000   0.000
    7  9 3Pdxy      0.24575   0.00000     -0.000  -0.000   0.000
    7 10 3Pdyz      0.02941   0.00000      0.000   0.000  -0.000
    7 11 3Pdz2      0.01177   0.00000      0.000  -0.000   0.000
    7 12 3Pdxz      0.14573   0.00000      0.000  -0.000  -0.000
    7 13 3Pdx2-y2   0.11294   0.00000     -0.000  -0.000  -0.000
    7     Total     3.84242   0.00000     -0.000   0.000   0.000

    8  1 3s         0.65699   0.00000     -0.000   0.000  -0.000
    8  2 3s         0.36845   0.00000      0.000  -0.000   0.000
    8  3 3py        0.38785   0.00000      0.000   0.000  -0.000
    8  4 3pz        0.52681   0.00000      0.000  -0.000  -0.000
    8  5 3px       -0.03104   0.00000     -0.000  -0.000  -0.000
    8  6 3py        0.30895   0.00000     -0.000   0.000   0.000
    8  7 3pz        0.20179   0.00000     -0.000  -0.000   0.000
    8  8 3px        0.51459   0.00000      0.000   0.000   0.000
    8  9 3Pdxy      0.24575   0.00000      0.000   0.000   0.000
    8 10 3Pdyz      0.11216   0.00000      0.000   0.000  -0.000
    8 11 3Pdz2      0.01458   0.00000      0.000   0.000   0.000
    8 12 3Pdxz      0.15307   0.00000      0.000   0.000  -0.000
    8 13 3Pdx2-y2   0.20014   0.00000      0.000  -0.000   0.000
    8     Total     3.66009   0.00000      0.000  -0.000  -0.000

    9  1 3s         0.60464   0.00000      0.000  -0.000   0.000
    9  2 3s         0.36637   0.00000     -0.000   0.000  -0.000
    9  3 3py        0.07557   0.00000     -0.000   0.000  -0.000
    9  4 3pz        0.48443   0.00000      0.000  -0.000  -0.000
    9  5 3px        0.37800   0.00000      0.000   0.000  -0.000
    9  6 3py        0.44714   0.00000      0.000  -0.000   0.000
    9  7 3pz        0.18781   0.00000     -0.000  -0.000  -0.000
    9  8 3px        0.27382   0.00000     -0.000  -0.000   0.000
    9  9 3Pdxy      0.31256   0.00000     -0.000   0.000  -0.000
    9 10 3Pdyz      0.18960   0.00000     -0.000  -0.000  -0.000
    9 11 3Pdz2      0.01644   0.00000      0.000   0.000  -0.000
    9 12 3Pdxz      0.09671   0.00000     -0.000   0.000  -0.000
    9 13 3Pdx2-y2   0.17146   0.00000      0.000  -0.000   0.000
    9     Total     3.60456   0.00000      0.000   0.000  -0.000

   10  1 3s         0.48365   0.00000     -0.000  -0.000   0.000
   10  2 3s         0.37728   0.00000      0.000   0.000   0.000
   10  3 3py        0.24221   0.00000      0.000   0.000   0.000
   10  4 3pz        0.40986   0.00000     -0.000   0.000   0.000
   10  5 3px        0.10128   0.00000      0.000  -0.000  -0.000
   10  6 3py        0.32765   0.00000     -0.000  -0.000   0.000
   10  7 3pz        0.22222   0.00000     -0.000   0.000   0.000
   10  8 3px        0.42823   0.00000     -0.000   0.000   0.000
   10  9 3Pdxy      0.16950   0.00000      0.000  -0.000  -0.000
   10 10 3Pdyz      0.14059   0.00000     -0.000   0.000   0.000
   10 11 3Pdz2      0.01044   0.00000      0.000  -0.000   0.000
   10 12 3Pdxz      0.17449   0.00000     -0.000   0.000   0.000
   10 13 3Pdx2-y2   0.31039   0.00000     -0.000   0.000  -0.000
   10     Total     3.39778   0.00000     -0.000   0.000   0.000

   11  1 3s         0.55267   0.00000     -0.000  -0.000   0.000
   11  2 3s         0.38548   0.00000     -0.000   0.000   0.000
   11  3 3py        0.32150   0.00000      0.000  -0.000   0.000
   11  4 3pz        0.53922   0.00000     -0.000   0.000   0.000
   11  5 3px        0.12360   0.00000     -0.000   0.000   0.000
   11  6 3py        0.28695   0.00000      0.000  -0.000   0.000
   11  7 3pz        0.17779   0.00000     -0.000  -0.000   0.000
   11  8 3px        0.44695   0.00000      0.000   0.000   0.000
   11  9 3Pdxy      0.22526   0.00000      0.000   0.000   0.000
   11 10 3Pdyz      0.12614   0.00000     -0.000  -0.000   0.000
   11 11 3Pdz2      0.00955   0.00000      0.000   0.000   0.000
   11 12 3Pdxz      0.05261   0.00000      0.000   0.000   0.000
   11 13 3Pdx2-y2   0.20365   0.00000     -0.000  -0.000   0.000
   11     Total     3.45136   0.00000     -0.000  -0.000   0.000

   17  1 3s         0.63985   0.00000      0.000   0.000   0.000
   17  2 3s         0.36039   0.00000      0.000  -0.000  -0.000
   17  3 3py        0.22846   0.00000     -0.000  -0.000   0.000
   17  4 3pz        0.42460   0.00000      0.000  -0.000   0.000
   17  5 3px        0.24498   0.00000      0.000   0.000   0.000
   17  6 3py        0.38768   0.00000     -0.000  -0.000  -0.000
   17  7 3pz        0.21093   0.00000     -0.000   0.000   0.000
   17  8 3px        0.36805   0.00000     -0.000  -0.000  -0.000
   17  9 3Pdxy      0.30228   0.00000      0.000  -0.000  -0.000
   17 10 3Pdyz      0.14328   0.00000     -0.000   0.000   0.000
   17 11 3Pdz2      0.00912   0.00000     -0.000   0.000   0.000
   17 12 3Pdxz      0.14322   0.00000     -0.000  -0.000   0.000
   17 13 3Pdx2-y2   0.16320   0.00000      0.000  -0.000  -0.000
   17     Total     3.62604   0.00000      0.000   0.000   0.000

   18  1 3s         0.74449   0.00000     -0.000   0.000   0.000
   18  2 3s         0.33926   0.00000      0.000  -0.000   0.000
   18  3 3py        0.08042   0.00000      0.000  -0.000   0.000
   18  4 3pz        0.82396   0.00000     -0.000  -0.000   0.000
   18  5 3px        0.55533   0.00000     -0.000  -0.000   0.000
   18  6 3py        0.51736   0.00000     -0.000   0.000   0.000
   18  7 3pz        0.19741   0.00000      0.000  -0.000   0.000
   18  8 3px        0.24989   0.00000      0.000   0.000   0.000
   18  9 3Pdxy      0.10341   0.00000     -0.000   0.000  -0.000
   18 10 3Pdyz      0.02738   0.00000      0.000   0.000  -0.000
   18 11 3Pdz2      0.00875   0.00000     -0.000   0.000  -0.000
   18 12 3Pdxz      0.03019   0.00000     -0.000   0.000  -0.000
   18 13 3Pdx2-y2   0.11326   0.00000      0.000   0.000   0.000
   18     Total     3.79112   0.00000     -0.000  -0.000   0.000

   19  1 3s         0.45838   0.00000     -0.000   0.000  -0.000
   19  2 3s         0.36566   0.00000      0.000  -0.000  -0.000
   19  3 3py        0.08239   0.00000      0.000   0.000   0.000
   19  4 3pz        0.42916   0.00000     -0.000   0.000  -0.000
   19  5 3px        0.35456   0.00000      0.000  -0.000   0.000
   19  6 3py        0.47040   0.00000     -0.000  -0.000  -0.000
   19  7 3pz        0.18347   0.00000      0.000  -0.000  -0.000
   19  8 3px        0.23932   0.00000     -0.000   0.000  -0.000
   19  9 3Pdxy      0.34083   0.00000     -0.000   0.000  -0.000
   19 10 3Pdyz      0.18806   0.00000     -0.000  -0.000  -0.000
   19 11 3Pdz2      0.01599   0.00000     -0.000   0.000  -0.000
   19 12 3Pdxz      0.08705   0.00000      0.000   0.000   0.000
   19 13 3Pdx2-y2   0.23660   0.00000     -0.000  -0.000  -0.000
   19     Total     3.45186   0.00000     -0.000   0.000  -0.000

   20  1 3s         0.67325   0.00000      0.000  -0.000  -0.000
   20  2 3s         0.37812   0.00000     -0.000   0.000   0.000
   20  3 3py        0.33147   0.00000     -0.000   0.000  -0.000
   20  4 3pz        0.58892   0.00000     -0.000   0.000  -0.000
   20  5 3px        0.13796   0.00000     -0.000  -0.000  -0.000
   20  6 3py        0.29227   0.00000      0.000  -0.000   0.000
   20  7 3pz        0.16397   0.00000      0.000   0.000  -0.000
   20  8 3px        0.49980   0.00000      0.000   0.000   0.000
   20  9 3Pdxy      0.10040   0.00000      0.000  -0.000  -0.000
   20 10 3Pdyz      0.13397   0.00000     -0.000   0.000  -0.000
   20 11 3Pdz2      0.00735   0.00000      0.000  -0.000   0.000
   20 12 3Pdxz      0.02700   0.00000     -0.000   0.000   0.000
   20 13 3Pdx2-y2   0.17190   0.00000      0.000   0.000   0.000
   20     Total     3.50639   0.00000     -0.000   0.000  -0.000

----------------------------------------------------------------
Total              89.07402   0.00000     -0.000  -0.000   0.000


Species: H                   

Atom      Orb        Charge      Spin       Svec
----------------------------------------------------------------
   12  1 1s         0.49803   0.00000     -0.000   0.000   0.000
   12  2 1s         0.18163   0.00000      0.000  -0.000   0.000
   12  3 2Ppy       0.02919   0.00000      0.000   0.000  -0.000
   12  4 2Ppz       0.03442   0.00000     -0.000  -0.000   0.000
   12  5 2Ppx       0.02283   0.00000      0.000   0.000  -0.000
   12     Total     0.76611   0.00000     -0.000   0.000   0.000

   13  1 1s         1.01842   0.00000      0.000   0.000  -0.000
   13  2 1s         0.09573   0.00000     -0.000   0.000   0.000
   13  3 2Ppy       0.01808   0.00000     -0.000  -0.000  -0.000
   13  4 2Ppz       0.02002   0.00000      0.000  -0.000   0.000
   13  5 2Ppx       0.03518   0.00000     -0.000   0.000   0.000
   13     Total     1.18744   0.00000      0.000   0.000  -0.000

   14  1 1s         0.46004   0.00000      0.000   0.000   0.000
   14  2 1s         0.19996   0.00000     -0.000   0.000   0.000
   14  3 2Ppy       0.01787   0.00000      0.000   0.000  -0.000
   14  4 2Ppz       0.04546   0.00000      0.000  -0.000  -0.000
   14  5 2Ppx       0.01716   0.00000      0.000   0.000   0.000
   14     Total     0.74049   0.00000      0.000   0.000   0.000

   15  1 1s         0.50119   0.00000      0.000   0.000  -0.000
   15  2 1s         0.17811   0.00000      0.000  -0.000   0.000
   15  3 2Ppy       0.00523   0.00000      0.000   0.000  -0.000
   15  4 2Ppz       0.04348   0.00000      0.000  -0.000  -0.000
   15  5 2Ppx       0.02805   0.00000      0.000   0.000  -0.000
   15     Total     0.75605   0.00000      0.000  -0.000  -0.000

   16  1 1s         0.51004   0.00000     -0.000  -0.000   0.000
   16  2 1s         0.18734   0.00000      0.000  -0.000   0.000
   16  3 2Ppy       0.02980   0.00000      0.000   0.000   0.000
   16  4 2Ppz       0.03982   0.00000      0.000  -0.000  -0.000
   16  5 2Ppx       0.02359   0.00000     -0.000   0.000   0.000
   16     Total     0.79058   0.00000     -0.000  -0.000   0.000

   24  1 1s         1.06340   0.00000     -0.000   0.000  -0.000
   24  2 1s         0.07429   0.00000      0.000  -0.000   0.000
   24  3 2Ppy       0.03205   0.00000      0.000   0.000   0.000
   24  4 2Ppz       0.03079   0.00000      0.000   0.000   0.000
   24  5 2Ppx       0.01729   0.00000     -0.000   0.000  -0.000
   24     Total     1.21781   0.00000     -0.000   0.000  -0.000

   25  1 1s         1.04284   0.00000      0.000  -0.000  -0.000
   25  2 1s         0.08676   0.00000     -0.000   0.000  -0.000
   25  3 2Ppy       0.01227   0.00000     -0.000  -0.000  -0.000
   25  4 2Ppz       0.01843   0.00000     -0.000  -0.000  -0.000
   25  5 2Ppx       0.03569   0.00000      0.000   0.000   0.000
   25     Total     1.19601   0.00000      0.000  -0.000  -0.000

   26  1 1s         0.47558   0.00000     -0.000   0.000   0.000
   26  2 1s         0.19600   0.00000      0.000   0.000   0.000
   26  3 2Ppy       0.02096   0.00000     -0.000   0.000   0.000
   26  4 2Ppz       0.04927   0.00000      0.000   0.000  -0.000
   26  5 2Ppx       0.01613   0.00000      0.000   0.000  -0.000
   26     Total     0.75793   0.00000     -0.000   0.000   0.000

   27  1 1s         0.51569   0.00000      0.000   0.000  -0.000
   27  2 1s         0.16862   0.00000     -0.000  -0.000   0.000
   27  3 2Ppy       0.00675   0.00000     -0.000  -0.000  -0.000
   27  4 2Ppz       0.03839   0.00000      0.000   0.000  -0.000
   27  5 2Ppx       0.02851   0.00000     -0.000   0.000  -0.000
   27     Total     0.75796   0.00000      0.000   0.000  -0.000

   29  1 1s         0.48436   0.00000     -0.000   0.000   0.000
   29  2 1s         0.18781   0.00000      0.000  -0.000   0.000
   29  3 2Ppy       0.02512   0.00000     -0.000  -0.000  -0.000
   29  4 2Ppz       0.03416   0.00000      0.000  -0.000   0.000
   29  5 2Ppx       0.02415   0.00000     -0.000   0.000   0.000
   29     Total     0.75560   0.00000     -0.000  -0.000   0.000

----------------------------------------------------------------
Total              98.00000   0.00000     -0.000   0.000   0.000


siesta: Eigenvalues (eV):
ik =     1
  -21.9837  -21.9837  -21.7195  -21.7195  -21.6053  -21.6053  -21.6022  -21.6022  -21.2600  -21.2600
  -20.9505  -20.9505  -20.8877  -20.8877  -19.8736  -19.8736  -19.3857  -19.3857  -19.3601  -19.3601
  -14.7255  -14.7255  -13.9284  -13.9284  -13.3353  -13.3353  -13.2517  -13.2517  -13.1327  -13.1327
  -12.9498  -12.9498  -12.8880  -12.8880  -12.5070  -12.5070  -12.3914  -12.3914  -12.0052  -12.0052
  -11.5128  -11.5128  -10.7980  -10.7980  -10.7843  -10.7843  -10.7492  -10.7492  -10.0653  -10.0653
   -9.5150   -9.5150   -9.2808   -9.2808   -8.8898   -8.8898   -8.7286   -8.7286   -8.7058   -8.7058
   -8.6490   -8.6490   -8.3680   -8.3680   -8.2257   -8.2257   -7.8364   -7.8364   -7.6759   -7.6759
   -7.4937   -7.4937   -7.3919   -7.3919   -7.3128   -7.3128   -6.9438   -6.9438   -6.7115   -6.7115
   -6.5465   -6.5465   -6.4655   -6.4655   -6.1257   -6.1257   -6.0996   -6.0996   -6.0434   -6.0434
   -5.6435   -5.6435   -5.6331   -5.6331   -5.4094   -5.4094   -4.3373   -4.3373   -3.2199   -3.2199
   -2.3416   -2.3416   -2.2787   -2.2787   -2.2777   -2.2777   -1.9239   -1.9239   -1.8907   -1.8907
   -1.8203   -1.8203   -1.7490   -1.7490   -1.5954   -1.5954   -1.5510   -1.5510   -0.9803   -0.9803
   -0.9476   -0.9476   -0.8625   -0.8625   -0.4165   -0.4165   -0.1319   -0.1319   -0.0010   -0.0010
    0.2230    0.2230    0.4054    0.4054    0.4993    0.4993    0.7246    0.7246    0.7257    0.7257
    0.9554    0.9554    1.1743    1.1743    1.3105    1.3105    1.3595    1.3595    1.4651    1.4651
    1.6452    1.6452    1.8139    1.8139    1.9049    1.9049    2.3110    2.3110    2.7168    2.7168
    2.7213    2.7213    2.8384    2.8384    2.9680    2.9680    3.1413    3.1413    3.3278    3.3278
    3.3505    3.3505    3.7445    3.7445    3.8191    3.8191    4.1036    4.1036    4.2545    4.2545
    4.4382    4.4382    4.5460    4.5460    4.5643    4.5643    4.6029    4.6029    4.8189    4.8189
    4.9309    4.9309    4.9691    4.9691    5.2100    5.2100    5.5226    5.5226    5.6327    5.6327
    5.6819    5.6819    5.8189    5.8189    5.8261    5.8261    5.9113    5.9113    5.9621    5.9621
    6.1879    6.1879    6.3051    6.3051    6.6572    6.6572    6.6981    6.6981    6.8343    6.8343
    7.0645    7.0645    7.1712    7.1712    7.3605    7.3605    7.4830    7.4830    7.7230    7.7230
    7.8226    7.8226    8.0301    8.0301    8.1105    8.1105    8.2077    8.2077    8.2898    8.2898
    8.4712    8.4712    8.6570    8.6570    8.7294    8.7294    8.9509    8.9509    9.1971    9.1971
    9.2072    9.2072    9.2299    9.2299    9.7738    9.7738    9.7930    9.7930    9.8459    9.8459
    9.9803    9.9803   10.1817   10.1817   10.4094   10.4094   10.6713   10.6713   10.7926   10.7926
   10.8831   10.8831   11.0602   11.0602   11.2341   11.2341   11.6853   11.6853   11.7937   11.7937
   11.8509   11.8509   11.9139   11.9139   12.1587   12.1587   12.3452   12.3452   12.5173   12.5173
   12.7190   12.7190   12.7630   12.7630   13.3556   13.3556   13.5146   13.5146   13.7410   13.7410
   13.7480   13.7480   14.0681   14.0681   14.2017   14.2017   14.3974   14.3974   14.7998   14.7998
   14.8861   14.8861   15.3513   15.3513   15.9685   15.9685   16.3935   16.3935   16.6884   16.6884
   16.9251   16.9251   17.3944   17.3944   17.6940   17.6940   18.1841   18.1841   18.3063   18.3063
   18.5605   18.5605   19.1222   19.1222   19.3128   19.3128   19.9152   19.9152   20.2646   20.2646
   20.9048   20.9048   21.3291   21.3291   21.7744   21.7744   22.2006   22.2006   22.4024   22.4024
   23.1075   23.1075   23.2550   23.2550   23.7442   23.7442   23.8251   23.8251   23.8313   23.8313
   24.8119   24.8119   25.1850   25.1850   26.0243   26.0243   26.7548   26.7548   27.3629   27.3629
   28.3181   28.3181   29.0632   29.0632   29.1125   29.1125   29.4792   29.4792   29.5716   29.5716
   30.0194   30.0194   30.0929   30.0929   30.2282   30.2282   30.5779   30.5779   30.7609   30.7609
   31.0050   31.0050   31.1967   31.1967   31.4900   31.4900   31.6092   31.6092   32.2225   32.2225
   32.6953   32.6953   33.8253   33.8253   34.4948   34.4948   34.7425   34.7425   34.9822   34.9822
   34.9878   34.9878   35.1747   35.1747   35.3550   35.3550   35.6363   35.6363   35.9189   35.9189
   36.7525   36.7525   36.7698   36.7698   37.0026   37.0026   37.1720   37.1720   37.4921   37.4921
   38.1482   38.1482   38.2623   38.2623   39.3718   39.3718   39.4401   39.4401   39.8970   39.8970
   40.2183   40.2183   40.5029   40.5029   40.6218   40.6218   40.6511   40.6511   40.9521   40.9521
   41.0266   41.0266   41.4585   41.4585   42.4058   42.4058   42.6074   42.6074   43.0283   43.0283
   43.1260   43.1260   43.7808   43.7808   43.8711   43.8711   44.0147   44.0147   44.2425   44.2425
   44.6570   44.6570   44.7266   44.7266   45.0231   45.0231   45.3244   45.3244   46.1137   46.1137
   46.3443   46.3443   46.8175   46.8175   47.1683   47.1683   48.6455   48.6455   48.9622   48.9622
   49.4310   49.4310   50.3363   50.3363   50.4774   50.4774   50.7348   50.7348   50.8948   50.8948
   51.3460   51.3460   51.6041   51.6041   52.6805   52.6805   52.7014   52.7014   54.1786   54.1786
   54.2540   54.2540   54.6172   54.6172   54.6820   54.6820   55.8110   55.8110   55.8457   55.8457
   55.8674   55.8674   56.0117   56.0117   56.5151   56.5151   57.8342   57.8342   58.2015   58.2015
   58.6519   58.6519   60.1192   60.1192   60.5108   60.5108   60.5284   60.5284   61.1272   61.1272
   61.8365   61.8365   61.9690   61.9690   62.1999   62.1999   64.4589   64.4589   66.4729   66.4729
   67.1234   67.1234   67.1704   67.1704   68.2379   68.2379   68.7052   68.7052   70.8186   70.8186
   74.0291   74.0291   79.9893   79.9893   91.0285   91.0285   91.9269   91.9269   93.3366   93.3366
   98.3666   98.3666   98.7906   98.7906   99.8153   99.8153  103.3312  103.3312  103.7344  103.7344
  110.0698  110.0698  111.6019  111.6019  123.6062  123.6062  125.7166  125.7166  129.9242  129.9242
  134.9986  134.9986  138.2569  138.2569
siesta: Fermi energy =      -3.779806 eV

siesta: Program's energy decomposition (eV):
siesta: Ebs     =     -1135.371044
siesta: Eions   =      3585.165840
siesta: Ena     =       382.019161
siesta: Ekin    =      2902.984058
siesta: Enl     =     -2787.765498
siesta: Eso     =        -0.004283
siesta: Edftu   =         0.000000
siesta: DEna    =        46.990377
siesta: DUscf   =        14.353438
siesta: DUext   =         0.000000
siesta: Exc     =     -1119.654805
siesta: eta*DQ  =         0.000000
siesta: Emadel  =         0.000000
siesta: Emeta   =         0.000000
siesta: Emolmec =         0.000000
siesta: Ekinion =         0.000000
siesta: Eharris =     -4146.243391
siesta: Etot    =     -4146.243391
siesta: FreeEng =     -4146.243391

siesta: Final energy (eV):
siesta:  Band Struct. =   -1135.371044
siesta:       Kinetic =    2902.984058
siesta:       Hartree =    8129.960467
siesta:       Edftu   =       0.000000
siesta:       Eso     =      -0.004283
siesta:    Ext. field =       0.000000
siesta:   Exch.-corr. =   -1119.654805
siesta:  Ion-electron =  -18844.834525
siesta:       Ion-ion =    4785.305697
siesta:       Ekinion =       0.000000
siesta:         Total =   -4146.243391
siesta:         Fermi =      -3.779806

siesta: Atomic forces (eV/Ang):
siesta:      1   -1.922399   -2.035403   -0.000000
siesta:      2    0.006275    0.026877   -0.000000
siesta:      3    0.781171   -0.432446   -0.000000
siesta:      4    0.789209   -0.023669    0.000000
siesta:      5    0.055435   -0.094073   -0.000000
siesta:      6    1.839316    0.660650   -0.000000
siesta:      7    0.039506   -0.267625    0.000000
siesta:      8   -0.451176    0.308736    0.000000
siesta:      9   -0.214509    1.329864    0.000000
siesta:     10   -1.124770    0.378910    0.000000
siesta:     11   -0.028174   -0.020457    0.000000
siesta:     12   -0.403766   -0.185871    0.000000
siesta:     13    0.147040   -0.079624   -0.000000
siesta:     14    0.180932   -0.108026   -0.000000
siesta:     15   -1.405468   -0.960602   -0.000000
siesta:     16    0.037356    0.127336    0.000000
siesta:     17    1.093054   -1.170176   -0.000000
siesta:     18   -0.230894    0.210108    0.000000
siesta:     19   -0.194503   -1.350946    0.000000
siesta:     20   -0.010074   -0.451398    0.000000
siesta:     21   -0.277122    1.135365   -0.000000
siesta:     22   -2.264175   -0.869444   -0.000000
siesta:     23    0.268530    0.593474    0.000000
siesta:     24    0.146490   -0.005703   -0.000000
siesta:     25    0.128286    0.145998   -0.000000
siesta:     26   -0.285191   -0.179891    0.000000
siesta:     27    1.738497    1.333469    0.000000
siesta:     28    1.975020   -2.336800   -0.000000
siesta:     29    0.048181    0.131923   -0.000000
siesta: ----------------------------------------
siesta:    Tot    0.462074   -4.189443    0.000000

siesta: Stress tensor (static) (eV/Ang**3):
siesta:     0.000006    0.000783   -0.000000
siesta:     0.000783    0.000924   -0.000000
siesta:    -0.000000   -0.000000   -0.000051

siesta: Cell volume =       5913.469377 Ang**3

siesta: Pressure (static):
siesta:                Solid            Molecule  Units
siesta:          -0.00000319         -0.00001041  Ry/Bohr**3
siesta:          -0.00029303         -0.00095618  eV/Ang**3
siesta:          -0.46948566         -1.53199064  kBar
(Free)E+ p_basis*V_orbitals  =       -4126.392974
(Free)Eharris+ p_basis*V_orbitals  =       -4126.392974
     spin moment: S , {S} =    0.00000  -0.00000   0.00000   0.00000

siesta: Electric dipole (a.u.)  =    1.516374   -0.005358   -0.000000
siesta: Electric dipole (Debye) =    3.854240   -0.013618   -0.000000

cite: Please see "GC.bib" for an exhaustive BiBTeX file.
cite: Please clearly indicate Siesta version in published work: v4.1.5-1-g384057250
cite: This calculation has made use of the following articles
cite: which are encouraged to be cited in a published work.
        Primary SIESTA paper
          DOI: www.doi.org/10.1088/0953-8984/14/11/302
        Spin-orbit coupling (on-site approximation)
          DOI: www.doi.org/10.1088/0953-8984/19/19/489001


WARNING: alloc-realloc-dealloc name mismatch
         Name: atomlist isa
         Size:              -116. Bytes
         Node:     0
         Subsequent mismatches will not be reported
>> End of run:  28-JUN-2023  16:36:49
Job completed
