Executable      : siesta-5
Version         : 5.1-MaX-41-g6ad11e234
Architecture    : x86_64
Compiler version: GNU-12.2.0
Compiler flags  : -DSIESTA__METIS -fallow-argument-mismatch -O3 -march=native
Parallelisations: MPI, OpenMP
* OpenMP version: 201511
NetCDF support
NetCDF-4 support
NetCDF-4 MPI-IO support
METIS ordering support
Lua support
Native ELPA support
DFT-D3 support
Wannier90 wrapper support

Runtime information:
* Directory : /home/cdelv/Si_DNA2/Si/Bases/Cytosine_GGA_OP
* Running on 32 nodes in parallel.
* Running 1 OpenMP threads.
* Running 32 processes.
* OpenMP NOT bound (please bind threads!)
* OpenMP runtime schedule DYNAMIC, chunks 1
** Changing chunk size:
** OpenMP runtime schedule DYNAMIC, chunks 32
** OpenMP (trying to FORCE nesting)
* OpenMP allows 255 nested levels.
>> Start of run:  11-OCT-2024  20:51:31

                           *********************** 
                           *  WELCOME TO SIESTA  * 
                           *********************** 

 NOTE: Siesta V5 introduces some new defaults for basis-set generation
 NOTE: which might lead to slightly different numerical results.
 NOTE: Please see the manual for full details and compatibility measures.


reinit: Reading from standard input
reinit: Dumping input in INPUT_TMP.21310
************************** Dump of input data file ****************************
# mpirun -np 8 siesta-5 < Cytosine.fdf > Cytosine.out
SystemLabel      Cytosine
NumberOfAtoms    13
NumberOfSpecies  4
%block ChemicalSpeciesLabel
    1    1  H ../../../Pseudos/PBE/H/H.psf
    2    7  N ../../../Pseudos/PBE/N/N.psf
    3    14 Si ../../../Pseudos/PBE/Si/Si.psf
    4    8  O ../../../Pseudos/PBE/O/O.psf
%endblock ChemicalSpeciesLabel
###################################
# This overrides Defaults.fdf conf
###################################
MD.Steps                    1000
%block Geometry.Constraints
    atom all 0.0 0.0 1.0 # constrain along z Cartesian vector
    atom [5]
%endblock
AtomicCoordinatesFormat NotScaledCartesianAng
%block AtomicCoordinatesAndAtomicSpecies
    0.99446407    3.49874632    0.00000000   1       1  H
    0.25990692    2.73738523    0.00000000   2       2  N
   -1.43750707    3.23076129    0.00000000   3       3  Si
   -1.56659198    4.73960210    0.00000000   1       4  H
   -2.96939626    1.65863702    0.00000000   3       5  Si
   -4.44968551    1.87970321    0.00000000   1       6  H
   -1.74033533   -0.22942544    0.00000000   3       7  Si
   -2.49605866   -1.81159486    0.00000000   2       8  N
   -1.89727100   -2.68272681    0.00000000   1       9  H
   -3.53931086   -1.96886349    0.00000000   1      10  H
   -0.04887461   -0.24279353    0.00000000   2      11  N
    1.04567892    1.08882330    0.00000000   3      12  Si
    2.63459195    1.16277696    0.00000000   4      13  O
%endblock AtomicCoordinatesAndAtomicSpecies
%include ../../../Defaults.fdf
************************** End of input data file *****************************

reinit: -----------------------------------------------------------------------
reinit: System Name: 
reinit: -----------------------------------------------------------------------
reinit: System Label: Cytosine
reinit: -----------------------------------------------------------------------

NOTE on units for spin output: 
{S} is the spin magnetic moment, in units of the Bohr magneton,
assuming a g-factor for the electron spin of exactly 2.
The spin magnetic moment is then numerically equal to the charge inbalance,
in units of electrons, between the spin-up and -down channels.


initatom: Reading input for the pseudopotentials and atomic orbitals ----------
Species number:   1 Atomic number:    1 Label: H
Species number:   2 Atomic number:    7 Label: N
Species number:   3 Atomic number:   14 Label: Si
Species number:   4 Atomic number:    8 Label: O

Ground state valence configuration (from tables):   1s01  2p00  3d00  4f00
Ground state valence configuration (from tables):   2s02  2p03  3d00  4f00
Ground state valence configuration (from tables):   3s02  3p02  3d00  4f00
Ground state valence configuration (from tables):   2s02  2p04  3d00  4f00

---- Processing specs for species: H
Reading pseudopotential information in formatted form from:
  ../../../Pseudos/PBE/H/H.psf

---- Processing specs for species: N
Reading pseudopotential information in formatted form from:
  ../../../Pseudos/PBE/N/N.psf

---- Processing specs for species: Si
Reading pseudopotential information in formatted form from:
  ../../../Pseudos/PBE/Si/Si.psf

---- Processing specs for species: O
Reading pseudopotential information in formatted form from:
  ../../../Pseudos/PBE/O/O.psf

---- Pseudopotential check for H 

Pseudopotential generated from a fully relativistic atomic calculation
There are spin-orbit semi-local pseudopotentials available

Pseudized shells:
1s( 1.00) rc: 0.05
Valence configuration for ps generation: (assumed as above)

---- Pseudopotential check for N 

Pseudopotential generated from a fully relativistic atomic calculation
There are spin-orbit semi-local pseudopotentials available

Pseudized shells:
2s( 2.00) rc: 1.02
2p( 3.00) rc: 1.36
3d( 0.00) rc: 3.29
Valence configuration for ps generation: (assumed as above)

---- Pseudopotential check for Si

Pseudopotential generated from a fully relativistic atomic calculation
There are spin-orbit semi-local pseudopotentials available

Pseudized shells:
3s( 2.00) rc: 1.67
3p( 2.00) rc: 2.22
3d( 0.00) rc: 3.44
Valence configuration for ps generation: (assumed as above)

---- Pseudopotential check for O 

Pseudopotential generated from a fully relativistic atomic calculation
There are spin-orbit semi-local pseudopotentials available

Pseudized shells:
2s( 2.00) rc: 1.05
2p( 4.00) rc: 1.02
Valence configuration for ps generation: (assumed as above)
For H, standard SIESTA heuristics set lmxkb to 2
 (one more than the basis l, including polarization orbitals).
Use PS.lmax or PS.KBprojectors blocks to override.
For N, standard SIESTA heuristics set lmxkb to 3
 (one more than the basis l, including polarization orbitals).
Use PS.lmax or PS.KBprojectors blocks to override.
For Si, standard SIESTA heuristics set lmxkb to 3
 (one more than the basis l, including polarization orbitals).
Use PS.lmax or PS.KBprojectors blocks to override.
For O, standard SIESTA heuristics set lmxkb to 3
 (one more than the basis l, including polarization orbitals).
Use PS.lmax or PS.KBprojectors blocks to override.
../../../Pseudos/PBE/H/H.psf pseudopotential only contains V_ls up to l=0 -- lmxkb reset.
../../../Pseudos/PBE/N/N.psf pseudopotential only contains V_ls up to l=2 -- lmxkb reset.
../../../Pseudos/PBE/Si/Si.psf pseudopotential only contains V_ls up to l=2 -- lmxkb reset.
../../../Pseudos/PBE/O/O.psf pseudopotential only contains V_ls up to l=1 -- lmxkb reset.

<basis_specs>
===============================================================================
H                    Z=   1    Mass=  1.0080        Charge= 0.17977+309
Lmxo=1 Lmxkb= 0    BasisType=split      Semic=F
L=0  Nsemic=0  Cnfigmx=1
          i=1  nzeta=2  polorb=1  (1s)  (to be polarized perturbatively)
            splnorm:   0.62000    
               vcte:    40.000    
               rinn:  -0.90000    
               qcoe:    0.0000    
               qyuk:    0.0000    
               qwid:   0.10000E-01
                rcs:    0.0000      0.0000    
            lambdas:    1.0000      1.0000    
L=1  Nsemic=0  Cnfigmx=2
          i=1  nzeta=0  polorb=0  (2p)  (perturbative polarization orbital) (from 1s)
===============================================================================
</basis_specs>

Filter: Requested cutoff:  290.000000 Ry
Using PAO.SplitTailNorm
atom: Called for H                     (Z =   1)
NOTE: H pseudopotential has channels up to l= 0
NOTE: PAOs with higher l will be generated with V_local
Maximum radius (at nrval) set to   50.00000 8518

read_vps: Pseudopotential generation method:
read_vps: ATM4.2.7  Troullier-Martins                       
Valence charge in pseudo generation:    1.00000

xc_check: Exchange-correlation functional:
xc_check: GGA Perdew, Burke & Ernzerhof 1996
V l=0 = -2*Zval/r beyond r=  0.0513
All V_l potentials equal beyond r=  0.0513
This should be close to max(r_c) in ps generation
All pots = -2*Zval/r beyond r=  0.0513
Using small-core scheme (local charge) for Vlocal

VLOCAL_FROM_CHLOCAL: 99.0% of the norm of Vloc inside  16462.511 Ry
VLOCAL_FROM_CHLOCAL: 99.9% of the norm of Vloc inside  37518.368 Ry
atom: Maximum radius for chlocal:    0.06330
atom: Maximum radius for r*vlocal+2*Zval:    0.05437

KBgen: Kleinman-Bylander projectors: 
GHOST: No ghost state for L =  0
KBproj: WARNING: Rc(0)=      0.3107
KBproj: WARNING: Cut off radius for the KB projector too small
   l= 0   rc=  0.310725   el= -0.477181   Ekb=-33.944693   kbcos= -0.005118

KBgen: Total number of Kleinman-Bylander projectors:   1
atom: -------------------------------------------------------------------------

atom: SANKEY-TYPE ORBITALS:
atom: Selected multiple-zeta basis: split     

SPLIT: Orbitals with angular momentum L= 0

SPLIT: Basis orbitals for state 1s

SPLIT: PAO cut-off radius determined from an
SPLIT: energy shift=  0.005000 Ry
Split based on tail norm

   izeta = 1
                 lambda =    1.000000
                     rc =    5.772464
                 energy =   -0.471502
                kinetic =    0.941609
    potential(screened) =   -1.413111
       potential(ionic) =   -1.936120
PAO Filter: Cutoff used:  142.10 Ry
PAO Filter: diagnostic kin energy tol:    0.003000 Ry
PAO Filter: Nominal cutoff (before filtering):  107.24 Ry
Filter:    Number of eigenfunctions  of the
           filtering kernel (total, used)= 55 20

   izeta = 2
                 rmatch =    1.661681
              splitnorm =    0.620000
                 energy =    1.741023
                kinetic =    5.838304
    potential(screened) =   -4.097281
       potential(ionic) =   -4.634491
PAO Filter: Cutoff used:  142.10 Ry
PAO Filter: diagnostic kin energy tol:    0.003000 Ry
PAO Filter: Nominal cutoff (before filtering):  829.47 Ry
Filter:    Number of eigenfunctions  of the
           filtering kernel (total, used)= 23  5
*Note: V_local used for l= 1

** Using vlocal for PAOs with L= 1

POLgen: Perturbative polarization orbital with L=  1

POLgen: Polarization orbital for state 1s
*Note: V_local used for lpol= 1

** Using vlocal for PAOs with L= 1
Split based on tail norm

   izeta = 1
                     rc =    5.772464
                 energy =    0.606793
                kinetic =    1.227790
    potential(screened) =   -0.620997
       potential(ionic) =   -1.099517
PAO Filter: diagnostic kin energy tol:    0.003000 Ry
PAO Filter: Nominal cutoff (before filtering):   49.50 Ry
Filter:    Number of eigenfunctions  of the
           filtering kernel (total, used)= 55 20
atom: Total number of Sankey-type orbitals:  5

atm_pop: Valence configuration (for local Pseudopot. screening):
 1s( 1.00)                                                            
 2p( 0.00)                                                            
Vna: chval, zval:    1.00000   1.00000

Vna:  Cut-off radius for the neutral-atom potential:   5.772464
VNA Filter: diagnostic kinetic energy tol:    0.003000 Ry
VNA Filter: Nominal cutoff (before filtering):21300.87 Ry
VNA Filter: Cutoff used:   290.00 Ry
Filter:    Number of eigenfunctions  of the
           filtering kernel (total, used)= 74 30

atom: _________________________________________________________________________

<basis_specs>
===============================================================================
N                    Z=   7    Mass=  14.007        Charge= 0.17977+309
Lmxo=2 Lmxkb= 2    BasisType=split      Semic=F
L=0  Nsemic=0  Cnfigmx=2
          i=1  nzeta=2  polorb=0  (2s)
            splnorm:   0.28000    
               vcte:    40.000    
               rinn:  -0.90000    
               qcoe:    0.0000    
               qyuk:    0.0000    
               qwid:   0.10000E-01
                rcs:    0.0000      0.0000    
            lambdas:    1.0000      1.0000    
L=1  Nsemic=0  Cnfigmx=2
          i=1  nzeta=2  polorb=1  (2p)  (to be polarized perturbatively)
            splnorm:   0.28000    
               vcte:    40.000    
               rinn:  -0.90000    
               qcoe:    0.0000    
               qyuk:    0.0000    
               qwid:   0.10000E-01
                rcs:    0.0000      0.0000    
            lambdas:    1.0000      1.0000    
L=2  Nsemic=0  Cnfigmx=3
          i=1  nzeta=0  polorb=0  (3d)  (perturbative polarization orbital) (from 2p)
-------------------------------------------------------------------------------
L=0  Nkbl=1  erefs: 0.17977+309
L=1  Nkbl=1  erefs: 0.17977+309
L=2  Nkbl=1  erefs: 0.17977+309
===============================================================================
</basis_specs>

Filter: Requested cutoff:  290.000000 Ry
Using PAO.SplitTailNorm
atom: Called for N                     (Z =   7)
Maximum radius (at nrval) set to   50.00000 8518

read_vps: Pseudopotential generation method:
read_vps: ATM4.2.7  Troullier-Martins                       
Valence charge in pseudo generation:    5.00000

xc_check: Exchange-correlation functional:
xc_check: GGA Perdew, Burke & Ernzerhof 1996
V l=0 = -2*Zval/r beyond r=  1.3505
V l=1 = -2*Zval/r beyond r=  1.3628
V l=2 = -2*Zval/r beyond r=  3.2536
All V_l potentials equal beyond r=  3.2406
This should be close to max(r_c) in ps generation
All pots = -2*Zval/r beyond r=  3.2536
Using small-core scheme (local charge) for Vlocal

VLOCAL_FROM_CHLOCAL: 99.0% of the norm of Vloc inside      4.134 Ry
VLOCAL_FROM_CHLOCAL: 99.9% of the norm of Vloc inside      9.420 Ry
atom: Maximum radius for chlocal:    3.83522
atom: Maximum radius for r*vlocal+2*Zval:    3.56452

KBgen: Kleinman-Bylander projectors: 
GHOST: No ghost state for L =  0
   l= 0   rc=  3.286396   el= -1.364990   Ekb= -4.084395   kbcos= -0.707149
GHOST: No ghost state for L =  1
j- l= 1   rc=  3.273237   el= -0.522099   Ekb= -9.337483   kbcos= -0.603568
GHOST: No ghost state for L =  1
j+ l= 1   rc=  3.273237   el= -0.520710   Ekb= -9.322891   kbcos= -0.603256
GHOST: No ghost state for L =  2
j- l= 2   rc=  3.699250   el=  0.012944   Ekb= -0.680922   kbcos= -0.059812
GHOST: No ghost state for L =  2
j+ l= 2   rc=  3.699250   el=  0.012944   Ekb= -0.679799   kbcos= -0.059842

KBgen: Total number of Kleinman-Bylander projectors:  17
atom: -------------------------------------------------------------------------

atom: SANKEY-TYPE ORBITALS:
atom: Selected multiple-zeta basis: split     

SPLIT: Orbitals with angular momentum L= 0

SPLIT: Basis orbitals for state 2s

SPLIT: PAO cut-off radius determined from an
SPLIT: energy shift=  0.005000 Ry
Split based on tail norm

   izeta = 1
                 lambda =    1.000000
                     rc =    4.256654
                 energy =   -1.359295
                kinetic =    1.255415
    potential(screened) =   -2.614710
       potential(ionic) =   -8.142669
PAO Filter: Cutoff used:  142.10 Ry
PAO Filter: diagnostic kin energy tol:    0.003000 Ry
PAO Filter: Nominal cutoff (before filtering):   67.41 Ry
Filter:    Number of eigenfunctions  of the
           filtering kernel (total, used)= 43 14

   izeta = 2
                 rmatch =    2.177654
              splitnorm =    0.280000
                 energy =   -0.492898
                kinetic =    3.145026
    potential(screened) =   -3.637923
       potential(ionic) =   -9.831650
PAO Filter: Cutoff used:  142.10 Ry
PAO Filter: diagnostic kin energy tol:    0.003000 Ry
PAO Filter: Nominal cutoff (before filtering):  127.34 Ry
Filter:    Number of eigenfunctions  of the
           filtering kernel (total, used)= 27  7

SPLIT: Orbitals with angular momentum L= 1

SPLIT: Basis orbitals for state 2p

SPLIT: PAO cut-off radius determined from an
SPLIT: energy shift=  0.005000 Ry
Split based on tail norm

   izeta = 1
                 lambda =    1.000000
                     rc =    5.274774
                 energy =   -0.515520
                kinetic =    3.486851
    potential(screened) =   -4.002371
       potential(ionic) =   -9.345231
PAO Filter: Cutoff used:  142.10 Ry
PAO Filter: diagnostic kin energy tol:    0.003000 Ry
PAO Filter: Nominal cutoff (before filtering):   56.62 Ry
Filter:    Number of eigenfunctions  of the
           filtering kernel (total, used)= 51 18

   izeta = 2
                 rmatch =    2.619595
              splitnorm =    0.280000
                 energy =   -0.135315
                kinetic =    6.112412
    potential(screened) =   -6.247726
       potential(ionic) =  -12.409759
PAO Filter: Cutoff used:  142.10 Ry
PAO Filter: diagnostic kin energy tol:    0.003000 Ry
PAO Filter: Nominal cutoff (before filtering):   63.34 Ry
Filter:    Number of eigenfunctions  of the
           filtering kernel (total, used)= 30  8

POLgen: Perturbative polarization orbital with L=  2

POLgen: Polarization orbital for state 2p
Split based on tail norm

   izeta = 1
                     rc =    5.274774
                 energy =    1.560155
                kinetic =    2.548459
    potential(screened) =   -0.988304
       potential(ionic) =   -5.056663
PAO Filter: diagnostic kin energy tol:    0.003000 Ry
PAO Filter: Nominal cutoff (before filtering):   61.33 Ry
Filter:    Number of eigenfunctions  of the
           filtering kernel (total, used)= 51 17
atom: Total number of Sankey-type orbitals: 13

atm_pop: Valence configuration (for local Pseudopot. screening):
 2s( 2.00)                                                            
 2p( 3.00)                                                            
 3d( 0.00)                                                            
Vna: chval, zval:    5.00000   5.00000

Vna:  Cut-off radius for the neutral-atom potential:   5.274774
VNA Filter: diagnostic kinetic energy tol:    0.003000 Ry
VNA Filter: Nominal cutoff (before filtering):   50.50 Ry
VNA Filter: Cutoff used:   290.00 Ry
Filter:    Number of eigenfunctions  of the
           filtering kernel (total, used)= 68 27

atom: _________________________________________________________________________

<basis_specs>
===============================================================================
Si                   Z=  14    Mass=  28.090        Charge= 0.17977+309
Lmxo=2 Lmxkb= 2    BasisType=split      Semic=F
L=0  Nsemic=0  Cnfigmx=3
          i=1  nzeta=2  polorb=0  (3s)
            splnorm:   0.28000    
               vcte:    40.000    
               rinn:  -0.90000    
               qcoe:    0.0000    
               qyuk:    0.0000    
               qwid:   0.10000E-01
                rcs:    0.0000      0.0000    
            lambdas:    1.0000      1.0000    
L=1  Nsemic=0  Cnfigmx=3
          i=1  nzeta=2  polorb=1  (3p)  (to be polarized perturbatively)
            splnorm:   0.28000    
               vcte:    40.000    
               rinn:  -0.90000    
               qcoe:    0.0000    
               qyuk:    0.0000    
               qwid:   0.10000E-01
                rcs:    0.0000      0.0000    
            lambdas:    1.0000      1.0000    
L=2  Nsemic=0  Cnfigmx=3
          i=1  nzeta=0  polorb=0  (3d)  (perturbative polarization orbital) (from 3p)
-------------------------------------------------------------------------------
L=0  Nkbl=1  erefs: 0.17977+309
L=1  Nkbl=1  erefs: 0.17977+309
L=2  Nkbl=1  erefs: 0.17977+309
===============================================================================
</basis_specs>

Filter: Requested cutoff:  290.000000 Ry
Using PAO.SplitTailNorm
atom: Called for Si                    (Z =  14)
Maximum radius (at nrval) set to   50.00000 8518

read_vps: Pseudopotential generation method:
read_vps: ATM4.2.7  Troullier-Martins                       
Valence charge in pseudo generation:    4.00000

read_vps: Pseudopotential includes a core correction:
read_vps: Pseudo-core for xc-correction

xc_check: Exchange-correlation functional:
xc_check: GGA Perdew, Burke & Ernzerhof 1996
V l=0 = -2*Zval/r beyond r=  2.0135
V l=1 = -2*Zval/r beyond r=  2.2353
V l=2 = -2*Zval/r beyond r=  3.4072
All V_l potentials equal beyond r=  3.3936
This should be close to max(r_c) in ps generation
All pots = -2*Zval/r beyond r=  3.4072
Using small-core scheme (local charge) for Vlocal

VLOCAL_FROM_CHLOCAL: 99.0% of the norm of Vloc inside      3.769 Ry
VLOCAL_FROM_CHLOCAL: 99.9% of the norm of Vloc inside      8.590 Ry
atom: Maximum radius for chlocal:    3.99615
atom: Maximum radius for r*vlocal+2*Zval:    3.71412

KBgen: Kleinman-Bylander projectors: 
GHOST: No ghost state for L =  0
   l= 0   rc=  3.578843   el= -0.794066   Ekb= 81.865761   kbcos=  0.013736
GHOST: No ghost state for L =  1
j- l= 1   rc=  3.725306   el= -0.301597   Ekb= -0.825317   kbcos= -0.326846
GHOST: No ghost state for L =  1
j+ l= 1   rc=  3.725306   el= -0.299285   Ekb= -0.841732   kbcos= -0.318601
GHOST: No ghost state for L =  2
j- l= 2   rc=  3.785552   el=  0.012766   Ekb= -0.889155   kbcos= -0.151422
GHOST: No ghost state for L =  2
j+ l= 2   rc=  3.785552   el=  0.012766   Ekb= -0.888467   kbcos= -0.151398

KBgen: Total number of Kleinman-Bylander projectors:  17
atom: -------------------------------------------------------------------------

atom: SANKEY-TYPE ORBITALS:
atom: Selected multiple-zeta basis: split     

SPLIT: Orbitals with angular momentum L= 0

SPLIT: Basis orbitals for state 3s

SPLIT: PAO cut-off radius determined from an
SPLIT: energy shift=  0.005000 Ry
Split based on tail norm

   izeta = 1
                 lambda =    1.000000
                     rc =    5.818909
                 energy =   -0.788144
                kinetic =    0.544518
    potential(screened) =   -1.332662
       potential(ionic) =   -3.713291
PAO Filter: Cutoff used:  142.10 Ry
PAO Filter: diagnostic kin energy tol:    0.003000 Ry
PAO Filter: Nominal cutoff (before filtering):   17.08 Ry
Filter:    Number of eigenfunctions  of the
           filtering kernel (total, used)= 55 20

   izeta = 2
                 rmatch =    3.332870
              splitnorm =    0.280000
                 energy =   -0.077022
                kinetic =    1.786575
    potential(screened) =   -1.863597
       potential(ionic) =   -4.461809
PAO Filter: Cutoff used:  142.10 Ry
PAO Filter: diagnostic kin energy tol:    0.003000 Ry
PAO Filter: Nominal cutoff (before filtering):   37.57 Ry
Filter:    Number of eigenfunctions  of the
           filtering kernel (total, used)= 36 11

SPLIT: Orbitals with angular momentum L= 1

SPLIT: Basis orbitals for state 3p

SPLIT: PAO cut-off radius determined from an
SPLIT: energy shift=  0.005000 Ry
Split based on tail norm

   izeta = 1
                 lambda =    1.000000
                     rc =    7.519509
                 energy =   -0.294153
                kinetic =    0.816276
    potential(screened) =   -1.110429
       potential(ionic) =   -3.297578
PAO Filter: Cutoff used:  142.10 Ry
PAO Filter: diagnostic kin energy tol:    0.003000 Ry
PAO Filter: Nominal cutoff (before filtering):    6.35 Ry
Filter:    Number of eigenfunctions  of the
           filtering kernel (total, used)= 68 26

   izeta = 2
                 rmatch =    4.351560
              splitnorm =    0.280000
                 energy =   -0.086738
                kinetic =    1.503215
    potential(screened) =   -1.589953
       potential(ionic) =   -4.038960
PAO Filter: Cutoff used:  142.10 Ry
PAO Filter: diagnostic kin energy tol:    0.003000 Ry
PAO Filter: Nominal cutoff (before filtering):   13.28 Ry
Filter:    Number of eigenfunctions  of the
           filtering kernel (total, used)= 44 14

POLgen: Perturbative polarization orbital with L=  2

POLgen: Polarization orbital for state 3p
Split based on tail norm

   izeta = 1
                     rc =    7.519509
                 energy =    0.307085
                kinetic =    1.301771
    potential(screened) =   -0.994687
       potential(ionic) =   -3.042559
PAO Filter: diagnostic kin energy tol:    0.003000 Ry
PAO Filter: Nominal cutoff (before filtering):   12.01 Ry
Filter:    Number of eigenfunctions  of the
           filtering kernel (total, used)= 68 26
atom: Total number of Sankey-type orbitals: 13

atm_pop: Valence configuration (for local Pseudopot. screening):
 3s( 2.00)                                                            
 3p( 2.00)                                                            
 3d( 0.00)                                                            
Vna: chval, zval:    4.00000   4.00000

Vna:  Cut-off radius for the neutral-atom potential:   7.519509
VNA Filter: diagnostic kinetic energy tol:    0.003000 Ry
VNA Filter: Nominal cutoff (before filtering):    6.56 Ry
VNA Filter: Cutoff used:   290.00 Ry
Filter:    Number of eigenfunctions  of the
           filtering kernel (total, used)= 93 39
comcore: Pseudo-core radius Rcore=  2.987653
PCC Filter: diagnostic kin energy tol:    0.003000 Ry
PCC Filter: Nominal cutoff (before filtering):  104.36 Ry
PCC Filter: Cutoff used:   290.00 Ry
Filter:    Number of eigenfunctions  of the
           filtering kernel (total, used)= 43 15

atom: _________________________________________________________________________

<basis_specs>
===============================================================================
O                    Z=   8    Mass=  15.999        Charge= 0.17977+309
Lmxo=2 Lmxkb= 1    BasisType=split      Semic=F
L=0  Nsemic=0  Cnfigmx=2
          i=1  nzeta=2  polorb=0  (2s)
            splnorm:   0.28000    
               vcte:    40.000    
               rinn:  -0.90000    
               qcoe:    0.0000    
               qyuk:    0.0000    
               qwid:   0.10000E-01
                rcs:    0.0000      0.0000    
            lambdas:    1.0000      1.0000    
L=1  Nsemic=0  Cnfigmx=2
          i=1  nzeta=2  polorb=1  (2p)  (to be polarized perturbatively)
            splnorm:   0.28000    
               vcte:    40.000    
               rinn:  -0.90000    
               qcoe:    0.0000    
               qyuk:    0.0000    
               qwid:   0.10000E-01
                rcs:    0.0000      0.0000    
            lambdas:    1.0000      1.0000    
L=2  Nsemic=0  Cnfigmx=3
          i=1  nzeta=0  polorb=0  (3d)  (perturbative polarization orbital) (from 2p)
-------------------------------------------------------------------------------
L=0  Nkbl=1  erefs: 0.17977+309
L=1  Nkbl=1  erefs: 0.17977+309
===============================================================================
</basis_specs>

Filter: Requested cutoff:  290.000000 Ry
Using PAO.SplitTailNorm
atom: Called for O                     (Z =   8)
NOTE: O pseudopotential has channels up to l= 1
NOTE: PAOs with higher l will be generated with V_local
Maximum radius (at nrval) set to   50.00000 8518

read_vps: Pseudopotential generation method:
read_vps: ATM4.2.7  Troullier-Martins                       
Valence charge in pseudo generation:    6.00000

xc_check: Exchange-correlation functional:
xc_check: GGA Perdew, Burke & Ernzerhof 1996
V l=0 = -2*Zval/r beyond r=  1.1230
V l=1 = -2*Zval/r beyond r=  1.1184
All V_l potentials equal beyond r=  1.0390
This should be close to max(r_c) in ps generation
All pots = -2*Zval/r beyond r=  1.1230
Using small-core scheme (local charge) for Vlocal

VLOCAL_FROM_CHLOCAL: 99.0% of the norm of Vloc inside     40.211 Ry
VLOCAL_FROM_CHLOCAL: 99.9% of the norm of Vloc inside     91.641 Ry
atom: Maximum radius for chlocal:    1.25723
atom: Maximum radius for r*vlocal+2*Zval:    1.14816

KBgen: Kleinman-Bylander projectors: 
GHOST: No ghost state for L =  0
   l= 0   rc=  1.272524   el= -1.759797   Ekb= 11.287271   kbcos=  0.312215
GHOST: No ghost state for L =  1
j- l= 1   rc=  1.269961   el= -0.665560   Ekb= -8.895322   kbcos= -0.351626
GHOST: No ghost state for L =  1
j+ l= 1   rc=  1.271242   el= -0.662923   Ekb= -8.864233   kbcos= -0.351011

KBgen: Total number of Kleinman-Bylander projectors:   7
atom: -------------------------------------------------------------------------

atom: SANKEY-TYPE ORBITALS:
atom: Selected multiple-zeta basis: split     

SPLIT: Orbitals with angular momentum L= 0

SPLIT: Basis orbitals for state 2s

SPLIT: PAO cut-off radius determined from an
SPLIT: energy shift=  0.005000 Ry
Split based on tail norm

   izeta = 1
                 lambda =    1.000000
                     rc =    3.812214
                 energy =   -1.754187
                kinetic =    1.612054
    potential(screened) =   -3.366241
       potential(ionic) =  -11.288798
PAO Filter: Cutoff used:  142.10 Ry
PAO Filter: diagnostic kin energy tol:    0.003000 Ry
PAO Filter: Nominal cutoff (before filtering):   62.68 Ry
Filter:    Number of eigenfunctions  of the
           filtering kernel (total, used)= 40 13

   izeta = 2
                 rmatch =    1.895663
              splitnorm =    0.280000
                 energy =   -0.709709
                kinetic =    3.823914
    potential(screened) =   -4.533623
       potential(ionic) =  -13.470361
PAO Filter: Cutoff used:  142.10 Ry
PAO Filter: diagnostic kin energy tol:    0.003000 Ry
PAO Filter: Nominal cutoff (before filtering):  121.35 Ry
Filter:    Number of eigenfunctions  of the
           filtering kernel (total, used)= 25  6

SPLIT: Orbitals with angular momentum L= 1

SPLIT: Basis orbitals for state 2p

SPLIT: PAO cut-off radius determined from an
SPLIT: energy shift=  0.005000 Ry
Split based on tail norm

   izeta = 1
                 lambda =    1.000000
                     rc =    4.733759
                 energy =   -0.658185
                kinetic =    4.925190
    potential(screened) =   -5.583375
       potential(ionic) =  -13.277097
PAO Filter: Cutoff used:  142.10 Ry
PAO Filter: diagnostic kin energy tol:    0.003000 Ry
PAO Filter: Nominal cutoff (before filtering):   97.34 Ry
Filter:    Number of eigenfunctions  of the
           filtering kernel (total, used)= 47 16

   izeta = 2
                 rmatch =    2.269212
              splitnorm =    0.280000
                 energy =   -0.173027
                kinetic =    8.566037
    potential(screened) =   -8.739063
       potential(ionic) =  -17.643478
PAO Filter: Cutoff used:  142.10 Ry
PAO Filter: diagnostic kin energy tol:    0.003000 Ry
PAO Filter: Nominal cutoff (before filtering):  105.19 Ry
Filter:    Number of eigenfunctions  of the
           filtering kernel (total, used)= 28  6
*Note: V_local used for l= 2

** Using vlocal for PAOs with L= 2

POLgen: Perturbative polarization orbital with L=  2

POLgen: Polarization orbital for state 2p
*Note: V_local used for lpol= 2

** Using vlocal for PAOs with L= 2
Split based on tail norm

   izeta = 1
                     rc =    4.733759
                 energy =    2.106194
                kinetic =    3.893912
    potential(screened) =   -1.787718
       potential(ionic) =   -7.731298
PAO Filter: diagnostic kin energy tol:    0.003000 Ry
PAO Filter: Nominal cutoff (before filtering):  104.86 Ry
Filter:    Number of eigenfunctions  of the
           filtering kernel (total, used)= 47 15
atom: Total number of Sankey-type orbitals: 13

atm_pop: Valence configuration (for local Pseudopot. screening):
 2s( 2.00)                                                            
 2p( 4.00)                                                            
 3d( 0.00)                                                            
Vna: chval, zval:    6.00000   6.00000

Vna:  Cut-off radius for the neutral-atom potential:   4.733759
VNA Filter: diagnostic kinetic energy tol:    0.003000 Ry
VNA Filter: Nominal cutoff (before filtering):   51.69 Ry
VNA Filter: Cutoff used:   290.00 Ry
Filter:    Number of eigenfunctions  of the
           filtering kernel (total, used)= 62 24

atom: _________________________________________________________________________

prinput: Basis input 

PAO.BasisType split     

%block ChemicalSpeciesLabel
    1    1 H                       # Species index, atomic number, species label
    2    7 N                       # Species index, atomic number, species label
    3   14 Si                      # Species index, atomic number, species label
    4    8 O                       # Species index, atomic number, species label
%endblock ChemicalSpeciesLabel

%block PAO.Basis                 # Define Basis set
# WARNING: This information might be incomplete!
H                     1                    # Species label, number of l-shells
 n=1   0   2 P   1                   # n, l, Nzeta, Polarization, NzetaPol
   5.772      1.662   
   1.000      1.000   
N                     2                    # Species label, number of l-shells
 n=2   0   2                         # n, l, Nzeta 
   4.257      2.178   
   1.000      1.000   
 n=2   1   2 P   1                   # n, l, Nzeta, Polarization, NzetaPol
   5.275      2.620   
   1.000      1.000   
Si                    2                    # Species label, number of l-shells
 n=3   0   2                         # n, l, Nzeta 
   5.819      3.333   
   1.000      1.000   
 n=3   1   2 P   1                   # n, l, Nzeta, Polarization, NzetaPol
   7.520      4.352   
   1.000      1.000   
O                     2                    # Species label, number of l-shells
 n=2   0   2                         # n, l, Nzeta 
   3.812      1.896   
   1.000      1.000   
 n=2   1   2 P   1                   # n, l, Nzeta, Polarization, NzetaPol
   4.734      2.269   
   1.000      1.000   
%endblock PAO.Basis

prinput: ----------------------------------------------------------------------

Dumping basis to NetCDF file H.ion.nc
Dumping basis to NetCDF file N.ion.nc
Dumping basis to NetCDF file Si.ion.nc
Dumping basis to NetCDF file O.ion.nc
coor:   Atomic-coordinates input format  =     Cartesian coordinates
coor:                                          (in Angstroms)

siesta: Atomic coordinates (Bohr) and species
siesta:      1.87926   6.61167   0.00000  1        1
siesta:      0.49115   5.17291   0.00000  2        2
siesta:     -2.71649   6.10525   0.00000  3        3
siesta:     -2.96043   8.95655   0.00000  1        4
siesta:     -5.61135   3.13437   0.00000  3        5
siesta:     -8.40869   3.55212   0.00000  1        6
siesta:     -3.28876  -0.43355   0.00000  3        7
siesta:     -4.71687  -3.42342   0.00000  2        8
siesta:     -3.58532  -5.06962   0.00000  1        9
siesta:     -6.68833  -3.72061   0.00000  1       10
siesta:     -0.09236  -0.45881   0.00000  2       11
siesta:      1.97605   2.05758   0.00000  3       12
siesta:      4.97866   2.19733   0.00000  4       13

siesta: Automatic unit cell vectors (Ang):
siesta:   13.908324    0.000000    0.000000
siesta:    0.000000   14.884805    0.000000
siesta:    0.000000    0.000000    8.754136

siesta: System type = molecule  

initatomlists: Number of atoms, orbitals, and projectors:     13   129   131

siesta: ******************** Simulation parameters ****************************
siesta:
siesta: The following are some of the parameters of the simulation.
siesta: A complete list of the parameters used, including default values,
siesta: can be found in file out.fdf
siesta:
redata: Spin configuration                          = spin-orbit+offsite
redata: Number of spin components                   = 8
redata: Time-Reversal Symmetry                      = F
redata: Spin spiral                                 = F
redata: Long output                                 =   F
redata: Number of Atomic Species                    =        4
redata: Charge density info will appear in .RHO file
redata: Write Mulliken Pop.                         = NO
redata: Matel table size (NRTAB)                    =     1024
redata: Mesh Cutoff                                 =   300.0000 Ry
redata: Net charge of the system                    =     0.0000 |e|
redata: Min. number of SCF Iter                     =        1
redata: Max. number of SCF Iter                     =      200
redata: SCF convergence failure will abort job
redata: SCF mix quantity                            = Hamiltonian
redata: Mix DM or H after convergence               =   F
redata: Recompute H after scf cycle                 =   F
redata: Mix DM in first SCF step                    =   T
redata: Write Pulay info on disk                    =   F
redata: New DM Occupancy tolerance                  = 0.000000000001
redata: No kicks to SCF
redata: DM Mixing Weight for Kicks                  =     0.5000
redata: Require Harris convergence for SCF          =   F
redata: Harris energy tolerance for SCF             =     0.000100 eV
redata: Require DM convergence for SCF              =   T
redata: DM tolerance for SCF                        =     0.000008
redata: Require EDM convergence for SCF             =   F
redata: EDM tolerance for SCF                       =     0.001000 eV
redata: Require H convergence for SCF               =   T
redata: Hamiltonian tolerance for SCF               =     0.000001 eV
redata: Require (free) Energy convergence for SCF   =   F
redata: (free) Energy tolerance for SCF             =     0.000100 eV
redata: Using DFT-D3 dispersion                     =   F
redata: Using Saved Data (generic)                  =   F
redata: Use continuation files for DM               =   T
redata: Neglect nonoverlap interactions             =   F
redata: Method of Calculation                       = Diagonalization
redata: Electronic Temperature                      =     1.0000 K
redata: Fix the spin of the system                  =   F
redata: Split SR and SO contributions               =   F
redata: Max. number of TDED Iter                    =        1
redata: Number of TDED substeps                     =        3
redata: Dynamics option                             = Broyden coord. optimization
redata: Variable cell                               =   F
redata: Maximum number of optimization moves        =     1000
redata: Force tolerance                             =     0.0080 eV/Ang
mix.SCF: Pulay mixing                            = Pulay
mix.SCF:    Variant                              = stable
mix.SCF:    History steps                        = 6
mix.SCF:    Linear mixing weight                 =     0.250000
mix.SCF:    Mixing weight                        =     0.250000
mix.SCF:    SVD condition                        = 0.1000E-07
mix.SCF:    Restart steps                        = 24
mix.SCF:    Restart save steps                   = 3
mix.SCF: Spin-component mixing                   all
redata: Save all siesta data in one NC              =   F
redata: ***********************************************************************

%block SCF.Mixers
  Pulay
%endblock SCF.Mixers

%block SCF.Mixer.Pulay
  # Mixing method
  method pulay
  variant stable

  # Mixing options
  weight 0.2500
  weight.linear 0.2500
  history 6
  restart 24
  restart.save 3
%endblock SCF.Mixer.Pulay

DM_history_depth set to one: no extrapolation allowed by default for geometry relaxation
Size of DM history Fstack: 1
Total number of electrons:    42.000000
Total ionic charge:    42.000000

* ProcessorY, Blocksize:    8   4


* Orbital distribution balance (max,min):     5     4


siesta: k-grid: Number of k-points = 1
siesta: k-point is Gamma-only

diag: Algorithm                                     = ELPA-2stage
diag: ELPA GPU string key                           = nvidia-gpu
diag: Parallel over k                               =   F
diag: Use parallel 2D distribution                  =   T
diag: Parallel block-size                           = 4
diag: Parallel distribution                         =     4 x     8
diag: Used triangular part                          = Lower
diag: Absolute tolerance                            =  0.100E-15
diag: Orthogonalization factor                      =  0.100E-05
diag: Memory factor                                 =  1.0000

siesta: Constraints applied in the following order:
siesta: Constraint v=[  0.00000,  0.00000,  1.00000] (13): pos-dir
  [ 1 -- 13 ]
siesta: Constraint (1): pos
  [ 5 ]


ts: **************************************************************
ts: Save H and S matrices                           =    F
ts: Save DM and EDM matrices                        =    F
ts: Only save the overlap matrix S                  =    F
ts: **************************************************************

************************ Begin: TS CHECKS AND WARNINGS ************************
************************ End: TS CHECKS AND WARNINGS **************************


                     ====================================
                        Begin Broyden opt. move =      0
                     ====================================

outcoor: Atomic coordinates (Ang):                          
    0.99446407    3.49874632    0.00000000   1       1  H
    0.25990692    2.73738523    0.00000000   2       2  N
   -1.43750707    3.23076129    0.00000000   3       3  Si
   -1.56659198    4.73960210    0.00000000   1       4  H
   -2.96939626    1.65863702    0.00000000   3       5  Si
   -4.44968551    1.87970321    0.00000000   1       6  H
   -1.74033533   -0.22942544    0.00000000   3       7  Si
   -2.49605866   -1.81159486    0.00000000   2       8  N
   -1.89727100   -2.68272681    0.00000000   1       9  H
   -3.53931086   -1.96886349    0.00000000   1      10  H
   -0.04887461   -0.24279353    0.00000000   2      11  N
    1.04567892    1.08882330    0.00000000   3      12  Si
    2.63459195    1.16277696    0.00000000   4      13  O

outcell: Unit cell vectors (Ang):
       13.908324    0.000000    0.000000
        0.000000   14.884805    0.000000
        0.000000    0.000000    8.754136

outcell: Cell vector modules (Ang)   :   13.908324   14.884805    8.754136
outcell: Cell angles (23,13,12) (deg):     90.0000     90.0000     90.0000
outcell: Cell volume (Ang**3)        :   1812.3048
<dSpData1D:S at geom step 0
  <sparsity:sparsity for geom step 0
    nrows_g=129 nrows=5 sparsity=.0379 nnzs=630, refcount: 8>
  <dData1D:(new from dSpData1D) n=630, refcount: 1>
refcount: 1>
new_DM -- step:     1
Initializing Density Matrix...

Attempting to read DM from file... Succeeded...
DM from file:
<dSpData2D:IO-DM: Cytosine.DM
  <sparsity:IO-DM: Cytosine.DM
    nrows_g=129 nrows=5 sparsity=.0379 nnzs=630, refcount: 1>
  <dData2D:(new from dSpData2D) n=630 m=8, refcount: 1>
refcount: 1>
DM to be used:
<dSpData2D:Re-structured SpM
  <sparsity:sparsity for geom step 0
    nrows_g=129 nrows=5 sparsity=.0379 nnzs=630, refcount: 9>
  <dData2D:(new in restruct) n=630 m=8, refcount: 1>
refcount: 1>
     spin moment: {S} , |S| = {   -0.00000    0.00000    0.00005 }     0.00005

InitMesh: MESH = 150 x 160 x 96 = 2304000
InitMesh: Mesh cutoff (required, used) =   300.000   319.342 Ry
New grid distribution [1]: sub = 2
New grid distribution [2]: sub = 2
New grid distribution [3]: sub = 2
Setting up quadratic distribution...

stepf: Fermi-Dirac step function

siesta: Program's energy decomposition (eV):
siesta: Ebs     =      -471.784977
siesta: Eions   =      4233.020741
siesta: Ena     =       934.509034
siesta: Ekin    =      1153.279464
siesta: Enl(+so)=      -772.010126
siesta: Eso(nil)=         0.000000
siesta: Edftu   =         0.000000
siesta: DEna    =        -4.191166
siesta: DUscf   =         6.171583
siesta: DUext   =         0.000000
siesta: Ex      =      -988.490108
siesta: Ec      =       -64.007238
siesta: Exc     =     -1052.497347
siesta: EbV     =         0.000000
siesta: eta*DQ  =         0.000000
siesta: Emadel  =         0.000000
siesta: Emeta   =         0.000000
siesta: Emolmec =         0.000000
siesta: Ekinion =         0.000000
siesta: Eharris =     -3968.036843
siesta: Etot    =     -3967.759299
siesta: FreeEng =     -3967.759299

        iscf     Eharris(eV)        E_KS(eV)     FreeEng(eV)     dDmax    Ef(eV) dHmax(eV)
   scf:    1    -3968.036843    -3967.759299    -3967.759299  0.155889 -3.124204  2.762411
     spin moment: {S} , |S| = {    0.00000    0.00000    0.00000 }     0.00000
timer: Routine,Calls,Time,% = IterSCF        1       0.834   4.42
   scf:    2    -3968.183761    -3968.081214    -3968.081214  0.025192 -4.643223  0.672931
     spin moment: {S} , |S| = {   -0.00000    0.00000    0.00000 }     0.00000
   scf:    3    -3968.126352    -3968.105413    -3968.105413  0.007685 -4.724676  0.467324
     spin moment: {S} , |S| = {   -0.00000    0.00000    0.00000 }     0.00000
   scf:    4    -3968.139118    -3968.122620    -3968.122620  0.010517 -4.788083  0.252715
     spin moment: {S} , |S| = {   -0.00000    0.00000    0.00000 }     0.00000
   scf:    5    -3968.131926    -3968.127176    -3968.127176  0.004478 -4.807369  0.172901
     spin moment: {S} , |S| = {   -0.00000    0.00000    0.00000 }     0.00000
   scf:    6    -3968.137561    -3968.131964    -3968.131964  0.007796 -4.815205  0.073710
     spin moment: {S} , |S| = {   -0.00000    0.00000    0.00000 }     0.00000
   scf:    7    -3968.135030    -3968.133307    -3968.133307  0.004665 -4.808673  0.030957
     spin moment: {S} , |S| = {    0.00000    0.00000   -0.00000 }     0.00000
   scf:    8    -3968.133674    -3968.133471    -3968.133471  0.001644 -4.801458  0.009553
     spin moment: {S} , |S| = {    0.00000    0.00000   -0.00000 }     0.00000
   scf:    9    -3968.133515    -3968.133492    -3968.133492  0.000394 -4.798724  0.006157
     spin moment: {S} , |S| = {    0.00000    0.00000   -0.00000 }     0.00000
   scf:   10    -3968.133525    -3968.133507    -3968.133507  0.000492 -4.796457  0.003058
     spin moment: {S} , |S| = {   -0.00000    0.00000   -0.00000 }     0.00000
   scf:   11    -3968.133512    -3968.133509    -3968.133509  0.000171 -4.795757  0.001757
     spin moment: {S} , |S| = {   -0.00000    0.00000   -0.00000 }     0.00000
   scf:   12    -3968.133511    -3968.133510    -3968.133510  0.000116 -4.795448  0.000625
     spin moment: {S} , |S| = {   -0.00000    0.00000   -0.00000 }     0.00000
   scf:   13    -3968.133510    -3968.133510    -3968.133510  0.000041 -4.795408  0.000301
     spin moment: {S} , |S| = {   -0.00000    0.00000    0.00000 }     0.00000
   scf:   14    -3968.133510    -3968.133510    -3968.133510  0.000009 -4.795395  0.000194
     spin moment: {S} , |S| = {   -0.00000    0.00000    0.00000 }     0.00000
   scf:   15    -3968.133510    -3968.133510    -3968.133510  0.000012 -4.795375  0.000081
     spin moment: {S} , |S| = {   -0.00000    0.00000    0.00000 }     0.00000
   scf:   16    -3968.133510    -3968.133510    -3968.133510  0.000007 -4.795368  0.000048
     spin moment: {S} , |S| = {   -0.00000    0.00000    0.00000 }     0.00000
   scf:   17    -3968.133510    -3968.133510    -3968.133510  0.000003 -4.795369  0.000026
     spin moment: {S} , |S| = {   -0.00000    0.00000    0.00000 }     0.00000
   scf:   18    -3968.133510    -3968.133510    -3968.133510  0.000002 -4.795364  0.000017
     spin moment: {S} , |S| = {   -0.00000    0.00000   -0.00000 }     0.00000
   scf:   19    -3968.133510    -3968.133510    -3968.133510  0.000003 -4.795358  0.000009
     spin moment: {S} , |S| = {   -0.00000    0.00000   -0.00000 }     0.00000
   scf:   20    -3968.133510    -3968.133510    -3968.133510  0.000002 -4.795356  0.000005
     spin moment: {S} , |S| = {   -0.00000    0.00000   -0.00000 }     0.00000
   scf:   21    -3968.133510    -3968.133510    -3968.133510  0.000000 -4.795357  0.000004
     spin moment: {S} , |S| = {   -0.00000    0.00000   -0.00000 }     0.00000
   scf:   22    -3968.133510    -3968.133510    -3968.133510  0.000001 -4.795358  0.000002
     spin moment: {S} , |S| = {   -0.00000    0.00000   -0.00000 }     0.00000
   scf:   23    -3968.133510    -3968.133510    -3968.133510  0.000000 -4.795358  0.000001
     spin moment: {S} , |S| = {   -0.00000    0.00000   -0.00000 }     0.00000
   scf:   24    -3968.133510    -3968.133510    -3968.133510  0.000000 -4.795357  0.000001
     spin moment: {S} , |S| = {   -0.00000    0.00000    0.00000 }     0.00000

SCF Convergence by DM+H criterion
max |DM_out - DM_in|         :     0.0000001192
max |H_out - H_in|      (eV) :     0.0000008501
SCF cycle converged after 24 iterations

Using DM_out to compute the final energy and forces

siesta: E_KS(eV) =            -3968.1335

siesta: E_KS - E_eggbox =     -3968.1335
     spin moment: {S} , |S| = {   -0.00000    0.00000    0.00000 }     0.00000

siesta: Atomic forces (eV/Ang):
     1   -2.461351    1.080901   -0.000000
     2    0.125907    0.115013    0.000000
     3   -0.022949   -0.053898    0.000000
     4    1.975199   -1.590638    0.000000
     5    0.135019    0.022893   -0.000000
     6    0.259371    0.405764    0.000000
     7    0.221925   -0.085140   -0.000000
     8   -0.088359   -0.053528   -0.000000
     9   -1.884507    1.069299    0.000000
    10    2.104117   -0.911255    0.000000
    11   -0.150127    0.371323   -0.000000
    12    0.331438   -0.107471    0.000000
    13   -0.549299   -0.256877    0.000000
----------------------------------------
   Tot   -0.003617    0.006386   -0.000000
----------------------------------------
   Max    2.461351
   Res    0.794379    sqrt( Sum f_i^2 / 3N )
----------------------------------------
   Max    2.461351    constrained

Stress tensor Voigt[x,y,z,yz,xz,xy] (kbar):       10.89        3.78       -0.05       -0.00       -0.00       -2.20
(Free)E + p*V (eV/cell)    -3973.6448
Target enthalpy (eV/cell)    -3968.1335

Broyden_optim: max_history for broyden:   5
Broyden_optim: cycle on maxit: T
Broyden_optim: initial inverse jacobian:   1.0000

Broyden_optim: No of elements:     39

                     ====================================
                        Begin Broyden opt. move =      1
                     ====================================

outcoor: Atomic coordinates (Ang):                          
    0.94380525    3.52099312    0.00000000   1       1  H
    0.26249830    2.73975239    0.00000000   2       2  N
   -1.43797939    3.22965198    0.00000000   3       3  Si
   -1.52593898    4.70686404    0.00000000   1       4  H
   -2.96939626    1.65863702    0.00000000   3       5  Si
   -4.44434722    1.88805454    0.00000000   1       6  H
   -1.73576773   -0.23117777    0.00000000   3       7  Si
   -2.49787725   -1.81269655    0.00000000   2       8  N
   -1.93605740   -2.66071880    0.00000000   1       9  H
   -3.49600451   -1.98761867    0.00000000   1      10  H
   -0.05196448   -0.23515107    0.00000000   2      11  N
    1.05250047    1.08661135    0.00000000   3      12  Si
    2.62328643    1.15748999    0.00000000   4      13  O

outcell: Unit cell vectors (Ang):
       13.908324    0.000000    0.000000
        0.000000   14.884805    0.000000
        0.000000    0.000000    8.754136

outcell: Cell vector modules (Ang)   :   13.908324   14.884805    8.754136
outcell: Cell angles (23,13,12) (deg):     90.0000     90.0000     90.0000
outcell: Cell volume (Ang**3)        :   1812.3048
<dSpData1D:S at geom step 1
  <sparsity:sparsity for geom step 1
    nrows_g=129 nrows=5 sparsity=.0379 nnzs=630, refcount: 8>
  <dData1D:(new from dSpData1D) n=630, refcount: 1>
refcount: 1>
new_DM -- step:     2
Re-using DM from previous geometries...
Number of DMs in history: 1
 DM extrapolation coefficients: 
1   1.00000
New DM after history re-use:
<dSpData2D:SpM extrapolated using coords
  <sparsity:sparsity for geom step 1
    nrows_g=129 nrows=5 sparsity=.0379 nnzs=630, refcount: 10>
  <dData2D:(temp array for extrapolation) n=630 m=8, refcount: 1>
refcount: 1>
     spin moment: {S} , |S| = {    0.00000    0.00000    0.00000 }     0.00000
Note: For starting DM, Qtot, Tr[D*S] =         42.00000000         42.08183770

InitMesh: MESH = 150 x 160 x 96 = 2304000
InitMesh: Mesh cutoff (required, used) =   300.000   319.342 Ry
New grid distribution [1]: sub = 2
New grid distribution [2]: sub = 2
New grid distribution [3]: sub = 2
Setting up quadratic distribution...

        iscf     Eharris(eV)        E_KS(eV)     FreeEng(eV)     dDmax    Ef(eV) dHmax(eV)
   scf:    1    -3967.622285    -3968.023394    -3968.023394  0.021055 -4.820242  0.618739
     spin moment: {S} , |S| = {   -0.00000    0.00000   -0.00000 }     0.00000
   scf:    2    -3967.687551    -3967.932915    -3967.932915  0.022551 -4.498912  1.583080
     spin moment: {S} , |S| = {   -0.00000    0.00000   -0.00000 }     0.00000
   scf:    3    -3968.071866    -3968.043694    -3968.043694  0.016941 -4.703798  0.088117
     spin moment: {S} , |S| = {   -0.00000    0.00000   -0.00000 }     0.00000
   scf:    4    -3968.044162    -3968.043973    -3968.043973  0.001018 -4.691006  0.034219
     spin moment: {S} , |S| = {   -0.00000    0.00000   -0.00000 }     0.00000
   scf:    5    -3968.044029    -3968.044005    -3968.044005  0.000572 -4.687841  0.008291
     spin moment: {S} , |S| = {   -0.00000    0.00000   -0.00000 }     0.00000
   scf:    6    -3968.044011    -3968.044009    -3968.044009  0.000244 -4.686285  0.001376
     spin moment: {S} , |S| = {   -0.00000    0.00000   -0.00000 }     0.00000
   scf:    7    -3968.044010    -3968.044009    -3968.044009  0.000063 -4.686138  0.000641
     spin moment: {S} , |S| = {   -0.00000    0.00000   -0.00000 }     0.00000
   scf:    8    -3968.044010    -3968.044009    -3968.044009  0.000050 -4.686029  0.000167
     spin moment: {S} , |S| = {   -0.00000    0.00000   -0.00000 }     0.00000
   scf:    9    -3968.044009    -3968.044009    -3968.044009  0.000012 -4.686009  0.000105
     spin moment: {S} , |S| = {   -0.00000    0.00000   -0.00000 }     0.00000
   scf:   10    -3968.044009    -3968.044009    -3968.044009  0.000009 -4.685978  0.000030
     spin moment: {S} , |S| = {   -0.00000    0.00000   -0.00000 }     0.00000
   scf:   11    -3968.044009    -3968.044009    -3968.044009  0.000002 -4.685977  0.000018
     spin moment: {S} , |S| = {   -0.00000    0.00000   -0.00000 }     0.00000
   scf:   12    -3968.044009    -3968.044009    -3968.044009  0.000002 -4.685976  0.000009
     spin moment: {S} , |S| = {   -0.00000    0.00000   -0.00000 }     0.00000
   scf:   13    -3968.044009    -3968.044009    -3968.044009  0.000000 -4.685975  0.000004
     spin moment: {S} , |S| = {   -0.00000    0.00000   -0.00000 }     0.00000
   scf:   14    -3968.044009    -3968.044009    -3968.044009  0.000000 -4.685975  0.000002
     spin moment: {S} , |S| = {   -0.00000    0.00000   -0.00000 }     0.00000
   scf:   15    -3968.044009    -3968.044009    -3968.044009  0.000000 -4.685975  0.000001
     spin moment: {S} , |S| = {   -0.00000    0.00000   -0.00000 }     0.00000

SCF Convergence by DM+H criterion
max |DM_out - DM_in|         :     0.0000000694
max |H_out - H_in|      (eV) :     0.0000006812
SCF cycle converged after 15 iterations

Using DM_out to compute the final energy and forces

siesta: E_KS(eV) =            -3968.0440
     spin moment: {S} , |S| = {   -0.00000    0.00000   -0.00000 }     0.00000

siesta: Atomic forces (eV/Ang):
     1    2.476440   -0.511872   -0.000000
     2   -0.539198   -0.506145    0.000000
     3    0.084563   -0.622481    0.000000
     4   -2.399323    0.985085    0.000000
     5    0.219331   -0.006000   -0.000000
     6    0.238435    0.213416    0.000000
     7   -0.030669   -0.057841    0.000000
     8    0.739163    1.269425   -0.000000
     9    2.953444   -1.813487    0.000000
    10   -3.522895    0.896760    0.000000
    11    0.010035    0.333746   -0.000000
    12   -0.493800    0.060254    0.000000
    13    0.266876   -0.221917   -0.000000
----------------------------------------
   Tot    0.002402    0.018943   -0.000000
----------------------------------------
   Max    3.522895
   Res    1.038762    sqrt( Sum f_i^2 / 3N )
----------------------------------------
   Max    3.522895    constrained

Stress tensor Voigt[x,y,z,yz,xz,xy] (kbar):       -7.83       -0.28       -0.05       -0.00       -0.00        4.77
(Free)E + p*V (eV/cell)    -3964.9671
Target enthalpy (eV/cell)    -3968.0440

                     ====================================
                        Begin Broyden opt. move =      2
                     ====================================

outcoor: Atomic coordinates (Ang):                          
    0.96572081    3.51646324    0.00000000   1       1  H
    0.25772659    2.73527320    0.00000000   2       2  N
   -1.43723104    3.22414325    0.00000000   3       3  Si
   -1.54717210    4.71558167    0.00000000   1       4  H
   -2.96939626    1.65863702    0.00000000   3       5  Si
   -4.44223716    1.88994319    0.00000000   1       6  H
   -1.73603914   -0.23168965    0.00000000   3       7  Si
   -2.49133593   -1.80146261    0.00000000   2       8  N
   -1.90992052   -2.67676747    0.00000000   1       9  H
   -3.52718082   -1.97968268    0.00000000   1      10  H
   -0.05187567   -0.23219754    0.00000000   2      11  N
    1.04813052    1.08714458    0.00000000   3      12  Si
    2.62564819    1.15552610    0.00000000   4      13  O

outcell: Unit cell vectors (Ang):
       13.908324    0.000000    0.000000
        0.000000   14.884805    0.000000
        0.000000    0.000000    8.754136

outcell: Cell vector modules (Ang)   :   13.908324   14.884805    8.754136
outcell: Cell angles (23,13,12) (deg):     90.0000     90.0000     90.0000
outcell: Cell volume (Ang**3)        :   1812.3048
<dSpData1D:S at geom step 2
  <sparsity:sparsity for geom step 2
    nrows_g=129 nrows=5 sparsity=.0379 nnzs=630, refcount: 8>
  <dData1D:(new from dSpData1D) n=630, refcount: 1>
refcount: 1>
new_DM -- step:     3
Re-using DM from previous geometries...
Number of DMs in history: 1
 DM extrapolation coefficients: 
1   1.00000
New DM after history re-use:
<dSpData2D:SpM extrapolated using coords
  <sparsity:sparsity for geom step 2
    nrows_g=129 nrows=5 sparsity=.0379 nnzs=630, refcount: 10>
  <dData2D:(temp array for extrapolation) n=630 m=8, refcount: 1>
refcount: 1>
     spin moment: {S} , |S| = {   -0.00000   -0.00000   -0.00000 }     0.00000
Note: For starting DM, Qtot, Tr[D*S] =         42.00000000         41.95727262

InitMesh: MESH = 150 x 160 x 96 = 2304000
InitMesh: Mesh cutoff (required, used) =   300.000   319.342 Ry
New grid distribution [1]: sub = 2
New grid distribution [2]: sub = 2
New grid distribution [3]: sub = 2
Setting up quadratic distribution...

        iscf     Eharris(eV)        E_KS(eV)     FreeEng(eV)     dDmax    Ef(eV) dHmax(eV)
   scf:    1    -3968.519201    -3968.303235    -3968.303235  0.020499 -4.348079  0.473268
     spin moment: {S} , |S| = {    0.00000   -0.00000   -0.00000 }     0.00000
   scf:    2    -3968.193970    -3968.276264    -3968.276264  0.014816 -4.606900  1.129811
     spin moment: {S} , |S| = {    0.00000   -0.00000   -0.00000 }     0.00000
   scf:    3    -3968.324255    -3968.313696    -3968.313696  0.011062 -4.439824  0.091835
     spin moment: {S} , |S| = {    0.00000   -0.00000   -0.00000 }     0.00000
   scf:    4    -3968.314011    -3968.313881    -3968.313881  0.000947 -4.449012  0.031187
     spin moment: {S} , |S| = {    0.00000   -0.00000   -0.00000 }     0.00000
   scf:    5    -3968.313912    -3968.313899    -3968.313899  0.000380 -4.451796  0.009042
     spin moment: {S} , |S| = {    0.00000   -0.00000   -0.00000 }     0.00000
   scf:    6    -3968.313902    -3968.313901    -3968.313901  0.000153 -4.452313  0.002291
     spin moment: {S} , |S| = {    0.00000   -0.00000   -0.00000 }     0.00000
   scf:    7    -3968.313901    -3968.313901    -3968.313901  0.000056 -4.452506  0.000740
     spin moment: {S} , |S| = {    0.00000   -0.00000   -0.00000 }     0.00000
   scf:    8    -3968.313901    -3968.313901    -3968.313901  0.000039 -4.452555  0.000164
     spin moment: {S} , |S| = {    0.00000   -0.00000   -0.00000 }     0.00000
   scf:    9    -3968.313901    -3968.313901    -3968.313901  0.000007 -4.452570  0.000113
     spin moment: {S} , |S| = {    0.00000   -0.00000   -0.00000 }     0.00000
   scf:   10    -3968.313901    -3968.313901    -3968.313901  0.000007 -4.452589  0.000048
     spin moment: {S} , |S| = {    0.00000   -0.00000   -0.00000 }     0.00000
   scf:   11    -3968.313901    -3968.313901    -3968.313901  0.000003 -4.452596  0.000031
     spin moment: {S} , |S| = {    0.00000   -0.00000   -0.00000 }     0.00000
   scf:   12    -3968.313901    -3968.313901    -3968.313901  0.000002 -4.452598  0.000012
     spin moment: {S} , |S| = {    0.00000   -0.00000   -0.00000 }     0.00000
   scf:   13    -3968.313901    -3968.313901    -3968.313901  0.000001 -4.452599  0.000003
     spin moment: {S} , |S| = {    0.00000   -0.00000   -0.00000 }     0.00000
   scf:   14    -3968.313901    -3968.313901    -3968.313901  0.000000 -4.452599  0.000001
     spin moment: {S} , |S| = {    0.00000   -0.00000   -0.00000 }     0.00000
   scf:   15    -3968.313901    -3968.313901    -3968.313901  0.000000 -4.452599  0.000001
     spin moment: {S} , |S| = {    0.00000   -0.00000   -0.00000 }     0.00000

SCF Convergence by DM+H criterion
max |DM_out - DM_in|         :     0.0000000275
max |H_out - H_in|      (eV) :     0.0000006940
SCF cycle converged after 15 iterations

Using DM_out to compute the final energy and forces

siesta: E_KS(eV) =            -3968.3139
     spin moment: {S} , |S| = {    0.00000   -0.00000   -0.00000 }     0.00000

siesta: Atomic forces (eV/Ang):
     1   -0.856566    0.307064   -0.000000
     2    0.109066    0.077438    0.000000
     3   -0.032286   -0.290018    0.000000
     4    0.404836   -0.608234    0.000000
     5    0.234736   -0.056885   -0.000000
     6    0.218962    0.319423    0.000000
     7    0.097503    0.206058    0.000000
     8   -0.220737   -0.378184   -0.000000
     9    1.159046   -0.228254    0.000000
    10   -0.896927    0.588812    0.000000
    11   -0.066140    0.257976   -0.000000
    12   -0.107467    0.031885    0.000000
    13   -0.041878   -0.214021    0.000000
----------------------------------------
   Tot    0.002147    0.013061    0.000000
----------------------------------------
   Max    1.159046
   Res    0.343236    sqrt( Sum f_i^2 / 3N )
----------------------------------------
   Max    1.159046    constrained

Stress tensor Voigt[x,y,z,yz,xz,xy] (kbar):        1.85        1.98       -0.05       -0.00       -0.00        1.08
(Free)E + p*V (eV/cell)    -3969.7360
Target enthalpy (eV/cell)    -3968.3139

                     ====================================
                        Begin Broyden opt. move =      3
                     ====================================

outcoor: Atomic coordinates (Ang):                          
    0.96415270    3.51700247    0.00000000   1       1  H
    0.25793991    2.73543217    0.00000000   2       2  N
   -1.43728961    3.22370140    0.00000000   3       3  Si
   -1.54635604    4.71451534    0.00000000   1       4  H
   -2.96939626    1.65863702    0.00000000   3       5  Si
   -4.44188945    1.89045863    0.00000000   1       6  H
   -1.73587596   -0.23134521    0.00000000   3       7  Si
   -2.49174619   -1.80216569    0.00000000   2       8  N
   -1.90818307   -2.67703452    0.00000000   1       9  H
   -3.52844990   -1.97876322    0.00000000   1      10  H
   -0.05198571   -0.23179110    0.00000000   2      11  N
    1.04798284    1.08719366    0.00000000   3      12  Si
    2.62556263    1.15518556    0.00000000   4      13  O

outcell: Unit cell vectors (Ang):
       13.908324    0.000000    0.000000
        0.000000   14.884805    0.000000
        0.000000    0.000000    8.754136

outcell: Cell vector modules (Ang)   :   13.908324   14.884805    8.754136
outcell: Cell angles (23,13,12) (deg):     90.0000     90.0000     90.0000
outcell: Cell volume (Ang**3)        :   1812.3048
<dSpData1D:S at geom step 3
  <sparsity:sparsity for geom step 3
    nrows_g=129 nrows=5 sparsity=.0379 nnzs=630, refcount: 8>
  <dData1D:(new from dSpData1D) n=630, refcount: 1>
refcount: 1>
new_DM -- step:     4
Re-using DM from previous geometries...
Number of DMs in history: 1
 DM extrapolation coefficients: 
1   1.00000
New DM after history re-use:
<dSpData2D:SpM extrapolated using coords
  <sparsity:sparsity for geom step 3
    nrows_g=129 nrows=5 sparsity=.0379 nnzs=630, refcount: 10>
  <dData2D:(temp array for extrapolation) n=630 m=8, refcount: 1>
refcount: 1>
     spin moment: {S} , |S| = {    0.00000    0.00000   -0.00000 }     0.00000

InitMesh: MESH = 150 x 160 x 96 = 2304000
InitMesh: Mesh cutoff (required, used) =   300.000   319.342 Ry
New grid distribution [1]: sub = 2
New grid distribution [2]: sub = 2
New grid distribution [3]: sub = 2
Setting up quadratic distribution...

        iscf     Eharris(eV)        E_KS(eV)     FreeEng(eV)     dDmax    Ef(eV) dHmax(eV)
   scf:    1    -3968.322006    -3968.320214    -3968.320214  0.000824 -4.454563  0.026120
     spin moment: {S} , |S| = {    0.00000   -0.00000   -0.00000 }     0.00000
   scf:    2    -3968.319475    -3968.320005    -3968.320005  0.001057 -4.451905  0.063558
     spin moment: {S} , |S| = {    0.00000   -0.00000   -0.00000 }     0.00000
   scf:    3    -3968.320301    -3968.320244    -3968.320244  0.000823 -4.454111  0.003740
     spin moment: {S} , |S| = {    0.00000   -0.00000   -0.00000 }     0.00000
   scf:    4    -3968.320245    -3968.320245    -3968.320245  0.000039 -4.454141  0.001719
     spin moment: {S} , |S| = {    0.00000   -0.00000   -0.00000 }     0.00000
   scf:    5    -3968.320245    -3968.320245    -3968.320245  0.000031 -4.454202  0.000210
     spin moment: {S} , |S| = {    0.00000   -0.00000   -0.00000 }     0.00000
   scf:    6    -3968.320245    -3968.320245    -3968.320245  0.000007 -4.454184  0.000114
     spin moment: {S} , |S| = {    0.00000   -0.00000   -0.00000 }     0.00000
   scf:    7    -3968.320245    -3968.320245    -3968.320245  0.000006 -4.454168  0.000034
     spin moment: {S} , |S| = {    0.00000   -0.00000   -0.00000 }     0.00000
   scf:    8    -3968.320245    -3968.320245    -3968.320245  0.000002 -4.454164  0.000014
     spin moment: {S} , |S| = {    0.00000   -0.00000   -0.00000 }     0.00000
   scf:    9    -3968.320245    -3968.320245    -3968.320245  0.000001 -4.454163  0.000006
     spin moment: {S} , |S| = {    0.00000   -0.00000   -0.00000 }     0.00000
   scf:   10    -3968.320245    -3968.320245    -3968.320245  0.000000 -4.454163  0.000002
     spin moment: {S} , |S| = {    0.00000   -0.00000   -0.00000 }     0.00000
   scf:   11    -3968.320245    -3968.320245    -3968.320245  0.000000 -4.454163  0.000001
     spin moment: {S} , |S| = {    0.00000   -0.00000   -0.00000 }     0.00000
   scf:   12    -3968.320245    -3968.320245    -3968.320245  0.000000 -4.454163  0.000001
     spin moment: {S} , |S| = {    0.00000   -0.00000   -0.00000 }     0.00000

SCF Convergence by DM+H criterion
max |DM_out - DM_in|         :     0.0000000514
max |H_out - H_in|      (eV) :     0.0000006722
SCF cycle converged after 12 iterations

Using DM_out to compute the final energy and forces

siesta: E_KS(eV) =            -3968.3202
     spin moment: {S} , |S| = {    0.00000   -0.00000   -0.00000 }     0.00000

siesta: Atomic forces (eV/Ang):
     1   -0.636939    0.217779   -0.000000
     2    0.090027    0.065476    0.000000
     3   -0.025620   -0.300173    0.000000
     4    0.197537   -0.496420    0.000000
     5    0.234983   -0.058141   -0.000000
     6    0.214362    0.324851    0.000000
     7    0.078361    0.179473    0.000000
     8   -0.201949   -0.353715   -0.000000
     9    0.820950   -0.082061    0.000000
    10   -0.563378    0.436118    0.000000
    11   -0.064953    0.253556   -0.000000
    12   -0.095622    0.038823    0.000000
    13   -0.044740   -0.212717    0.000000
----------------------------------------
   Tot    0.003020    0.012847    0.000000
----------------------------------------
   Max    0.820950
   Res    0.256742    sqrt( Sum f_i^2 / 3N )
----------------------------------------
   Max    0.820950    constrained

Stress tensor Voigt[x,y,z,yz,xz,xy] (kbar):        1.84        1.94       -0.05       -0.00       -0.00        1.10
(Free)E + p*V (eV/cell)    -3969.7272
Target enthalpy (eV/cell)    -3968.3202

                     ====================================
                        Begin Broyden opt. move =      4
                     ====================================

outcoor: Atomic coordinates (Ang):                          
    0.96177408    3.51739525    0.00000000   1       1  H
    0.25865115    2.73599103    0.00000000   2       2  N
   -1.43746312    3.21829405    0.00000000   3       3  Si
   -1.55075226    4.71042073    0.00000000   1       4  H
   -2.96939626    1.65863702    0.00000000   3       5  Si
   -4.43847889    1.89602424    0.00000000   1       6  H
   -1.73525541   -0.22932647    0.00000000   3       7  Si
   -2.49426298   -1.80686999    0.00000000   2       8  N
   -1.90575224   -2.67371400    0.00000000   1       9  H
   -3.52692466   -1.97668195    0.00000000   1      10  H
   -0.05300935   -0.22771114    0.00000000   2      11  N
    1.04671953    1.08808276    0.00000000   3      12  Si
    2.62478407    1.15169176    0.00000000   4      13  O

outcell: Unit cell vectors (Ang):
       13.908324    0.000000    0.000000
        0.000000   14.884805    0.000000
        0.000000    0.000000    8.754136

outcell: Cell vector modules (Ang)   :   13.908324   14.884805    8.754136
outcell: Cell angles (23,13,12) (deg):     90.0000     90.0000     90.0000
outcell: Cell volume (Ang**3)        :   1812.3048
<dSpData1D:S at geom step 4
  <sparsity:sparsity for geom step 4
    nrows_g=129 nrows=5 sparsity=.0379 nnzs=630, refcount: 8>
  <dData1D:(new from dSpData1D) n=630, refcount: 1>
refcount: 1>
new_DM -- step:     5
Re-using DM from previous geometries...
Number of DMs in history: 1
 DM extrapolation coefficients: 
1   1.00000
New DM after history re-use:
<dSpData2D:SpM extrapolated using coords
  <sparsity:sparsity for geom step 4
    nrows_g=129 nrows=5 sparsity=.0379 nnzs=630, refcount: 10>
  <dData2D:(temp array for extrapolation) n=630 m=8, refcount: 1>
refcount: 1>
     spin moment: {S} , |S| = {    0.00000    0.00000   -0.00000 }     0.00000

InitMesh: MESH = 150 x 160 x 96 = 2304000
InitMesh: Mesh cutoff (required, used) =   300.000   319.342 Ry
New grid distribution [1]: sub = 2
New grid distribution [2]: sub = 2
New grid distribution [3]: sub = 2
Setting up quadratic distribution...

        iscf     Eharris(eV)        E_KS(eV)     FreeEng(eV)     dDmax    Ef(eV) dHmax(eV)
   scf:    1    -3968.298276    -3968.330469    -3968.330469  0.003554 -4.477194  0.156551
     spin moment: {S} , |S| = {    0.00000   -0.00000   -0.00000 }     0.00000
   scf:    2    -3968.309962    -3968.324835    -3968.324835  0.004710 -4.372238  0.462994
     spin moment: {S} , |S| = {    0.00000   -0.00000   -0.00000 }     0.00000
   scf:    3    -3968.333226    -3968.331525    -3968.331525  0.003626 -4.448362  0.015896
     spin moment: {S} , |S| = {    0.00000   -0.00000   -0.00000 }     0.00000
   scf:    4    -3968.331541    -3968.331534    -3968.331534  0.000092 -4.445922  0.008702
     spin moment: {S} , |S| = {    0.00000   -0.00000   -0.00000 }     0.00000
   scf:    5    -3968.331538    -3968.331537    -3968.331537  0.000075 -4.444326  0.001217
     spin moment: {S} , |S| = {    0.00000   -0.00000   -0.00000 }     0.00000
   scf:    6    -3968.331537    -3968.331537    -3968.331537  0.000015 -4.444091  0.000518
     spin moment: {S} , |S| = {    0.00000   -0.00000   -0.00000 }     0.00000
   scf:    7    -3968.331537    -3968.331537    -3968.331537  0.000011 -4.443967  0.000259
     spin moment: {S} , |S| = {    0.00000   -0.00000   -0.00000 }     0.00000
   scf:    8    -3968.331537    -3968.331537    -3968.331537  0.000008 -4.443903  0.000052
     spin moment: {S} , |S| = {    0.00000   -0.00000   -0.00000 }     0.00000
   scf:    9    -3968.331537    -3968.331537    -3968.331537  0.000001 -4.443901  0.000034
     spin moment: {S} , |S| = {    0.00000   -0.00000   -0.00000 }     0.00000
   scf:   10    -3968.331537    -3968.331537    -3968.331537  0.000000 -4.443901  0.000015
     spin moment: {S} , |S| = {    0.00000   -0.00000   -0.00000 }     0.00000
   scf:   11    -3968.331537    -3968.331537    -3968.331537  0.000000 -4.443902  0.000009
     spin moment: {S} , |S| = {    0.00000   -0.00000   -0.00000 }     0.00000
   scf:   12    -3968.331537    -3968.331537    -3968.331537  0.000000 -4.443902  0.000004
     spin moment: {S} , |S| = {    0.00000   -0.00000   -0.00000 }     0.00000
   scf:   13    -3968.331537    -3968.331537    -3968.331537  0.000000 -4.443903  0.000001
     spin moment: {S} , |S| = {    0.00000   -0.00000   -0.00000 }     0.00000
   scf:   14    -3968.331537    -3968.331537    -3968.331537  0.000000 -4.443903  0.000000
     spin moment: {S} , |S| = {    0.00000   -0.00000   -0.00000 }     0.00000

SCF Convergence by DM+H criterion
max |DM_out - DM_in|         :     0.0000000167
max |H_out - H_in|      (eV) :     0.0000003618
SCF cycle converged after 14 iterations

Using DM_out to compute the final energy and forces

siesta: E_KS(eV) =            -3968.3315
     spin moment: {S} , |S| = {    0.00000   -0.00000   -0.00000 }     0.00000

siesta: Atomic forces (eV/Ang):
     1   -0.598824    0.241975   -0.000000
     2    0.063461    0.030909    0.000000
     3   -0.008787   -0.196247    0.000000
     4    0.207240   -0.515806   -0.000000
     5    0.235801   -0.092742   -0.000000
     6    0.170471    0.290440    0.000000
     7   -0.038341    0.015507    0.000000
     8    0.006817   -0.018698   -0.000000
     9    0.809765   -0.187127    0.000000
    10   -0.689521    0.376375    0.000000
    11   -0.076277    0.208145   -0.000000
    12   -0.014979    0.064314    0.000000
    13   -0.062948   -0.195807    0.000000
----------------------------------------
   Tot    0.003879    0.021239    0.000000
----------------------------------------
   Max    0.809765
   Res    0.245633    sqrt( Sum f_i^2 / 3N )
----------------------------------------
   Max    0.809765    constrained

Stress tensor Voigt[x,y,z,yz,xz,xy] (kbar):        1.53        1.93       -0.05       -0.00       -0.00        1.03
(Free)E + p*V (eV/cell)    -3969.6152
Target enthalpy (eV/cell)    -3968.3315

                     ====================================
                        Begin Broyden opt. move =      5
                     ====================================

outcoor: Atomic coordinates (Ang):                          
    0.95327501    3.52051801    0.00000000   1       1  H
    0.25997136    2.73661803    0.00000000   2       2  N
   -1.43747508    3.21004992    0.00000000   3       3  Si
   -1.55589085    4.69874516    0.00000000   1       4  H
   -2.96939626    1.65863702    0.00000000   3       5  Si
   -4.43238647    1.90700556    0.00000000   1       6  H
   -1.73713380   -0.22944507    0.00000000   3       7  Si
   -2.49414826   -1.80811235    0.00000000   2       8  N
   -1.89764166   -2.67065325    0.00000000   1       9  H
   -3.53012603   -1.97227331    0.00000000   1      10  H
   -0.05561986   -0.22025033    0.00000000   2      11  N
    1.04648774    1.09067371    0.00000000   3      12  Si
    2.62241942    1.14463879    0.00000000   4      13  O

outcell: Unit cell vectors (Ang):
       13.908324    0.000000    0.000000
        0.000000   14.884805    0.000000
        0.000000    0.000000    8.754136

outcell: Cell vector modules (Ang)   :   13.908324   14.884805    8.754136
outcell: Cell angles (23,13,12) (deg):     90.0000     90.0000     90.0000
outcell: Cell volume (Ang**3)        :   1812.3048
<dSpData1D:S at geom step 5
  <sparsity:sparsity for geom step 5
    nrows_g=129 nrows=5 sparsity=.0379 nnzs=630, refcount: 8>
  <dData1D:(new from dSpData1D) n=630, refcount: 1>
refcount: 1>
new_DM -- step:     6
Re-using DM from previous geometries...
Number of DMs in history: 1
 DM extrapolation coefficients: 
1   1.00000
New DM after history re-use:
<dSpData2D:SpM extrapolated using coords
  <sparsity:sparsity for geom step 5
    nrows_g=129 nrows=5 sparsity=.0379 nnzs=630, refcount: 10>
  <dData2D:(temp array for extrapolation) n=630 m=8, refcount: 1>
refcount: 1>
     spin moment: {S} , |S| = {    0.00000   -0.00000   -0.00000 }     0.00000

InitMesh: MESH = 150 x 160 x 96 = 2304000
InitMesh: Mesh cutoff (required, used) =   300.000   319.342 Ry
New grid distribution [1]: sub = 2
New grid distribution [2]: sub = 2
New grid distribution [3]: sub = 2
Setting up quadratic distribution...

        iscf     Eharris(eV)        E_KS(eV)     FreeEng(eV)     dDmax    Ef(eV) dHmax(eV)
   scf:    1    -3968.318120    -3968.346285    -3968.346285  0.003276 -4.434625  0.164116
     spin moment: {S} , |S| = {    0.00000   -0.00000    0.00000 }     0.00000
   scf:    2    -3968.306983    -3968.335321    -3968.335321  0.005584 -4.351304  0.487331
     spin moment: {S} , |S| = {    0.00000   -0.00000   -0.00000 }     0.00000
   scf:    3    -3968.351288    -3968.348055    -3968.348055  0.004208 -4.414955  0.012454
     spin moment: {S} , |S| = {    0.00000   -0.00000   -0.00000 }     0.00000
   scf:    4    -3968.348066    -3968.348061    -3968.348061  0.000127 -4.414791  0.006611
     spin moment: {S} , |S| = {    0.00000   -0.00000    0.00000 }     0.00000
   scf:    5    -3968.348065    -3968.348063    -3968.348063  0.000113 -4.415041  0.001774
     spin moment: {S} , |S| = {    0.00000   -0.00000    0.00000 }     0.00000
   scf:    6    -3968.348063    -3968.348063    -3968.348063  0.000033 -4.414890  0.000503
     spin moment: {S} , |S| = {    0.00000   -0.00000    0.00000 }     0.00000
   scf:    7    -3968.348063    -3968.348063    -3968.348063  0.000015 -4.414725  0.000108
     spin moment: {S} , |S| = {    0.00000   -0.00000    0.00000 }     0.00000
   scf:    8    -3968.348063    -3968.348063    -3968.348063  0.000003 -4.414698  0.000041
     spin moment: {S} , |S| = {    0.00000   -0.00000    0.00000 }     0.00000
   scf:    9    -3968.348063    -3968.348063    -3968.348063  0.000002 -4.414689  0.000023
     spin moment: {S} , |S| = {    0.00000   -0.00000    0.00000 }     0.00000
   scf:   10    -3968.348063    -3968.348063    -3968.348063  0.000001 -4.414689  0.000010
     spin moment: {S} , |S| = {    0.00000   -0.00000    0.00000 }     0.00000
   scf:   11    -3968.348063    -3968.348063    -3968.348063  0.000000 -4.414690  0.000007
     spin moment: {S} , |S| = {    0.00000   -0.00000    0.00000 }     0.00000
   scf:   12    -3968.348063    -3968.348063    -3968.348063  0.000000 -4.414690  0.000003
     spin moment: {S} , |S| = {    0.00000   -0.00000    0.00000 }     0.00000
   scf:   13    -3968.348063    -3968.348063    -3968.348063  0.000000 -4.414690  0.000001
     spin moment: {S} , |S| = {    0.00000   -0.00000    0.00000 }     0.00000

SCF Convergence by DM+H criterion
max |DM_out - DM_in|         :     0.0000000678
max |H_out - H_in|      (eV) :     0.0000009162
SCF cycle converged after 13 iterations

Using DM_out to compute the final energy and forces

siesta: E_KS(eV) =            -3968.3481
     spin moment: {S} , |S| = {    0.00000   -0.00000    0.00000 }     0.00000

siesta: Atomic forces (eV/Ang):
     1    0.228836    0.015284   -0.000000
     2   -0.041219   -0.064692    0.000000
     3    0.016970   -0.173895    0.000000
     4   -0.390245   -0.025626    0.000000
     5    0.231232   -0.152633   -0.000000
     6    0.021028    0.156083    0.000000
     7   -0.040151    0.020676    0.000000
     8   -0.025619    0.012140   -0.000000
     9   -0.351260    0.282011    0.000000
    10    0.500100   -0.093021   -0.000000
    11   -0.110029    0.159899   -0.000000
    12   -0.075636    0.055410    0.000000
    13    0.049664   -0.152343    0.000000
----------------------------------------
   Tot    0.013671    0.039293    0.000000
[...]

                     ====================================
                        Begin Broyden opt. move =     27
                     ====================================

outcoor: Atomic coordinates (Ang):                          
    0.96831524    3.54500376    0.00000000   1       1  H
    0.28659514    2.74915681    0.00000000   2       2  N
   -1.42104153    3.18946219    0.00000000   3       3  Si
   -1.56519623    4.67699290    0.00000000   1       4  H
   -2.96939626    1.65863702    0.00000000   3       5  Si
   -4.43882605    1.91441963    0.00000000   1       6  H
   -1.75435106   -0.21023678    0.00000000   3       7  Si
   -2.48398823   -1.79033175    0.00000000   2       8  N
   -1.87418577   -2.63877590    0.00000000   1       9  H
   -3.51361896   -1.96430140    0.00000000   1      10  H
   -0.08573210   -0.16292344    0.00000000   2      11  N
    1.05385903    1.10056967    0.00000000   3      12  Si
    2.62939036    1.07126676    0.00000000   4      13  O

outcell: Unit cell vectors (Ang):
       13.908324    0.000000    0.000000
        0.000000   14.884805    0.000000
        0.000000    0.000000    8.754136

outcell: Cell vector modules (Ang)   :   13.908324   14.884805    8.754136
outcell: Cell angles (23,13,12) (deg):     90.0000     90.0000     90.0000
outcell: Cell volume (Ang**3)        :   1812.3048
<dSpData1D:S at geom step 27
  <sparsity:sparsity for geom step 27
    nrows_g=129 nrows=5 sparsity=.0379 nnzs=630, refcount: 8>
  <dData1D:(new from dSpData1D) n=630, refcount: 1>
refcount: 1>
new_DM -- step:    28
Re-using DM from previous geometries...
Number of DMs in history: 1
 DM extrapolation coefficients: 
1   1.00000
New DM after history re-use:
<dSpData2D:SpM extrapolated using coords
  <sparsity:sparsity for geom step 27
    nrows_g=129 nrows=5 sparsity=.0379 nnzs=630, refcount: 10>
  <dData2D:(temp array for extrapolation) n=630 m=8, refcount: 1>
refcount: 1>
     spin moment: {S} , |S| = {   -0.00000    0.00000    0.00000 }     0.00000

InitMesh: MESH = 150 x 160 x 96 = 2304000
InitMesh: Mesh cutoff (required, used) =   300.000   319.342 Ry
New grid distribution [1]: sub = 2
New grid distribution [2]: sub = 2
New grid distribution [3]: sub = 2
Setting up quadratic distribution...

        iscf     Eharris(eV)        E_KS(eV)     FreeEng(eV)     dDmax    Ef(eV) dHmax(eV)
   scf:    1    -3968.371769    -3968.372341    -3968.372341  0.000146 -4.008733  0.004168
     spin moment: {S} , |S| = {   -0.00000    0.00000    0.00000 }     0.00000
   scf:    2    -3968.372315    -3968.372333    -3968.372333  0.000229 -4.008222  0.014767
     spin moment: {S} , |S| = {   -0.00000    0.00000    0.00000 }     0.00000
   scf:    3    -3968.372344    -3968.372342    -3968.372342  0.000176 -4.008601  0.000450
     spin moment: {S} , |S| = {   -0.00000    0.00000    0.00000 }     0.00000
   scf:    4    -3968.372342    -3968.372342    -3968.372342  0.000008 -4.008627  0.000138
     spin moment: {S} , |S| = {   -0.00000    0.00000    0.00000 }     0.00000
   scf:    5    -3968.372342    -3968.372342    -3968.372342  0.000003 -4.008630  0.000044
     spin moment: {S} , |S| = {   -0.00000    0.00000    0.00000 }     0.00000
   scf:    6    -3968.372342    -3968.372342    -3968.372342  0.000002 -4.008635  0.000014
     spin moment: {S} , |S| = {   -0.00000    0.00000    0.00000 }     0.00000
   scf:    7    -3968.372342    -3968.372342    -3968.372342  0.000001 -4.008636  0.000009
     spin moment: {S} , |S| = {   -0.00000    0.00000    0.00000 }     0.00000
   scf:    8    -3968.372342    -3968.372342    -3968.372342  0.000000 -4.008636  0.000004
     spin moment: {S} , |S| = {   -0.00000    0.00000    0.00000 }     0.00000
   scf:    9    -3968.372342    -3968.372342    -3968.372342  0.000000 -4.008636  0.000001
     spin moment: {S} , |S| = {   -0.00000    0.00000    0.00000 }     0.00000

SCF Convergence by DM+H criterion
max |DM_out - DM_in|         :     0.0000001969
max |H_out - H_in|      (eV) :     0.0000007892
SCF cycle converged after 9 iterations

Using DM_out to compute the final energy and forces

siesta: E_KS(eV) =            -3968.3723
     spin moment: {S} , |S| = {   -0.00000    0.00000    0.00000 }     0.00000

siesta: Atomic forces (eV/Ang):
     1    0.006767    0.000387    0.000000
     2    0.006235    0.000972    0.000000
     3    0.003122   -0.004586   -0.000000
     4    0.000257   -0.002871    0.000000
     5   -0.036405    0.002892   -0.000000
     6    0.001463    0.000584   -0.000000
     7    0.003957    0.001502    0.000000
     8    0.000227    0.001902   -0.000000
     9    0.005183    0.001196    0.000000
    10    0.005042    0.001994   -0.000000
    11    0.004831    0.000333   -0.000000
    12    0.008023   -0.000145   -0.000000
    13    0.006573   -0.002603    0.000000
----------------------------------------
   Tot    0.015277    0.001556    0.000000
----------------------------------------
   Max    0.036405
   Res    0.006560    sqrt( Sum f_i^2 / 3N )
----------------------------------------
   Max    0.008023    constrained

Stress tensor Voigt[x,y,z,yz,xz,xy] (kbar):        0.03        0.02       -0.05       -0.00       -0.00        0.02
(Free)E + p*V (eV/cell)    -3968.3696
Target enthalpy (eV/cell)    -3968.3723

                     ====================================
                        Begin Broyden opt. move =     28
                     ====================================

outcoor: Atomic coordinates (Ang):                          
    0.96856238    3.54501109    0.00000000   1       1  H
    0.28687195    2.74915253    0.00000000   2       2  N
   -1.42087431    3.18926675    0.00000000   3       3  Si
   -1.56513755    4.67682193    0.00000000   1       4  H
   -2.96939626    1.65863702    0.00000000   3       5  Si
   -4.43880732    1.91436189    0.00000000   1       6  H
   -1.75414635   -0.21015890    0.00000000   3       7  Si
   -2.48394676   -1.79022608    0.00000000   2       8  N
   -1.87399849   -2.63865500    0.00000000   1       9  H
   -3.51355069   -1.96429379    0.00000000   1      10  H
   -0.08548988   -0.16278314    0.00000000   2      11  N
    1.05428060    1.10061481    0.00000000   3      12  Si
    2.62980308    1.07126573    0.00000000   4      13  O

outcell: Unit cell vectors (Ang):
       13.908324    0.000000    0.000000
        0.000000   14.884805    0.000000
        0.000000    0.000000    8.754136

outcell: Cell vector modules (Ang)   :   13.908324   14.884805    8.754136
outcell: Cell angles (23,13,12) (deg):     90.0000     90.0000     90.0000
outcell: Cell volume (Ang**3)        :   1812.3048
<dSpData1D:S at geom step 28
  <sparsity:sparsity for geom step 28
    nrows_g=129 nrows=5 sparsity=.0379 nnzs=630, refcount: 8>
  <dData1D:(new from dSpData1D) n=630, refcount: 1>
refcount: 1>
new_DM -- step:    29
Re-using DM from previous geometries...
Number of DMs in history: 1
 DM extrapolation coefficients: 
1   1.00000
New DM after history re-use:
<dSpData2D:SpM extrapolated using coords
  <sparsity:sparsity for geom step 28
    nrows_g=129 nrows=5 sparsity=.0379 nnzs=630, refcount: 10>
  <dData2D:(temp array for extrapolation) n=630 m=8, refcount: 1>
refcount: 1>
     spin moment: {S} , |S| = {   -0.00000    0.00000    0.00000 }     0.00000

InitMesh: MESH = 150 x 160 x 96 = 2304000
InitMesh: Mesh cutoff (required, used) =   300.000   319.342 Ry
New grid distribution [1]: sub = 2
New grid distribution [2]: sub = 2
New grid distribution [3]: sub = 2
Setting up quadratic distribution...

        iscf     Eharris(eV)        E_KS(eV)     FreeEng(eV)     dDmax    Ef(eV) dHmax(eV)
   scf:    1    -3968.373016    -3968.372355    -3968.372355  0.000065 -4.012254  0.003099
     spin moment: {S} , |S| = {   -0.00000    0.00000    0.00000 }     0.00000
   scf:    2    -3968.372345    -3968.372352    -3968.372352  0.000130 -4.013946  0.010545
     spin moment: {S} , |S| = {   -0.00000    0.00000    0.00000 }     0.00000
   scf:    3    -3968.372356    -3968.372356    -3968.372356  0.000101 -4.012670  0.000503
     spin moment: {S} , |S| = {   -0.00000    0.00000    0.00000 }     0.00000
   scf:    4    -3968.372356    -3968.372356    -3968.372356  0.000004 -4.012722  0.000163
     spin moment: {S} , |S| = {   -0.00000    0.00000    0.00000 }     0.00000
   scf:    5    -3968.372356    -3968.372356    -3968.372356  0.000001 -4.012743  0.000020
     spin moment: {S} , |S| = {   -0.00000    0.00000    0.00000 }     0.00000
   scf:    6    -3968.372356    -3968.372356    -3968.372356  0.000000 -4.012748  0.000006
     spin moment: {S} , |S| = {   -0.00000    0.00000    0.00000 }     0.00000
   scf:    7    -3968.372356    -3968.372356    -3968.372356  0.000000 -4.012750  0.000002
     spin moment: {S} , |S| = {   -0.00000    0.00000    0.00000 }     0.00000
   scf:    8    -3968.372356    -3968.372356    -3968.372356  0.000000 -4.012750  0.000001
     spin moment: {S} , |S| = {   -0.00000    0.00000    0.00000 }     0.00000

SCF Convergence by DM+H criterion
max |DM_out - DM_in|         :     0.0000000899
max |H_out - H_in|      (eV) :     0.0000007758
SCF cycle converged after 8 iterations

Using DM_out to compute the final energy and forces

siesta: E_KS(eV) =            -3968.3724
     spin moment: {S} , |S| = {   -0.00000    0.00000    0.00000 }     0.00000

siesta: Atomic forces (eV/Ang):
     1   -0.000861    0.004395    0.000000
     2    0.006071    0.000278    0.000000
     3    0.003950   -0.002947   -0.000000
     4    0.008421   -0.006504    0.000000
     5   -0.034522    0.001825   -0.000000
     6    0.000434    0.000982   -0.000000
     7    0.003596    0.001649    0.000000
     8    0.004875   -0.000679   -0.000000
     9   -0.004105    0.006480    0.000000
    10    0.011462   -0.000994   -0.000000
    11    0.004973    0.000558   -0.000000
    12    0.005055   -0.000554   -0.000000
    13    0.006562   -0.002452    0.000000
----------------------------------------
   Tot    0.015908    0.002037    0.000000
----------------------------------------
   Max    0.034522
   Res    0.006644    sqrt( Sum f_i^2 / 3N )
----------------------------------------
   Max    0.011462    constrained

Stress tensor Voigt[x,y,z,yz,xz,xy] (kbar):        0.06        0.02       -0.05       -0.00       -0.00        0.01
(Free)E + p*V (eV/cell)    -3968.3852
Target enthalpy (eV/cell)    -3968.3724

                     ====================================
                        Begin Broyden opt. move =     29
                     ====================================

outcoor: Atomic coordinates (Ang):                          
    0.96870821    3.54504425    0.00000000   1       1  H
    0.28711258    2.74912691    0.00000000   2       2  N
   -1.42071279    3.18910325    0.00000000   3       3  Si
   -1.56500281    4.67662439    0.00000000   1       4  H
   -2.96939626    1.65863702    0.00000000   3       5  Si
   -4.43880620    1.91429835    0.00000000   1       6  H
   -1.75395092   -0.21008586    0.00000000   3       7  Si
   -2.48388205   -1.79015748    0.00000000   2       8  N
   -1.87391688   -2.63849724    0.00000000   1       9  H
   -3.51345758   -1.96432550    0.00000000   1      10  H
   -0.08526415   -0.16264518    0.00000000   2      11  N
    1.05464802    1.10066092    0.00000000   3      12  Si
    2.63019961    1.07131432    0.00000000   4      13  O

outcell: Unit cell vectors (Ang):
       13.908324    0.000000    0.000000
        0.000000   14.884805    0.000000
        0.000000    0.000000    8.754136

outcell: Cell vector modules (Ang)   :   13.908324   14.884805    8.754136
outcell: Cell angles (23,13,12) (deg):     90.0000     90.0000     90.0000
outcell: Cell volume (Ang**3)        :   1812.3048
<dSpData1D:S at geom step 29
  <sparsity:sparsity for geom step 29
    nrows_g=129 nrows=5 sparsity=.0379 nnzs=630, refcount: 8>
  <dData1D:(new from dSpData1D) n=630, refcount: 1>
refcount: 1>
new_DM -- step:    30
Re-using DM from previous geometries...
Number of DMs in history: 1
 DM extrapolation coefficients: 
1   1.00000
New DM after history re-use:
<dSpData2D:SpM extrapolated using coords
  <sparsity:sparsity for geom step 29
    nrows_g=129 nrows=5 sparsity=.0379 nnzs=630, refcount: 10>
  <dData2D:(temp array for extrapolation) n=630 m=8, refcount: 1>
refcount: 1>
     spin moment: {S} , |S| = {   -0.00000    0.00000    0.00000 }     0.00000

InitMesh: MESH = 150 x 160 x 96 = 2304000
InitMesh: Mesh cutoff (required, used) =   300.000   319.342 Ry
New grid distribution [1]: sub = 2
New grid distribution [2]: sub = 2
New grid distribution [3]: sub = 2
Setting up quadratic distribution...

        iscf     Eharris(eV)        E_KS(eV)     FreeEng(eV)     dDmax    Ef(eV) dHmax(eV)
   scf:    1    -3968.372372    -3968.372367    -3968.372367  0.000054 -4.015936  0.001714
     spin moment: {S} , |S| = {   -0.00000    0.00000    0.00000 }     0.00000
   scf:    2    -3968.372363    -3968.372366    -3968.372366  0.000075 -4.016464  0.005781
     spin moment: {S} , |S| = {   -0.00000    0.00000    0.00000 }     0.00000
   scf:    3    -3968.372367    -3968.372367    -3968.372367  0.000058 -4.016021  0.000209
     spin moment: {S} , |S| = {   -0.00000    0.00000    0.00000 }     0.00000
   scf:    4    -3968.372367    -3968.372367    -3968.372367  0.000003 -4.016014  0.000086
     spin moment: {S} , |S| = {   -0.00000    0.00000    0.00000 }     0.00000
   scf:    5    -3968.372367    -3968.372367    -3968.372367  0.000001 -4.016012  0.000030
     spin moment: {S} , |S| = {   -0.00000    0.00000    0.00000 }     0.00000
   scf:    6    -3968.372367    -3968.372367    -3968.372367  0.000001 -4.016013  0.000005
     spin moment: {S} , |S| = {   -0.00000    0.00000    0.00000 }     0.00000
   scf:    7    -3968.372367    -3968.372367    -3968.372367  0.000000 -4.016014  0.000001
     spin moment: {S} , |S| = {   -0.00000    0.00000    0.00000 }     0.00000
   scf:    8    -3968.372367    -3968.372367    -3968.372367  0.000000 -4.016014  0.000000
     spin moment: {S} , |S| = {   -0.00000    0.00000    0.00000 }     0.00000

SCF Convergence by DM+H criterion
max |DM_out - DM_in|         :     0.0000000568
max |H_out - H_in|      (eV) :     0.0000004534
SCF cycle converged after 8 iterations

Using DM_out to compute the final energy and forces

siesta: E_KS(eV) =            -3968.3724
     spin moment: {S} , |S| = {   -0.00000    0.00000    0.00000 }     0.00000

siesta: Atomic forces (eV/Ang):
     1    0.005872    0.002106    0.000000
     2    0.004959   -0.000206    0.000000
     3    0.004377   -0.002949   -0.000000
     4    0.002342   -0.002958    0.000000
     5   -0.032940    0.001056   -0.000000
     6    0.000179    0.001319   -0.000000
     7    0.002972    0.001328    0.000000
     8    0.005231    0.002586   -0.000000
     9    0.005845    0.000377    0.000000
    10    0.002552    0.002866   -0.000000
    11    0.004264   -0.000243   -0.000000
    12    0.004473   -0.000740   -0.000000
    13    0.004922   -0.002438    0.000000
----------------------------------------
   Tot    0.015049    0.002105    0.000000
----------------------------------------
   Max    0.032940
   Res    0.005897    sqrt( Sum f_i^2 / 3N )
----------------------------------------
   Max    0.005872    constrained

Stress tensor Voigt[x,y,z,yz,xz,xy] (kbar):        0.04        0.01       -0.05       -0.00       -0.00        0.02
(Free)E + p*V (eV/cell)    -3968.3754
Target enthalpy (eV/cell)    -3968.3724

outcoor: Relaxed atomic coordinates (Ang):                  
    0.96870821    3.54504425    0.00000000   1       1  H
    0.28711258    2.74912691    0.00000000   2       2  N
   -1.42071279    3.18910325    0.00000000   3       3  Si
   -1.56500281    4.67662439    0.00000000   1       4  H
   -2.96939626    1.65863702    0.00000000   3       5  Si
   -4.43880620    1.91429835    0.00000000   1       6  H
   -1.75395092   -0.21008586    0.00000000   3       7  Si
   -2.48388205   -1.79015748    0.00000000   2       8  N
   -1.87391688   -2.63849724    0.00000000   1       9  H
   -3.51345758   -1.96432550    0.00000000   1      10  H
   -0.08526415   -0.16264518    0.00000000   2      11  N
    1.05464802    1.10066092    0.00000000   3      12  Si
    2.63019961    1.07131432    0.00000000   4      13  O

siesta: Program's energy decomposition (eV):
siesta: Ebs     =      -479.105982
siesta: Eions   =      4233.020741
siesta: Ena     =       936.102479
siesta: Ekin    =      1147.442590
siesta: Enl(+so)=      -772.573531
siesta: Eso(nil)=         0.000000
siesta: Edftu   =         0.000000
siesta: DEna    =         0.776295
siesta: DUscf   =         5.400048
siesta: DUext   =         0.000000
siesta: Ex      =      -988.295192
siesta: Ec      =       -64.204315
siesta: Exc     =     -1052.499507
siesta: EbV     =         0.000000
siesta: eta*DQ  =         0.000000
siesta: Emadel  =         0.000000
siesta: Emeta   =         0.000000
siesta: Emolmec =         0.000000
siesta: Ekinion =         0.000000
siesta: Eharris =     -3968.372367
siesta: Etot    =     -3968.372367
siesta: FreeEng =     -3968.372367

siesta: Final energy (eV):
siesta:  Band Struct. =    -479.105982
siesta:       Kinetic =    1147.442590
siesta:       Hartree =    2622.161702
siesta:         Edftu =       0.000000
siesta:      Eso(nil) =       0.000000
siesta:    Ext. field =       0.000000
siesta:         Exch. =    -988.295192
siesta:         Corr. =     -64.204315
siesta:     Bulk bias =       0.000000
siesta:   Exch.-corr. =   -1052.499507
siesta:  Ion-electron =   -6242.358504
siesta:       Ion-ion =    -443.118648
siesta:       Ekinion =       0.000000
siesta: D3 dispersion =       0.000000
siesta:         Total =   -3968.372367
siesta:         Fermi =      -4.016014

siesta: Atomic forces (eV/Ang):
siesta:      1    0.005872    0.002106    0.000000
siesta:      2    0.004959   -0.000206    0.000000
siesta:      3    0.004377   -0.002949   -0.000000
siesta:      4    0.002342   -0.002958    0.000000
siesta:      5   -0.032940    0.001056   -0.000000
siesta:      6    0.000179    0.001319   -0.000000
siesta:      7    0.002972    0.001328    0.000000
siesta:      8    0.005231    0.002586   -0.000000
siesta:      9    0.005845    0.000377    0.000000
siesta:     10    0.002552    0.002866   -0.000000
siesta:     11    0.004264   -0.000243   -0.000000
siesta:     12    0.004473   -0.000740   -0.000000
siesta:     13    0.004922   -0.002438    0.000000
siesta: ----------------------------------------
siesta:    Tot    0.015049    0.002105    0.000000

siesta: Stress tensor (static) (eV/Ang**3):
siesta:     0.000028    0.000012   -0.000000
siesta:     0.000012    0.000009    0.000000
siesta:    -0.000000   -0.000000   -0.000032

siesta: Cell volume =       1812.304830 Ang**3

siesta: Pressure (static):
siesta:                Solid            Molecule  Units
siesta:          -0.00000002         -0.00000014  Ry/Bohr**3
siesta:          -0.00000169         -0.00001307  eV/Ang**3
siesta:          -0.00270990         -0.02094049  kBar
(Free)E+ p_basis*V_orbitals  =       -3962.098868
(Free)Eharris+ p_basis*V_orbitals  =       -3962.098868
     spin moment: {S} , |S| = {   -0.00000    0.00000    0.00000 }     0.00000

siesta: Electric dipole (a.u.)  =   -2.946126    0.211681   -0.000000
siesta: Electric dipole (Debye) =   -7.488304    0.538041   -0.000000

cite: Please see "Cytosine.bib" for an exhaustive BiBTeX file.
cite: Please clearly indicate Siesta version in published work: 5.1-MaX-41-g6ad11e234
cite: This calculation has made use of the following articles
cite: which are encouraged to be cited in a published work.
        Primary SIESTA paper
          DOI: www.doi.org/10.1088/0953-8984/14/11/302
        Spin-orbit coupling (off-site approximation)
          DOI: www.doi.org/10.1088/0953-8984/24/8/086005
        ELPA library
          DOI: www.doi.org/10.1088/0953-8984/26/21/213201


>> End of run:  11-OCT-2024  20:55:41
Job completed
