Siesta Version  : v4.1.5-1-g384057250
Architecture    : gcc
Compiler version: GNU Fortran (Ubuntu 11.3.0-1ubuntu1~22.04) 11.3.0
Compiler flags  : mpifort -O2 -fPIC -ftree-vectorize -fallow-argument-mismatch
PP flags        : -DFC_HAVE_ABORT -DMPI -DSIESTA__FLOOK -DSIESTA__METIS -DSIESTA__MUMPS -DCDF -DNCDF -DNCDF_4 -DNCDF_PARALLEL -DSIESTA__MRRR -DSIESTA__ELPA
Libraries       : libncdf.a libfdict.a  -lflookall -ldl -lnetcdff -lnetcdf -lhdf5_hl -lhdf5 -lhdf5_fortran -lz -lscalapack-openmpi -lopenblas -lmetis -lzmumps -lcmumps -ldmumps -lmumps_common -lpord -lsmumps -lesmumps -lscotch -lscotcherr -fopenmp -lelpa
PARALLEL version
NetCDF support
NetCDF-4 support
NetCDF-4 MPI-IO support
METIS ordering support
Lua support

* Running on 4 nodes in parallel
>> Start of run:   4-JUL-2023  10:35:36

                           ***********************       
                           *  WELCOME TO SIESTA  *       
                           ***********************       

reinit: Reading from standard input
reinit: Dumped input in INPUT_TMP.62874
************************** Dump of input data file ****************************
SystemLabel      GC
NumberOfAtoms    29
NumberOfSpecies  4
%block ChemicalSpeciesLabel
    1    8  O
    2    7  N
    3   14  Si
    4    1  H
%endblock ChemicalSpeciesLabel
# Single point calculation
MD.TypeOfRun                CG
MD.Steps                    0
SCF.MustConverge            F # In case it does not. There can be 2 very close atoms
AtomicCoordinatesFormat NotScaledCartesianAng
%block AtomicCoordinatesAndAtomicSpecies
0.958671510    3.803529300    0.000000000       1
-3.038688210   0.998073330    0.000000000       2
2.066567750    1.099065770    0.000000000       2
1.029569860    -1.834680850   0.000000000       2
-2.108567660   -1.881798240   0.000000000       2
3.912411070    -1.180894430   0.000000000       2
-1.235636790   1.044983000    0.000000000       3
-0.501909240   -1.031832280   0.000000000       3
0.629463280    2.232755840    0.000000000       3
2.280054370    -0.658293540   0.000000000       3
-3.424812990   -0.662324160   0.000000000       3
2.965974160    1.682263990    0.000000000       4
-4.796229390   -1.238728480   0.000000000       4
4.096559410    -2.214148760   0.000000000       4
4.792108680    -0.529147250   0.000000000       4
-2.266861300   -2.922393730   0.000000000       4
4.520513195    4.827288788    0.000000000       3
6.445990945    6.018918118    0.000000000       3
5.981184555    2.092734418    0.000000000       3
8.052364475    4.539781008    0.000000000       3
4.622797735    3.117934098    0.000000000       2
2.941135105    5.497518278    0.000000000       2
7.634254455    2.807898098    0.000000000       2
6.754481765    7.483579478    0.000000000       4
9.544037385    4.739760468    0.000000000       4
2.756508665    6.532392008    0.000000000       4
2.049043315    4.826229548    0.000000000       4
5.971053955    0.494505898    0.000000000       1
8.410852835    2.086067898    0.000000000       4
%endblock AtomicCoordinatesAndAtomicSpecies
%include ../../../Defaults.fdf
************************** End of input data file *****************************

reinit: -----------------------------------------------------------------------
reinit: System Name: 
reinit: -----------------------------------------------------------------------
reinit: System Label: GC
reinit: -----------------------------------------------------------------------

initatom: Reading input for the pseudopotentials and atomic orbitals ----------
Species number:   1 Atomic number:    8 Label: O
Species number:   2 Atomic number:    7 Label: N
Species number:   3 Atomic number:   14 Label: Si
Species number:   4 Atomic number:    1 Label: H

Ground state valence configuration:   2s02  2p04
Reading pseudopotential information in formatted form from O.psf

Pseudopotential generated from a relativistic atomic calculation

Valence configuration for pseudopotential generation:
2s( 2.00) rc: 0.45
2p( 4.00) rc: 0.92
3d( 0.00) rc: 2.24
4f( 0.00) rc: 0.25
Ground state valence configuration:   2s02  2p03
Reading pseudopotential information in formatted form from N.psf

Pseudopotential generated from a relativistic atomic calculation

Valence configuration for pseudopotential generation:
2s( 2.00) rc: 0.94
2p( 3.00) rc: 0.59
3d( 0.00) rc: 3.46
4f( 0.00) rc: 2.47
Ground state valence configuration:   3s02  3p02
Reading pseudopotential information in formatted form from Si.psf

Pseudopotential generated from a relativistic atomic calculation

Valence configuration for pseudopotential generation:
3s( 2.00) rc: 1.67
3p( 2.00) rc: 2.04
3d( 0.00) rc: 2.89
4f( 0.00) rc: 2.49
Ground state valence configuration:   1s01
Reading pseudopotential information in formatted form from H.psf

Pseudopotential generated from a relativistic atomic calculation

Valence configuration for pseudopotential generation:
1s( 1.00) rc: 0.01
2p( 0.00) rc: 0.60
3d( 0.00) rc: 1.99
4f( 0.00) rc: 2.49
For O, standard SIESTA heuristics set lmxkb to 3
 (one more than the basis l, including polarization orbitals).
Use PS.lmax or PS.KBprojectors blocks to override.
For N, standard SIESTA heuristics set lmxkb to 3
 (one more than the basis l, including polarization orbitals).
Use PS.lmax or PS.KBprojectors blocks to override.
For Si, standard SIESTA heuristics set lmxkb to 3
 (one more than the basis l, including polarization orbitals).
Use PS.lmax or PS.KBprojectors blocks to override.
For H, standard SIESTA heuristics set lmxkb to 2
 (one more than the basis l, including polarization orbitals).
Use PS.lmax or PS.KBprojectors blocks to override.

<basis_specs>
===============================================================================
O                    Z=   8    Mass=  16.000        Charge= 0.17977+309
Lmxo=1 Lmxkb= 3    BasisType=split      Semic=F
L=0  Nsemic=0  Cnfigmx=2
          i=1  nzeta=2  polorb=0  (2s)
            splnorm:   0.28000    
               vcte:    0.0000    
               rinn:    0.0000    
               qcoe:    0.0000    
               qyuk:    0.0000    
               qwid:   0.10000E-01
                rcs:    0.0000      0.0000    
            lambdas:    1.0000      1.0000    
L=1  Nsemic=0  Cnfigmx=2
          i=1  nzeta=2  polorb=1  (2p)
            splnorm:   0.28000    
               vcte:    0.0000    
               rinn:    0.0000    
               qcoe:    0.0000    
               qyuk:    0.0000    
               qwid:   0.10000E-01
                rcs:    0.0000      0.0000    
            lambdas:    1.0000      1.0000    
-------------------------------------------------------------------------------
L=0  Nkbl=1  erefs: 0.17977+309
L=1  Nkbl=1  erefs: 0.17977+309
L=2  Nkbl=1  erefs: 0.17977+309
L=3  Nkbl=1  erefs: 0.17977+309
===============================================================================
</basis_specs>

atom: Called for O                     (Z =   8)

read_vps: Pseudopotential generation method:
read_vps: ATM4.2.7  Troullier-Martins                       
Valence charge for ps generation:    6.00000

xc_check: Exchange-correlation functional:
xc_check: GGA Perdew, Burke & Ernzerhof 1996
V l=0 = -2*Zval/r beyond r=  1.1000
V l=1 = -2*Zval/r beyond r=  1.1000
V l=2 = -2*Zval/r beyond r=  2.2154
V l=3 = -2*Zval/r beyond r=  1.1000
All V_l potentials equal beyond r=  2.2154
This should be close to max(r_c) in ps generation
All pots = -2*Zval/r beyond r=  2.2154

VLOCAL1: 99.0% of the norm of Vloc inside      8.845 Ry
VLOCAL1: 99.9% of the norm of Vloc inside     20.157 Ry
atom: Maximum radius for 4*pi*r*r*local-pseudopot. charge    2.67231
atom: Maximum radius for r*vlocal+2*Zval:    2.32897
GHOST: No ghost state for L =  0
GHOST: No ghost state for L =  1
GHOST: No ghost state for L =  2
GHOST: No ghost state for L =  3

KBgen: Kleinman-Bylander projectors: 
   l= 0   rc=  2.243238   el= -1.759686   Ekb=**********   kbcos= -0.171774
   l= 1   rc=  2.328968   el= -0.663873   Ekb=-14.506792   kbcos= -0.519897
   l= 2   rc=  2.573941   el=  0.002031   Ekb= -1.137373   kbcos= -0.019581
   l= 3   rc=  2.606321   el=  0.003153   Ekb= -1.013546   kbcos= -0.003122

KBgen: Total number of Kleinman-Bylander projectors:   16
atom: -------------------------------------------------------------------------

atom: SANKEY-TYPE ORBITALS:
atom: Selected multiple-zeta basis: split     

SPLIT: Orbitals with angular momentum L= 0

SPLIT: Basis orbitals for state 2s

SPLIT: PAO cut-off radius determined from an
SPLIT: energy shift=  0.002000 Ry

   izeta = 1
                 lambda =    1.000000
                     rc =    4.243912
                 energy =   -1.758270
                kinetic =    3.286084
    potential(screened) =   -5.044353
       potential(ionic) =  -12.921184

   izeta = 2
                 rmatch =    2.187845
              splitnorm =    0.280000
                 energy =   -0.885018
                kinetic =    8.134434
    potential(screened) =   -9.019452
       potential(ionic) =  -17.710645

SPLIT: Orbitals with angular momentum L= 1

SPLIT: Basis orbitals for state 2p

SPLIT: PAO cut-off radius determined from an
SPLIT: energy shift=  0.002000 Ry

   izeta = 1
                 lambda =    1.000000
                     rc =    5.314825
                 energy =   -0.661986
                kinetic =    4.917472
    potential(screened) =   -5.579458
       potential(ionic) =  -13.236259

   izeta = 2
                 rmatch =    2.160663
              splitnorm =    0.280000
                 energy =   -0.068760
                kinetic =    9.183374
    potential(screened) =   -9.252135
       potential(ionic) =  -18.274251

POLgen: Perturbative polarization orbital with L=  2

POLgen: Polarization orbital for state 2p

   izeta = 1
                     rc =    5.314825
                 energy =    1.970580
                kinetic =    3.886128
    potential(screened) =   -1.915547
       potential(ionic) =   -7.749584
atom: Total number of Sankey-type orbitals: 13

atm_pop: Valence configuration (for local Pseudopot. screening):
 2s( 2.00)                                                            
 2p( 4.00)                                                            
Vna: chval, zval:    6.00000   6.00000

Vna:  Cut-off radius for the neutral-atom potential:   5.314825

atom: _________________________________________________________________________

<basis_specs>
===============================================================================
N                    Z=   7    Mass=  14.010        Charge= 0.17977+309
Lmxo=1 Lmxkb= 3    BasisType=split      Semic=F
L=0  Nsemic=0  Cnfigmx=2
          i=1  nzeta=2  polorb=0  (2s)
            splnorm:   0.28000    
               vcte:    0.0000    
               rinn:    0.0000    
               qcoe:    0.0000    
               qyuk:    0.0000    
               qwid:   0.10000E-01
                rcs:    0.0000      0.0000    
            lambdas:    1.0000      1.0000    
L=1  Nsemic=0  Cnfigmx=2
          i=1  nzeta=2  polorb=1  (2p)
            splnorm:   0.28000    
               vcte:    0.0000    
               rinn:    0.0000    
               qcoe:    0.0000    
               qyuk:    0.0000    
               qwid:   0.10000E-01
                rcs:    0.0000      0.0000    
            lambdas:    1.0000      1.0000    
-------------------------------------------------------------------------------
L=0  Nkbl=1  erefs: 0.17977+309
L=1  Nkbl=1  erefs: 0.17977+309
L=2  Nkbl=1  erefs: 0.17977+309
L=3  Nkbl=1  erefs: 0.17977+309
===============================================================================
</basis_specs>

atom: Called for N                     (Z =   7)

read_vps: Pseudopotential generation method:
read_vps: ATM4.2.7  Troullier-Martins                       
Valence charge for ps generation:    5.00000

xc_check: Exchange-correlation functional:
xc_check: GGA Perdew, Burke & Ernzerhof 1996
V l=0 = -2*Zval/r beyond r=  1.2889
V l=1 = -2*Zval/r beyond r=  1.2889
V l=2 = -2*Zval/r beyond r=  3.4178
V l=3 = -2*Zval/r beyond r=  2.4084
All V_l potentials equal beyond r=  3.3753
This should be close to max(r_c) in ps generation
All pots = -2*Zval/r beyond r=  3.4178

VLOCAL1: 99.0% of the norm of Vloc inside      3.810 Ry
VLOCAL1: 99.9% of the norm of Vloc inside      8.683 Ry
atom: Maximum radius for 4*pi*r*r*local-pseudopot. charge    4.02088
atom: Maximum radius for r*vlocal+2*Zval:    3.54838
GHOST: No ghost state for L =  0
GHOST: No ghost state for L =  1
GHOST: No ghost state for L =  2
GHOST: No ghost state for L =  3

KBgen: Kleinman-Bylander projectors: 
   l= 0   rc=  3.417763   el= -1.365098   Ekb= -4.433130   kbcos= -0.707855
   l= 1   rc=  3.375302   el= -0.521201   Ekb=-13.264039   kbcos= -0.535594
   l= 2   rc=  3.872880   el=  0.001991   Ekb= -0.641094   kbcos= -0.062456
   l= 3   rc=  3.970931   el=  0.003093   Ekb= -0.474517   kbcos= -0.018236

KBgen: Total number of Kleinman-Bylander projectors:   16
atom: -------------------------------------------------------------------------

atom: SANKEY-TYPE ORBITALS:
atom: Selected multiple-zeta basis: split     

SPLIT: Orbitals with angular momentum L= 0

SPLIT: Basis orbitals for state 2s

SPLIT: PAO cut-off radius determined from an
SPLIT: energy shift=  0.002000 Ry

   izeta = 1
                 lambda =    1.000000
                     rc =    4.730425
                 energy =   -1.363399
                kinetic =    1.245246
    potential(screened) =   -2.608645
       potential(ionic) =   -8.121105

   izeta = 2
                 rmatch =    2.531849
              splitnorm =    0.280000
                 energy =   -0.959908
                kinetic =    2.409435
    potential(screened) =   -3.369343
       potential(ionic) =   -9.427975

SPLIT: Orbitals with angular momentum L= 1

SPLIT: Basis orbitals for state 2p

SPLIT: PAO cut-off radius determined from an
SPLIT: energy shift=  0.002000 Ry

   izeta = 1
                 lambda =    1.000000
                     rc =    5.924108
                 energy =   -0.519262
                kinetic =    3.672940
    potential(screened) =   -4.192202
       potential(ionic) =   -9.518354

   izeta = 2
                 rmatch =    2.531849
              splitnorm =    0.280000
                 energy =   -0.104258
                kinetic =    6.807538
    potential(screened) =   -6.911796
       potential(ionic) =  -13.149920

POLgen: Perturbative polarization orbital with L=  2

POLgen: Polarization orbital for state 2p

   izeta = 1
                     rc =    5.924108
                 energy =    1.427508
                kinetic =    2.872379
    potential(screened) =   -1.444871
       potential(ionic) =   -5.563644
atom: Total number of Sankey-type orbitals: 13

atm_pop: Valence configuration (for local Pseudopot. screening):
 2s( 2.00)                                                            
 2p( 3.00)                                                            
Vna: chval, zval:    5.00000   5.00000

Vna:  Cut-off radius for the neutral-atom potential:   5.924108

atom: _________________________________________________________________________

<basis_specs>
===============================================================================
Si                   Z=  14    Mass=  28.090        Charge= 0.17977+309
Lmxo=1 Lmxkb= 3    BasisType=split      Semic=F
L=0  Nsemic=0  Cnfigmx=3
          i=1  nzeta=2  polorb=0  (3s)
            splnorm:   0.28000    
               vcte:    0.0000    
               rinn:    0.0000    
               qcoe:    0.0000    
               qyuk:    0.0000    
               qwid:   0.10000E-01
                rcs:    0.0000      0.0000    
            lambdas:    1.0000      1.0000    
L=1  Nsemic=0  Cnfigmx=3
          i=1  nzeta=2  polorb=1  (3p)
            splnorm:   0.28000    
               vcte:    0.0000    
               rinn:    0.0000    
               qcoe:    0.0000    
               qyuk:    0.0000    
               qwid:   0.10000E-01
                rcs:    0.0000      0.0000    
            lambdas:    1.0000      1.0000    
-------------------------------------------------------------------------------
L=0  Nkbl=1  erefs: 0.17977+309
L=1  Nkbl=1  erefs: 0.17977+309
L=2  Nkbl=1  erefs: 0.17977+309
L=3  Nkbl=1  erefs: 0.17977+309
===============================================================================
</basis_specs>

atom: Called for Si                    (Z =  14)

read_vps: Pseudopotential generation method:
read_vps: ATM4.2.7  Troullier-Martins                       
Valence charge for ps generation:    4.00000

xc_check: Exchange-correlation functional:
xc_check: GGA Perdew, Burke & Ernzerhof 1996
V l=0 = -2*Zval/r beyond r=  2.7826
V l=1 = -2*Zval/r beyond r=  2.7826
V l=2 = -2*Zval/r beyond r=  2.9253
V l=3 = -2*Zval/r beyond r=  2.7826
All V_l potentials equal beyond r=  2.8530
This should be close to max(r_c) in ps generation
All pots = -2*Zval/r beyond r=  2.9253

VLOCAL1: 99.0% of the norm of Vloc inside      5.333 Ry
VLOCAL1: 99.9% of the norm of Vloc inside     12.154 Ry
atom: Maximum radius for 4*pi*r*r*local-pseudopot. charge    3.39869
atom: Maximum radius for r*vlocal+2*Zval:    2.96205
GHOST: No ghost state for L =  0
GHOST: No ghost state for L =  1
GHOST: No ghost state for L =  2
GHOST: No ghost state for L =  3

KBgen: Kleinman-Bylander projectors: 
   l= 0   rc=  3.075247   el= -0.794092   Ekb=  5.879390   kbcos=  0.167461
   l= 1   rc=  3.153101   el= -0.300068   Ekb=  2.642817   kbcos=  0.058301
   l= 2   rc=  3.273594   el=  0.001958   Ekb= -1.185135   kbcos= -0.104411
   l= 3   rc=  3.232927   el=  0.003046   Ekb= -0.497174   kbcos= -0.015889

KBgen: Total number of Kleinman-Bylander projectors:   16
atom: -------------------------------------------------------------------------

atom: SANKEY-TYPE ORBITALS:
atom: Selected multiple-zeta basis: split     

SPLIT: Orbitals with angular momentum L= 0

SPLIT: Basis orbitals for state 3s

SPLIT: PAO cut-off radius determined from an
SPLIT: energy shift=  0.002000 Ry

   izeta = 1
                 lambda =    1.000000
                     rc =    6.429618
                 energy =   -0.792283
                kinetic =    0.525293
    potential(screened) =   -1.317576
       potential(ionic) =   -3.744923

   izeta = 2
                 rmatch =    3.998416
              splitnorm =    0.280000
                 energy =   -0.583081
                kinetic =    1.069570
    potential(screened) =   -1.652651
       potential(ionic) =   -4.235185

SPLIT: Orbitals with angular momentum L= 1

SPLIT: Basis orbitals for state 3p

SPLIT: PAO cut-off radius determined from an
SPLIT: energy shift=  0.002000 Ry

   izeta = 1
                 lambda =    1.000000
                     rc =    8.464845
                 energy =   -0.298236
                kinetic =    0.785360
    potential(screened) =   -1.083596
       potential(ionic) =   -3.273779

   izeta = 2
                 rmatch =    4.587816
              splitnorm =    0.280000
                 energy =   -0.131871
                kinetic =    1.403687
    potential(screened) =   -1.535557
       potential(ionic) =   -4.015310

POLgen: Perturbative polarization orbital with L=  2

POLgen: Polarization orbital for state 3p

   izeta = 1
                     rc =    8.464845
                 energy =    0.321949
                kinetic =    1.055677
    potential(screened) =   -0.733728
       potential(ionic) =   -2.672950
atom: Total number of Sankey-type orbitals: 13

atm_pop: Valence configuration (for local Pseudopot. screening):
 3s( 2.00)                                                            
 3p( 2.00)                                                            
Vna: chval, zval:    4.00000   4.00000

Vna:  Cut-off radius for the neutral-atom potential:   8.464845

atom: _________________________________________________________________________

<basis_specs>
===============================================================================
H                    Z=   1    Mass=  1.0100        Charge= 0.17977+309
Lmxo=0 Lmxkb= 2    BasisType=split      Semic=F
L=0  Nsemic=0  Cnfigmx=1
          i=1  nzeta=2  polorb=1  (1s)
            splnorm:   0.62000    
               vcte:    0.0000    
               rinn:    0.0000    
               qcoe:    0.0000    
               qyuk:    0.0000    
               qwid:   0.10000E-01
                rcs:    0.0000      0.0000    
            lambdas:    1.0000      1.0000    
-------------------------------------------------------------------------------
L=0  Nkbl=1  erefs: 0.17977+309
L=1  Nkbl=1  erefs: 0.17977+309
L=2  Nkbl=1  erefs: 0.17977+309
===============================================================================
</basis_specs>

atom: Called for H                     (Z =   1)

read_vps: Pseudopotential generation method:
read_vps: ATM4.2.7  Troullier-Martins                       
Valence charge for ps generation:    1.00000

xc_check: Exchange-correlation functional:
xc_check: GGA Perdew, Burke & Ernzerhof 1996
V l=0 = -2*Zval/r beyond r=  0.0098
V l=1 = -2*Zval/r beyond r=  0.5817
V l=2 = -2*Zval/r beyond r=  1.9372
All V_l potentials equal beyond r=  1.9372
This should be close to max(r_c) in ps generation
All pots = -2*Zval/r beyond r=  1.9372

VLOCAL1: 99.0% of the norm of Vloc inside     11.567 Ry
VLOCAL1: 99.9% of the norm of Vloc inside     26.362 Ry
atom: Maximum radius for 4*pi*r*r*local-pseudopot. charge    2.25106
atom: Maximum radius for r*vlocal+2*Zval:    1.91306
GHOST: No ghost state for L =  0
GHOST: No ghost state for L =  1
GHOST: No ghost state for L =  2

KBgen: Kleinman-Bylander projectors: 
   l= 0   rc=  2.036604   el= -0.477180   Ekb= -6.081590   kbcos= -0.277285
   l= 1   rc=  2.195416   el=  0.001076   Ekb= -0.926943   kbcos= -0.034643
   l= 2   rc=  2.251056   el=  0.002010   Ekb= -0.130941   kbcos= -0.009788

KBgen: Total number of Kleinman-Bylander projectors:    9
atom: -------------------------------------------------------------------------

atom: SANKEY-TYPE ORBITALS:
atom: Selected multiple-zeta basis: split     

SPLIT: Orbitals with angular momentum L= 0

SPLIT: Basis orbitals for state 1s

SPLIT: PAO cut-off radius determined from an
SPLIT: energy shift=  0.002000 Ry

   izeta = 1
                 lambda =    1.000000
                     rc =    6.518340
                 energy =   -0.475305
                kinetic =    0.912139
    potential(screened) =   -1.387444
       potential(ionic) =   -1.907295

   izeta = 2
                 rmatch =    2.141150
              splitnorm =    0.620000
                 energy =    0.566467
                kinetic =    3.772856
    potential(screened) =   -3.206389
       potential(ionic) =   -3.759093

POLgen: Perturbative polarization orbital with L=  1

POLgen: Polarization orbital for state 1s

   izeta = 1
                     rc =    6.518340
                 energy =    0.533861
                kinetic =    1.121086
    potential(screened) =   -0.587225
       potential(ionic) =   -1.053027
atom: Total number of Sankey-type orbitals:  5

atm_pop: Valence configuration (for local Pseudopot. screening):
 1s( 1.00)                                                            
Vna: chval, zval:    1.00000   1.00000

Vna:  Cut-off radius for the neutral-atom potential:   6.518340

atom: _________________________________________________________________________

prinput: Basis input ----------------------------------------------------------

PAO.BasisType split     

%block ChemicalSpeciesLabel
    1    8 O                       # Species index, atomic number, species label
    2    7 N                       # Species index, atomic number, species label
    3   14 Si                      # Species index, atomic number, species label
    4    1 H                       # Species index, atomic number, species label
%endblock ChemicalSpeciesLabel

%block PAO.Basis                 # Define Basis set
O                     2                    # Species label, number of l-shells
 n=2   0   2                         # n, l, Nzeta 
   4.244      2.188   
   1.000      1.000   
 n=2   1   2 P   1                   # n, l, Nzeta, Polarization, NzetaPol
   5.315      2.161   
   1.000      1.000   
N                     2                    # Species label, number of l-shells
 n=2   0   2                         # n, l, Nzeta 
   4.730      2.532   
   1.000      1.000   
 n=2   1   2 P   1                   # n, l, Nzeta, Polarization, NzetaPol
   5.924      2.532   
   1.000      1.000   
Si                    2                    # Species label, number of l-shells
 n=3   0   2                         # n, l, Nzeta 
   6.430      3.998   
   1.000      1.000   
 n=3   1   2 P   1                   # n, l, Nzeta, Polarization, NzetaPol
   8.465      4.588   
   1.000      1.000   
H                     1                    # Species label, number of l-shells
 n=1   0   2 P   1                   # n, l, Nzeta, Polarization, NzetaPol
   6.518      2.141   
   1.000      1.000   
%endblock PAO.Basis

prinput: ----------------------------------------------------------------------

Dumping basis to NetCDF file O.ion.nc
Dumping basis to NetCDF file N.ion.nc
Dumping basis to NetCDF file Si.ion.nc
Dumping basis to NetCDF file H.ion.nc
coor:   Atomic-coordinates input format  =     Cartesian coordinates
coor:                                          (in Angstroms)

siesta: Atomic coordinates (Bohr) and species
siesta:      1.81163   7.18763   0.00000  1        1
siesta:     -5.74229   1.88609   0.00000  2        2
siesta:      3.90525   2.07693   0.00000  2        3
siesta:      1.94561  -3.46705   0.00000  2        4
siesta:     -3.98462  -3.55608   0.00000  2        5
siesta:      7.39339  -2.23157   0.00000  2        6
siesta:     -2.33502   1.97473   0.00000  3        7
siesta:     -0.94847  -1.94988   0.00000  3        8
siesta:      1.18951   4.21930   0.00000  3        9
siesta:      4.30868  -1.24399   0.00000  3       10
siesta:     -6.47196  -1.25161   0.00000  3       11
siesta:      5.60488   3.17902   0.00000  4       12
siesta:     -9.06356  -2.34086   0.00000  4       13
siesta:      7.74138  -4.18414   0.00000  4       14
siesta:      9.05578  -0.99994   0.00000  4       15
siesta:     -4.28375  -5.52253   0.00000  4       16
siesta:      8.54254   9.12226   0.00000  3       17
siesta:     12.18116  11.37411   0.00000  3       18
siesta:     11.30281   3.95470   0.00000  3       19
siesta:     15.21677   8.57895   0.00000  3       20
siesta:      8.73583   5.89204   0.00000  2       21
siesta:      5.55794  10.38881   0.00000  2       22
siesta:     14.42666   5.30616   0.00000  2       23
siesta:     12.76413  14.14192   0.00000  4       24
siesta:     18.03562   8.95685   0.00000  4       25
siesta:      5.20905  12.34444   0.00000  4       26
siesta:      3.87213   9.12026   0.00000  4       27
siesta:     11.28366   0.93448   0.00000  1       28
siesta:     15.89421   3.94210   0.00000  4       29

siesta: Automatic unit cell vectors (Ang):
siesta:   23.362876    0.000000    0.000000
siesta:    0.000000   19.035153    0.000000
siesta:    0.000000    0.000000    9.854683

siesta: System type = molecule  

initatomlists: Number of atoms, orbitals, and projectors:     29   297   394

siesta: ******************** Simulation parameters ****************************
siesta:
siesta: The following are some of the parameters of the simulation.
siesta: A complete list of the parameters used, including default values,
siesta: can be found in file out.fdf
siesta:
redata: Spin configuration                          = spin-orbit
redata: Number of spin components                   = 8
redata: Time-Reversal Symmetry                      = F
redata: Spin spiral                                 = F
############################################################
This spin-orbit implementation uses a local approximation.
From 4.2 and onwards the full non-local approximation is implemented
You are strongly advised to use >=4.2 versions!
############################################################
redata: Long output                                 =   F
redata: Number of Atomic Species                    =        4
redata: Charge density info will appear in .RHO file
redata: Write Mulliken Pop.                         = Atomic and Orbital charges
redata: Matel table size (NRTAB)                    =     1024
redata: Mesh Cutoff                                 =   340.0000 Ry
redata: Net charge of the system                    =     0.0000 |e|
redata: Min. number of SCF Iter                     =        1
redata: Max. number of SCF Iter                     =      200
redata: SCF mix quantity                            = Hamiltonian
redata: Mix DM or H after convergence               =   F
redata: Recompute H after scf cycle                 =   F
redata: Mix DM in first SCF step                    =   T
redata: Write Pulay info on disk                    =   F
redata: New DM Occupancy tolerance                  = 0.000000000001
redata: No kicks to SCF
redata: DM Mixing Weight for Kicks                  =     0.5000
redata: Require Harris convergence for SCF          =   F
redata: Harris energy tolerance for SCF             =     0.000100 eV
redata: Require DM convergence for SCF              =   T
redata: DM tolerance for SCF                        =     0.000008
redata: Require EDM convergence for SCF             =   F
redata: EDM tolerance for SCF                       =     0.001000 eV
redata: Require H convergence for SCF               =   T
redata: Hamiltonian tolerance for SCF               =     0.000001 eV
redata: Require (free) Energy convergence for SCF   =   F
redata: (free) Energy tolerance for SCF             =     0.000100 eV
redata: Using Saved Data (generic)                  =   F
redata: Use continuation files for DM               =   F
redata: Neglect nonoverlap interactions             =   F
redata: Method of Calculation                       = Diagonalization
redata: Electronic Temperature                      =   299.9978 K
redata: Fix the spin of the system                  =   F
redata: Dynamics option                             = Single-point calculation
mix.SCF: Pulay mixing                            = Pulay
mix.SCF:    Variant                              = stable
mix.SCF:    History steps                        = 6
mix.SCF:    Linear mixing weight                 =     0.250000
mix.SCF:    Mixing weight                        =     0.250000
mix.SCF:    SVD condition                        = 0.1000E-07
mix.SCF:    Restart steps                        = 24
mix.SCF:    Restart save steps                   = 3
mix.SCF: Spin-component mixing                   all
redata: Save all siesta data in one NC              =   F
redata: ***********************************************************************

%block SCF.Mixers
  Pulay
%endblock SCF.Mixers

%block SCF.Mixer.Pulay
  # Mixing method
  method pulay
  variant stable

  # Mixing options
  weight 0.2500
  weight.linear 0.2500
  history 6
  restart 24
  restart.save 3
%endblock SCF.Mixer.Pulay

DM_history_depth set to one: no extrapolation allowed by default for geometry relaxation
Size of DM history Fstack: 1
Total number of electrons:    98.000000
Total ionic charge:    98.000000

* ProcessorY, Blocksize:    2  24


* Orbital distribution balance (max,min):    81    72


Time-reversal symmetry not used.

siesta: k-grid: Number of k-points =     1
siesta: k-grid: Cutoff (effective) =     4.927 Ang
siesta: k-grid: Supercell and displacements
siesta: k-grid:    1   0   0      0.000
siesta: k-grid:    0   1   0      0.000
siesta: k-grid:    0   0   1      0.000

diag: Algorithm                                     = ELPA-1stage
diag: Parallel over k                               =   F
diag: Use parallel 2D distribution                  =   T
diag: Parallel block-size                           = 24
diag: Parallel distribution                         =     2 x     2
diag: Used triangular part                          = Lower
diag: Absolute tolerance                            =  0.100E-15
diag: Orthogonalization factor                      =  0.100E-05
diag: Memory factor                                 =  1.0000


ts: **************************************************************
ts: Save H and S matrices                           =    F
ts: Save DM and EDM matrices                        =    F
ts: Only save the overlap matrix S                  =    F
ts: **************************************************************

************************ Begin: TS CHECKS AND WARNINGS ************************
************************ End: TS CHECKS AND WARNINGS **************************


                     ====================================
                        Single-point calculation
                     ====================================

outcoor: Atomic coordinates (Ang):                          
    0.95867151    3.80352930    0.00000000   1       1  O
   -3.03868821    0.99807333    0.00000000   2       2  N
    2.06656775    1.09906577    0.00000000   2       3  N
    1.02956986   -1.83468085    0.00000000   2       4  N
   -2.10856766   -1.88179824    0.00000000   2       5  N
    3.91241107   -1.18089443    0.00000000   2       6  N
   -1.23563679    1.04498300    0.00000000   3       7  Si
   -0.50190924   -1.03183228    0.00000000   3       8  Si
    0.62946328    2.23275584    0.00000000   3       9  Si
    2.28005437   -0.65829354    0.00000000   3      10  Si
   -3.42481299   -0.66232416    0.00000000   3      11  Si
    2.96597416    1.68226399    0.00000000   4      12  H
   -4.79622939   -1.23872848    0.00000000   4      13  H
    4.09655941   -2.21414876    0.00000000   4      14  H
    4.79210868   -0.52914725    0.00000000   4      15  H
   -2.26686130   -2.92239373    0.00000000   4      16  H
    4.52051320    4.82728879    0.00000000   3      17  Si
    6.44599095    6.01891812    0.00000000   3      18  Si
    5.98118455    2.09273442    0.00000000   3      19  Si
    8.05236447    4.53978101    0.00000000   3      20  Si
    4.62279773    3.11793410    0.00000000   2      21  N
    2.94113510    5.49751828    0.00000000   2      22  N
    7.63425445    2.80789810    0.00000000   2      23  N
    6.75448177    7.48357948    0.00000000   4      24  H
    9.54403738    4.73976047    0.00000000   4      25  H
    2.75650867    6.53239201    0.00000000   4      26  H
    2.04904332    4.82622955    0.00000000   4      27  H
    5.97105396    0.49450590    0.00000000   1      28  O
    8.41085284    2.08606790    0.00000000   4      29  H

outcell: Unit cell vectors (Ang):
       23.362876    0.000000    0.000000
        0.000000   19.035153    0.000000
        0.000000    0.000000    9.854683

outcell: Cell vector modules (Ang)   :   23.362876   19.035153    9.854683
outcell: Cell angles (23,13,12) (deg):     90.0000     90.0000     90.0000
outcell: Cell volume (Ang**3)        :   4382.5347
<dSpData1D:S at geom step 0
  <sparsity:sparsity for geom step 0
    nrows_g=297 nrows=81 sparsity=.2330 nnzs=20549, refcount: 8>
  <dData1D:(new from dSpData1D) n=20549, refcount: 1>
refcount: 1>
new_DM -- step:     1
Initializing Density Matrix...
DM filled with atomic data:
<dSpData2D:DM initialized from atoms
  <sparsity:sparsity for geom step 0
    nrows_g=297 nrows=81 sparsity=.2330 nnzs=20549, refcount: 9>
  <dData2D:DM n=20549 m=8, refcount: 1>
refcount: 1>
     spin moment: S , {S} =   56.00000   0.00000   0.00000  56.00000
No. of atoms with KB's overlaping orbs in proc 0. Max # of overlaps:      29     206

Initializing spin-orbit part of the Hamiltonian
  Adding spin-orbit effects for O 
  Adding spin-orbit effects for N 
  Adding spin-orbit effects for Si
  Adding spin-orbit effects for H 


New grid distribution:   1
           1       1:  135    1:   54    1:   30
           2       1:  135    1:   54   31:   60
           3       1:  135   55:  108    1:   30
           4       1:  135   55:  108   31:   60

InitMesh: MESH =   270 x   216 x   120 =     6998400
InitMesh: (bp) =   135 x   108 x    60 =      874800
InitMesh: Mesh cutoff (required, used) =   340.000   355.874 Ry
ExtMesh (bp) on 0 =   239 x   158 x   142 =     5362204
New grid distribution:   2
           1      32:  135    1:   25    1:   60
           2       1:   31    1:   22    1:   60
           3      32:  135   26:  108    1:   60
           4       1:   31   23:  108    1:   60
New grid distribution:   3
           1      44:  135    1:   32    1:   60
           2       1:   43    1:   37    1:   60
           3      44:  135   33:  108    1:   60
           4       1:   43   38:  108    1:   60
Setting up quadratic distribution...
ExtMesh (bp) on 0 =   208 x   129 x   172 =     4615104
PhiOnMesh: Number of (b)points on node 0 =               156000
PhiOnMesh: nlist on node 0 =              2649895

stepf: Fermi-Dirac step function

siesta: Program's energy decomposition (eV):
siesta: Ebs     =      -612.185400
siesta: Eions   =      3585.165840
siesta: Ena     =       382.882313
siesta: Ekin    =      3368.968160
siesta: Enl     =     -3299.106287
siesta: Eso     =        -0.003473
siesta: Edftu   =         0.000000
siesta: DEna    =       154.885828
siesta: DUscf   =        78.011906
siesta: DUext   =         0.000000
siesta: Exc     =     -1205.114914
siesta: eta*DQ  =         0.000000
siesta: Emadel  =         0.000000
siesta: Emeta   =         0.000000
siesta: Emolmec =         0.000000
siesta: Ekinion =         0.000000
siesta: Eharris =     -4027.940156
siesta: Etot    =     -4104.642307
siesta: FreeEng =     -4104.644010

        iscf     Eharris(eV)        E_KS(eV)     FreeEng(eV)     dDmax    Ef(eV) dHmax(eV)
   scf:    1    -4027.940156    -4104.642307    -4104.644010  0.956508 -4.903216 19.835684
     spin moment: S , {S} =    2.01046  -0.00000   0.00000   2.01046
timer: Routine,Calls,Time,% = IterSCF        1      11.771  15.42
   scf:    2    -4150.821289    -4138.751161    -4138.752958  0.461702 -4.200548 10.847498
     spin moment: S , {S} =    1.98924  -0.00000  -0.00000   1.98924
   scf:    3    -4112.268636    -4136.006696    -4136.025239  0.425709 -4.253934 11.367675
     spin moment: S , {S} =    2.00011  -0.00000   0.00000   2.00011
   scf:    4    -4151.564914    -4146.701991    -4146.701991  0.307580 -3.872899  5.806770
     spin moment: S , {S} =    0.00009   0.00000   0.00000   0.00009
   scf:    5    -4147.847182    -4147.363656    -4147.363656  0.038326 -3.683398  4.242817
     spin moment: S , {S} =    0.00005   0.00000   0.00000   0.00005
   scf:    6    -4148.145703    -4147.757383    -4147.757383  0.026042 -3.682251  2.022756
     spin moment: S , {S} =    0.00003   0.00000  -0.00000   0.00003
   scf:    7    -4148.106610    -4147.932063    -4147.932063  0.021439 -3.640803  0.841773
     spin moment: S , {S} =    0.00001   0.00000  -0.00000   0.00001
   scf:    8    -4148.045641    -4147.987493    -4147.987493  0.012072 -3.735759  0.444900
     spin moment: S , {S} =    0.00000   0.00000  -0.00000   0.00000
   scf:    9    -4148.025713    -4148.006025    -4148.006025  0.006822 -3.780989  0.291395
     spin moment: S , {S} =    0.00000  -0.00000   0.00000   0.00000
   scf:   10    -4148.050653    -4148.025224    -4148.025224  0.015817 -3.797410  0.127779
     spin moment: S , {S} =    0.00000  -0.00000   0.00000  -0.00000
   scf:   11    -4148.028675    -4148.026848    -4148.026848  0.004801 -3.790533  0.052978
     spin moment: S , {S} =    0.00000  -0.00000   0.00000   0.00000
   scf:   12    -4148.027830    -4148.027328    -4148.027328  0.002251 -3.786180  0.032855
     spin moment: S , {S} =    0.00000  -0.00000   0.00000   0.00000
   scf:   13    -4148.027974    -4148.027632    -4148.027632  0.002037 -3.785432  0.025940
     spin moment: S , {S} =    0.00000   0.00000   0.00000   0.00000
   scf:   14    -4148.028189    -4148.027881    -4148.027881  0.002476 -3.784629  0.017506
     spin moment: S , {S} =    0.00000   0.00000   0.00000   0.00000
   scf:   15    -4148.028244    -4148.028031    -4148.028031  0.002586 -3.783483  0.009220
     spin moment: S , {S} =    0.00000   0.00000   0.00000   0.00000
   scf:   16    -4148.028134    -4148.028071    -4148.028071  0.001576 -3.783734  0.004262
     spin moment: S , {S} =    0.00000   0.00000   0.00000   0.00000
   scf:   17    -4148.028085    -4148.028077    -4148.028077  0.000547 -3.783927  0.002400
     spin moment: S , {S} =    0.00000   0.00000   0.00000   0.00000
   scf:   18    -4148.028081    -4148.028079    -4148.028079  0.000270 -3.784011  0.001256
     spin moment: S , {S} =    0.00000   0.00000   0.00000  -0.00000
   scf:   19    -4148.028080    -4148.028079    -4148.028079  0.000137 -3.784006  0.000650
     spin moment: S , {S} =    0.00000   0.00000   0.00000  -0.00000
   scf:   20    -4148.028080    -4148.028080    -4148.028080  0.000061 -3.783953  0.000393
     spin moment: S , {S} =    0.00000   0.00000   0.00000  -0.00000
   scf:   21    -4148.028080    -4148.028080    -4148.028080  0.000078 -3.783903  0.000201
     spin moment: S , {S} =    0.00000   0.00000   0.00000  -0.00000
   scf:   22    -4148.028080    -4148.028080    -4148.028080  0.000015 -3.783885  0.000078
     spin moment: S , {S} =    0.00000   0.00000   0.00000  -0.00000
   scf:   23    -4148.028080    -4148.028080    -4148.028080  0.000005 -3.783884  0.000044
     spin moment: S , {S} =    0.00000   0.00000   0.00000  -0.00000
   scf:   24    -4148.028080    -4148.028080    -4148.028080  0.000004 -3.783881  0.000019
     spin moment: S , {S} =    0.00000   0.00000   0.00000  -0.00000
mix: Pulay -- resetting history
   scf:   25    -4148.028080    -4148.028080    -4148.028080  0.000002 -3.783879  0.000008
     spin moment: S , {S} =    0.00000   0.00000   0.00000  -0.00000
   scf:   26    -4148.028080    -4148.028080    -4148.028080  0.000000 -3.783879  0.000006
     spin moment: S , {S} =    0.00000   0.00000   0.00000  -0.00000
   scf:   27    -4148.028080    -4148.028080    -4148.028080  0.000001 -3.783879  0.000004
     spin moment: S , {S} =    0.00000   0.00000   0.00000  -0.00000
   scf:   28    -4148.028080    -4148.028080    -4148.028080  0.000000 -3.783879  0.000002
     spin moment: S , {S} =    0.00000   0.00000   0.00000  -0.00000
   scf:   29    -4148.028080    -4148.028080    -4148.028080  0.000000 -3.783879  0.000001
     spin moment: S , {S} =    0.00000   0.00000   0.00000  -0.00000
   scf:   30    -4148.028080    -4148.028080    -4148.028080  0.000000 -3.783879  0.000001
     spin moment: S , {S} =    0.00000   0.00000   0.00000  -0.00000

SCF Convergence by DM+H criterion
max |DM_out - DM_in|         :     0.0000001759
max |H_out - H_in|      (eV) :     0.0000005822
SCF cycle converged after 30 iterations

Using DM_out to compute the final energy and forces
No. of atoms with KB's overlaping orbs in proc 0. Max # of overlaps:      29     206

siesta: E_KS(eV) =            -4148.0281

siesta: E_KS - E_eggbox =     -4148.0281
     spin moment: S , {S} =    0.00000   0.00000   0.00000  -0.00000

siesta: Atomic forces (eV/Ang):
     1   -1.465100   -2.330762   -0.000000
     2   -0.017960   -0.002240    0.000000
     3   -0.065959    0.006762   -0.000000
     4   -0.050151    0.008671    0.000000
     5   -0.002413    0.002568    0.000000
     6   -0.214197   -0.144546   -0.000000
     7   -0.002922    0.017320   -0.000000
     8    0.024130   -0.020512    0.000000
     9    0.005633   -0.094508    0.000000
    10    0.058600   -0.034784   -0.000000
    11    0.002807    0.001053   -0.000000
    12    0.096091    0.071527    0.000000
    13   -0.127069   -0.000800    0.000000
    14   -0.064639   -0.142694    0.000000
    15   -0.061697    0.149275    0.000000
    16    0.031421   -0.107546   -0.000000
    17   -0.059309    0.087271   -0.000000
    18    0.014955   -0.015380    0.000000
    19    0.028034    0.076918    0.000000
    20   -0.001025    0.029247   -0.000000
    21    0.035242   -0.043770   -0.000000
    22    0.270136    0.186923   -0.000000
    23   -0.030022   -0.067658   -0.000000
    24   -0.130089    0.224060   -0.000000
    25   -0.053500    0.043660   -0.000000
    26    0.153573    0.010456    0.000000
    27   -0.036320   -0.174326    0.000000
    28    0.107650    1.154126   -0.000000
    29   -0.046339    0.073284    0.000000
----------------------------------------
   Tot   -1.600439   -1.036403    0.000000
----------------------------------------
   Max    2.330762
   Res    0.328280    sqrt( Sum f_i^2 / 3N )
----------------------------------------
   Max    2.330762    constrained

Stress tensor Voigt[x,y,z,yz,xz,xy] (kbar):       -0.89       -1.06       -0.11       -0.00       -0.00       -0.54
(Free)E + p*V (eV/cell)    -4146.1536
Target enthalpy (eV/cell)    -4148.0281

mulliken: Atomic and Orbital Populations:

Species: O                   

Atom      Orb        Charge      Spin       Svec
----------------------------------------------------------------
    1  1 2s         1.71534   0.00000      0.000   0.000  -0.000
    1  2 2s         0.06775   0.00000     -0.000  -0.000   0.000
    1  3 2py        1.34893   0.00000      0.000  -0.000  -0.000
    1  4 2pz        1.62227   0.00000      0.000  -0.000   0.000
    1  5 2px        1.64994   0.00000      0.000  -0.000  -0.000
    1  6 2py        0.08978   0.00000     -0.000  -0.000   0.000
    1  7 2pz       -0.01757   0.00000     -0.000   0.000   0.000
    1  8 2px       -0.00067   0.00000      0.000  -0.000   0.000
    1  9 3Pdxy      0.00964   0.00000     -0.000  -0.000   0.000
    1 10 3Pdyz      0.00739   0.00000      0.000   0.000   0.000
    1 11 3Pdz2      0.00218   0.00000      0.000   0.000   0.000
    1 12 3Pdxz     -0.00001   0.00000      0.000   0.000   0.000
    1 13 3Pdx2-y2   0.00519   0.00000     -0.000  -0.000   0.000
    1     Total     6.50014   0.00000      0.000  -0.000   0.000

   28  1 2s         1.73043   0.00000     -0.000  -0.000   0.000
   28  2 2s         0.06371   0.00000      0.000   0.000  -0.000
   28  3 2py        1.35026   0.00000      0.000   0.000  -0.000
   28  4 2pz        1.61071   0.00000      0.000  -0.000  -0.000
   28  5 2px        1.66615   0.00000      0.000   0.000   0.000
   28  6 2py        0.08336   0.00000     -0.000   0.000   0.000
   28  7 2pz       -0.01578   0.00000     -0.000   0.000   0.000
   28  8 2px       -0.00429   0.00000      0.000   0.000  -0.000
   28  9 3Pdxy      0.00948   0.00000      0.000  -0.000  -0.000
   28 10 3Pdyz      0.00832   0.00000     -0.000   0.000   0.000
   28 11 3Pdz2      0.00178   0.00000      0.000   0.000  -0.000
   28 12 3Pdxz     -0.00007   0.00000      0.000   0.000   0.000
   28 13 3Pdx2-y2   0.00645   0.00000     -0.000   0.000  -0.000
   28     Total     6.51050   0.00000      0.000  -0.000   0.000

----------------------------------------------------------------
Total              13.01064   0.00000      0.000  -0.000   0.000


Species: N                   

Atom      Orb        Charge      Spin       Svec
----------------------------------------------------------------
    2  1 2s         1.55391   0.00000     -0.000   0.000   0.000
    2  2 2s         0.08362   0.00000      0.000  -0.000   0.000
    2  3 2py        1.04133   0.00000     -0.000   0.000   0.000
    2  4 2pz        1.22484   0.00000     -0.000   0.000   0.000
    2  5 2px        0.98737   0.00000      0.000  -0.000   0.000
    2  6 2py        0.18852   0.00000      0.000  -0.000   0.000
    2  7 2pz        0.05628   0.00000      0.000  -0.000  -0.000
    2  8 2px        0.19559   0.00000     -0.000   0.000  -0.000
    2  9 3Pdxy      0.00856   0.00000      0.000   0.000   0.000
    2 10 3Pdyz      0.01121   0.00000     -0.000  -0.000  -0.000
    2 11 3Pdz2      0.00193   0.00000     -0.000  -0.000  -0.000
    2 12 3Pdxz      0.00763   0.00000     -0.000   0.000  -0.000
    2 13 3Pdx2-y2   0.00929   0.00000      0.000   0.000   0.000
    2     Total     5.37007   0.00000     -0.000   0.000   0.000

    3  1 2s         1.37910   0.00000     -0.000  -0.000  -0.000
    3  2 2s         0.12537   0.00000      0.000   0.000   0.000
    3  3 2py        0.93712   0.00000      0.000   0.000  -0.000
    3  4 2pz        1.53795   0.00000      0.000  -0.000  -0.000
    3  5 2px        1.06822   0.00000      0.000   0.000  -0.000
    3  6 2py        0.25628   0.00000     -0.000  -0.000   0.000
    3  7 2pz        0.00566   0.00000     -0.000   0.000   0.000
    3  8 2px        0.19093   0.00000     -0.000  -0.000   0.000
    3  9 3Pdxy      0.00404   0.00000     -0.000  -0.000  -0.000
    3 10 3Pdyz      0.00386   0.00000      0.000  -0.000   0.000
    3 11 3Pdz2      0.00048   0.00000      0.000  -0.000   0.000
    3 12 3Pdxz      0.00282   0.00000     -0.000   0.000   0.000
    3 13 3Pdx2-y2   0.00243   0.00000     -0.000  -0.000  -0.000
    3     Total     5.51426   0.00000      0.000  -0.000  -0.000

    4  1 2s         1.46272   0.00000     -0.000   0.000  -0.000
    4  2 2s         0.11876   0.00000      0.000  -0.000   0.000
    4  3 2py        1.12973   0.00000      0.000   0.000  -0.000
    4  4 2pz        1.29144   0.00000      0.000  -0.000  -0.000
    4  5 2px        0.82516   0.00000     -0.000  -0.000  -0.000
    4  6 2py        0.15071   0.00000     -0.000  -0.000   0.000
    4  7 2pz        0.05369   0.00000     -0.000   0.000   0.000
    4  8 2px        0.29149   0.00000      0.000   0.000   0.000
    4  9 3Pdxy      0.00875   0.00000      0.000  -0.000  -0.000
    4 10 3Pdyz      0.01046   0.00000     -0.000   0.000   0.000
    4 11 3Pdz2      0.00129   0.00000     -0.000  -0.000  -0.000
    4 12 3Pdxz      0.00476   0.00000     -0.000   0.000  -0.000
    4 13 3Pdx2-y2   0.00795   0.00000      0.000   0.000   0.000
    4     Total     5.35691   0.00000      0.000  -0.000  -0.000

    5  1 2s         1.37159   0.00000      0.000  -0.000   0.000
    5  2 2s         0.12989   0.00000     -0.000   0.000   0.000
    5  3 2py        1.02734   0.00000      0.000  -0.000   0.000
    5  4 2pz        1.49837   0.00000      0.000  -0.000   0.000
    5  5 2px        1.05670   0.00000      0.000   0.000   0.000
    5  6 2py        0.20584   0.00000     -0.000   0.000   0.000
    5  7 2pz        0.01378   0.00000     -0.000   0.000   0.000
    5  8 2px        0.20530   0.00000     -0.000  -0.000   0.000
    5  9 3Pdxy      0.00388   0.00000     -0.000   0.000  -0.000
    5 10 3Pdyz      0.00243   0.00000     -0.000   0.000  -0.000
    5 11 3Pdz2      0.00141   0.00000     -0.000   0.000  -0.000
    5 12 3Pdxz      0.00668   0.00000     -0.000  -0.000  -0.000
    5 13 3Pdx2-y2   0.00553   0.00000      0.000  -0.000  -0.000
    5     Total     5.52875   0.00000      0.000  -0.000   0.000

    6  1 2s         1.26754   0.00000     -0.000   0.000  -0.000
    6  2 2s         0.18072   0.00000      0.000  -0.000   0.000
    6  3 2py        1.06874   0.00000      0.000  -0.000  -0.000
    6  4 2pz        1.50810   0.00000     -0.000  -0.000  -0.000
    6  5 2px        0.97497   0.00000     -0.000   0.000  -0.000
    6  6 2py        0.19592   0.00000     -0.000   0.000   0.000
    6  7 2pz        0.03545   0.00000      0.000   0.000   0.000
    6  8 2px        0.25785   0.00000      0.000  -0.000   0.000
    6  9 3Pdxy      0.00276   0.00000     -0.000  -0.000  -0.000
    6 10 3Pdyz     -0.00000   0.00000      0.000   0.000  -0.000
    6 11 3Pdz2      0.00174   0.00000      0.000  -0.000  -0.000
    6 12 3Pdxz      0.00403   0.00000     -0.000   0.000  -0.000
    6 13 3Pdx2-y2   0.00442   0.00000      0.000  -0.000   0.000
    6     Total     5.50222   0.00000     -0.000  -0.000   0.000

   21  1 2s         1.41196   0.00000      0.000  -0.000  -0.000
   21  2 2s         0.12897   0.00000     -0.000   0.000   0.000
   21  3 2py        0.89480   0.00000      0.000   0.000  -0.000
   21  4 2pz        1.32713   0.00000      0.000   0.000  -0.000
   21  5 2px        1.15504   0.00000      0.000   0.000   0.000
   21  6 2py        0.27130   0.00000     -0.000   0.000   0.000
   21  7 2pz        0.04202   0.00000     -0.000   0.000   0.000
   21  8 2px        0.16294   0.00000     -0.000  -0.000  -0.000
   21  9 3Pdxy      0.00616   0.00000      0.000   0.000  -0.000
   21 10 3Pdyz      0.00451   0.00000      0.000  -0.000   0.000
   21 11 3Pdz2     -0.00013   0.00000      0.000   0.000   0.000
   21 12 3Pdxz      0.00571   0.00000      0.000  -0.000  -0.000
   21 13 3Pdx2-y2   0.00591   0.00000      0.000  -0.000   0.000
   21     Total     5.41633   0.00000      0.000   0.000   0.000

   22  1 2s         1.29033   0.00000      0.000   0.000   0.000
   22  2 2s         0.17221   0.00000     -0.000  -0.000  -0.000
   22  3 2py        1.06596   0.00000      0.000  -0.000  -0.000
   22  4 2pz        1.46642   0.00000     -0.000  -0.000  -0.000
   22  5 2px        1.01553   0.00000      0.000   0.000  -0.000
   22  6 2py        0.19908   0.00000     -0.000   0.000   0.000
   22  7 2pz        0.03495   0.00000     -0.000   0.000   0.000
   22  8 2px        0.23470   0.00000     -0.000  -0.000   0.000
   22  9 3Pdxy      0.00411   0.00000     -0.000  -0.000  -0.000
   22 10 3Pdyz      0.00007   0.00000      0.000  -0.000  -0.000
   22 11 3Pdz2      0.00243   0.00000     -0.000   0.000  -0.000
   22 12 3Pdxz      0.00429   0.00000      0.000   0.000  -0.000
   22 13 3Pdx2-y2   0.00476   0.00000      0.000   0.000  -0.000
   22     Total     5.49482   0.00000      0.000  -0.000  -0.000

   23  1 2s         1.36641   0.00000     -0.000   0.000  -0.000
   23  2 2s         0.13249   0.00000      0.000  -0.000   0.000
   23  3 2py        1.00974   0.00000     -0.000  -0.000  -0.000
   23  4 2pz        1.53563   0.00000     -0.000  -0.000   0.000
   23  5 2px        1.04695   0.00000     -0.000  -0.000  -0.000
   23  6 2py        0.21691   0.00000      0.000   0.000   0.000
   23  7 2pz        0.00442   0.00000      0.000  -0.000   0.000
   23  8 2px        0.20544   0.00000      0.000   0.000   0.000
   23  9 3Pdxy      0.00518   0.00000     -0.000  -0.000  -0.000
   23 10 3Pdyz      0.00461   0.00000      0.000  -0.000   0.000
   23 11 3Pdz2      0.00068   0.00000      0.000   0.000   0.000
   23 12 3Pdxz      0.00243   0.00000      0.000   0.000   0.000
   23 13 3Pdx2-y2   0.00149   0.00000     -0.000   0.000  -0.000
   23     Total     5.53238   0.00000     -0.000  -0.000   0.000

----------------------------------------------------------------
Total              56.72639   0.00000      0.000  -0.000   0.000


Species: Si                  

Atom      Orb        Charge      Spin       Svec
----------------------------------------------------------------
    7  1 3s         0.64028   0.00000     -0.000  -0.000  -0.000
    7  2 3s         0.37688   0.00000      0.000   0.000  -0.000
    7  3 3py        0.46603   0.00000      0.000   0.000   0.000
    7  4 3pz        0.68433   0.00000      0.000  -0.000  -0.000
    7  5 3px        0.10794   0.00000     -0.000  -0.000  -0.000
    7  6 3py        0.28240   0.00000     -0.000   0.000  -0.000
    7  7 3pz        0.26708   0.00000     -0.000   0.000  -0.000
    7  8 3px        0.45218   0.00000     -0.000   0.000  -0.000
    7  9 3Pdxy      0.25234   0.00000     -0.000  -0.000  -0.000
    7 10 3Pdyz      0.02868   0.00000      0.000  -0.000   0.000
    7 11 3Pdz2      0.01063   0.00000     -0.000  -0.000   0.000
    7 12 3Pdxz      0.15294   0.00000      0.000  -0.000   0.000
    7 13 3Pdx2-y2   0.11135   0.00000     -0.000  -0.000   0.000
    7     Total     3.83307   0.00000     -0.000  -0.000  -0.000

    8  1 3s         0.65331   0.00000     -0.000  -0.000   0.000
    8  2 3s         0.36994   0.00000     -0.000   0.000  -0.000
    8  3 3py        0.39707   0.00000      0.000   0.000  -0.000
    8  4 3pz        0.50079   0.00000     -0.000  -0.000  -0.000
    8  5 3px       -0.01852   0.00000      0.000  -0.000   0.000
    8  6 3py        0.30480   0.00000     -0.000  -0.000   0.000
    8  7 3pz        0.20660   0.00000     -0.000   0.000   0.000
    8  8 3px        0.51204   0.00000     -0.000  -0.000   0.000
    8  9 3Pdxy      0.24928   0.00000      0.000  -0.000   0.000
    8 10 3Pdyz      0.11194   0.00000     -0.000   0.000   0.000
    8 11 3Pdz2      0.01398   0.00000      0.000  -0.000  -0.000
    8 12 3Pdxz      0.15749   0.00000     -0.000  -0.000   0.000
    8 13 3Pdx2-y2   0.20247   0.00000     -0.000   0.000   0.000
    8     Total     3.66120   0.00000     -0.000  -0.000   0.000

    9  1 3s         0.58017   0.00000     -0.000   0.000   0.000
    9  2 3s         0.37734   0.00000     -0.000   0.000   0.000
    9  3 3py        0.10617   0.00000     -0.000  -0.000   0.000
    9  4 3pz        0.46634   0.00000     -0.000   0.000   0.000
    9  5 3px        0.34201   0.00000     -0.000   0.000  -0.000
    9  6 3py        0.40765   0.00000      0.000   0.000   0.000
    9  7 3pz        0.19617   0.00000     -0.000   0.000   0.000
    9  8 3px        0.29530   0.00000      0.000   0.000   0.000
    9  9 3Pdxy      0.28835   0.00000      0.000   0.000  -0.000
    9 10 3Pdyz      0.18995   0.00000     -0.000   0.000   0.000
    9 11 3Pdz2      0.01065   0.00000     -0.000   0.000   0.000
    9 12 3Pdxz      0.10831   0.00000      0.000   0.000   0.000
    9 13 3Pdx2-y2   0.17825   0.00000     -0.000  -0.000  -0.000
    9     Total     3.54666   0.00000     -0.000   0.000   0.000

   10  1 3s         0.48542   0.00000      0.000   0.000   0.000
   10  2 3s         0.37578   0.00000     -0.000  -0.000   0.000
   10  3 3py        0.24522   0.00000     -0.000  -0.000   0.000
   10  4 3pz        0.42070   0.00000     -0.000   0.000   0.000
   10  5 3px        0.09317   0.00000     -0.000  -0.000   0.000
   10  6 3py        0.31795   0.00000      0.000   0.000  -0.000
   10  7 3pz        0.21698   0.00000      0.000   0.000   0.000
   10  8 3px        0.44820   0.00000     -0.000   0.000  -0.000
   10  9 3Pdxy      0.17792   0.00000     -0.000   0.000  -0.000
   10 10 3Pdyz      0.12975   0.00000      0.000   0.000  -0.000
   10 11 3Pdz2      0.00915   0.00000      0.000   0.000  -0.000
   10 12 3Pdxz      0.18559   0.00000      0.000   0.000   0.000
   10 13 3Pdx2-y2   0.30722   0.00000     -0.000  -0.000  -0.000
   10     Total     3.41305   0.00000     -0.000   0.000   0.000

   11  1 3s         0.55117   0.00000      0.000  -0.000  -0.000
   11  2 3s         0.38660   0.00000     -0.000   0.000  -0.000
   11  3 3py        0.31041   0.00000     -0.000   0.000  -0.000
   11  4 3pz        0.52986   0.00000     -0.000   0.000  -0.000
   11  5 3px        0.13134   0.00000     -0.000   0.000  -0.000
   11  6 3py        0.29936   0.00000      0.000  -0.000  -0.000
   11  7 3pz        0.17970   0.00000      0.000  -0.000  -0.000
   11  8 3px        0.44279   0.00000     -0.000  -0.000   0.000
   11  9 3Pdxy      0.23594   0.00000      0.000  -0.000  -0.000
   11 10 3Pdyz      0.12949   0.00000      0.000  -0.000  -0.000
   11 11 3Pdz2      0.00997   0.00000      0.000  -0.000   0.000
   11 12 3Pdxz      0.05436   0.00000      0.000   0.000  -0.000
   11 13 3Pdx2-y2   0.19815   0.00000      0.000  -0.000  -0.000
   11     Total     3.45911   0.00000      0.000  -0.000  -0.000

   17  1 3s         0.64371   0.00000      0.000  -0.000   0.000
   17  2 3s         0.35601   0.00000     -0.000   0.000  -0.000
   17  3 3py        0.23647   0.00000     -0.000  -0.000   0.000
   17  4 3pz        0.42722   0.00000      0.000   0.000  -0.000
   17  5 3px        0.22635   0.00000     -0.000  -0.000  -0.000
   17  6 3py        0.36116   0.00000     -0.000   0.000  -0.000
   17  7 3pz        0.21405   0.00000      0.000  -0.000  -0.000
   17  8 3px        0.39091   0.00000      0.000   0.000   0.000
   17  9 3Pdxy      0.27901   0.00000     -0.000   0.000  -0.000
   17 10 3Pdyz      0.13109   0.00000     -0.000   0.000  -0.000
   17 11 3Pdz2      0.00773   0.00000      0.000  -0.000  -0.000
   17 12 3Pdxz      0.15097   0.00000     -0.000   0.000  -0.000
   17 13 3Pdx2-y2   0.17895   0.00000     -0.000  -0.000  -0.000
   17     Total     3.60362   0.00000     -0.000  -0.000  -0.000

   18  1 3s         0.75362   0.00000     -0.000  -0.000  -0.000
   18  2 3s         0.33894   0.00000      0.000   0.000   0.000
   18  3 3py        0.08490   0.00000      0.000   0.000  -0.000
   18  4 3pz        0.80443   0.00000     -0.000   0.000  -0.000
   18  5 3px        0.53640   0.00000      0.000   0.000  -0.000
   18  6 3py        0.51517   0.00000      0.000   0.000   0.000
   18  7 3pz        0.19654   0.00000      0.000   0.000  -0.000
   18  8 3px        0.26316   0.00000     -0.000  -0.000  -0.000
   18  9 3Pdxy      0.10651   0.00000      0.000   0.000   0.000
   18 10 3Pdyz      0.02642   0.00000      0.000  -0.000   0.000
   18 11 3Pdz2      0.00900   0.00000     -0.000  -0.000   0.000
   18 12 3Pdxz      0.03266   0.00000      0.000  -0.000   0.000
   18 13 3Pdx2-y2   0.10462   0.00000     -0.000   0.000  -0.000
   18     Total     3.77236   0.00000     -0.000   0.000  -0.000

   19  1 3s         0.45205   0.00000     -0.000  -0.000  -0.000
   19  2 3s         0.36536   0.00000      0.000   0.000  -0.000
   19  3 3py        0.08347   0.00000     -0.000   0.000  -0.000
   19  4 3pz        0.40042   0.00000     -0.000   0.000  -0.000
   19  5 3px        0.26218   0.00000     -0.000  -0.000  -0.000
   19  6 3py        0.44866   0.00000      0.000  -0.000   0.000
   19  7 3pz        0.19518   0.00000      0.000  -0.000  -0.000
   19  8 3px        0.29895   0.00000     -0.000   0.000  -0.000
   19  9 3Pdxy      0.31806   0.00000     -0.000  -0.000  -0.000
   19 10 3Pdyz      0.18315   0.00000     -0.000  -0.000  -0.000
   19 11 3Pdz2      0.01101   0.00000     -0.000  -0.000   0.000
   19 12 3Pdxz      0.10272   0.00000     -0.000   0.000  -0.000
   19 13 3Pdx2-y2   0.24478   0.00000      0.000   0.000   0.000
   19     Total     3.36597   0.00000     -0.000  -0.000  -0.000

   20  1 3s         0.68033   0.00000     -0.000  -0.000   0.000
   20  2 3s         0.37605   0.00000      0.000   0.000   0.000
   20  3 3py        0.33812   0.00000     -0.000  -0.000   0.000
   20  4 3pz        0.61082   0.00000     -0.000  -0.000   0.000
   20  5 3px        0.13798   0.00000      0.000  -0.000   0.000
   20  6 3py        0.28197   0.00000      0.000   0.000   0.000
   20  7 3pz        0.16068   0.00000      0.000  -0.000   0.000
   20  8 3px        0.50270   0.00000     -0.000   0.000  -0.000
   20  9 3Pdxy      0.09903   0.00000     -0.000  -0.000  -0.000
   20 10 3Pdyz      0.12890   0.00000      0.000   0.000   0.000
   20 11 3Pdz2      0.00731   0.00000     -0.000  -0.000  -0.000
   20 12 3Pdxz      0.02695   0.00000      0.000   0.000  -0.000
   20 13 3Pdx2-y2   0.17508   0.00000      0.000   0.000   0.000
   20     Total     3.52592   0.00000      0.000  -0.000   0.000

----------------------------------------------------------------
Total              88.90734   0.00000     -0.000  -0.000  -0.000


Species: H                   

Atom      Orb        Charge      Spin       Svec
----------------------------------------------------------------
   12  1 1s         0.47932   0.00000      0.000  -0.000   0.000
   12  2 1s         0.18061   0.00000      0.000   0.000   0.000
   12  3 2Ppy       0.04301   0.00000     -0.000   0.000   0.000
   12  4 2Ppz       0.03139   0.00000     -0.000   0.000   0.000
   12  5 2Ppx       0.04758   0.00000      0.000   0.000   0.000
   12     Total     0.78191   0.00000      0.000   0.000   0.000

   13  1 1s         1.01867   0.00000      0.000  -0.000   0.000
   13  2 1s         0.09711   0.00000     -0.000   0.000   0.000
   13  3 2Ppy       0.01915   0.00000     -0.000   0.000   0.000
   13  4 2Ppz       0.02016   0.00000     -0.000  -0.000  -0.000
   13  5 2Ppx       0.03328   0.00000     -0.000   0.000   0.000
   13     Total     1.18837   0.00000      0.000   0.000   0.000

   14  1 1s         0.49031   0.00000      0.000   0.000  -0.000
   14  2 1s         0.19562   0.00000     -0.000  -0.000   0.000
   14  3 2Ppy       0.02025   0.00000      0.000  -0.000   0.000
   14  4 2Ppz       0.04879   0.00000      0.000   0.000  -0.000
   14  5 2Ppx       0.02176   0.00000     -0.000  -0.000  -0.000
   14     Total     0.77671   0.00000      0.000   0.000  -0.000

   15  1 1s         0.43255   0.00000      0.000   0.000   0.000
   15  2 1s         0.17939   0.00000     -0.000   0.000   0.000
   15  3 2Ppy       0.05250   0.00000     -0.000   0.000  -0.000
   15  4 2Ppz       0.04650   0.00000     -0.000  -0.000   0.000
   15  5 2Ppx       0.08872   0.00000     -0.000   0.000  -0.000
   15     Total     0.79967   0.00000      0.000   0.000   0.000

   16  1 1s         0.50422   0.00000     -0.000   0.000  -0.000
   16  2 1s         0.19054   0.00000      0.000  -0.000   0.000
   16  3 2Ppy       0.02900   0.00000     -0.000   0.000  -0.000
   16  4 2Ppz       0.03952   0.00000     -0.000   0.000  -0.000
   16  5 2Ppx       0.02422   0.00000     -0.000  -0.000  -0.000
   16     Total     0.78749   0.00000     -0.000   0.000  -0.000

   24  1 1s         1.05739   0.00000     -0.000  -0.000   0.000
   24  2 1s         0.07641   0.00000      0.000   0.000   0.000
   24  3 2Ppy       0.03066   0.00000     -0.000   0.000  -0.000
   24  4 2Ppz       0.03015   0.00000      0.000   0.000  -0.000
   24  5 2Ppx       0.01787   0.00000      0.000   0.000   0.000
   24     Total     1.21249   0.00000      0.000   0.000   0.000

   25  1 1s         1.04581   0.00000     -0.000  -0.000  -0.000
   25  2 1s         0.08512   0.00000      0.000   0.000   0.000
   25  3 2Ppy       0.01141   0.00000      0.000   0.000  -0.000
   25  4 2Ppz       0.01902   0.00000      0.000   0.000   0.000
   25  5 2Ppx       0.03589   0.00000      0.000  -0.000   0.000
   25     Total     1.19725   0.00000     -0.000   0.000  -0.000

   26  1 1s         0.49649   0.00000      0.000   0.000   0.000
   26  2 1s         0.19409   0.00000     -0.000  -0.000   0.000
   26  3 2Ppy       0.02291   0.00000      0.000   0.000  -0.000
   26  4 2Ppz       0.04878   0.00000     -0.000  -0.000  -0.000
   26  5 2Ppx       0.02121   0.00000     -0.000   0.000  -0.000
   26     Total     0.78349   0.00000     -0.000   0.000   0.000

   27  1 1s         0.42270   0.00000      0.000   0.000   0.000
   27  2 1s         0.17620   0.00000      0.000  -0.000   0.000
   27  3 2Ppy       0.06269   0.00000     -0.000  -0.000  -0.000
   27  4 2Ppz       0.04475   0.00000     -0.000   0.000  -0.000
   27  5 2Ppx       0.09438   0.00000     -0.000  -0.000   0.000
   27     Total     0.80071   0.00000     -0.000   0.000   0.000

   29  1 1s         0.48950   0.00000      0.000   0.000  -0.000
   29  2 1s         0.18817   0.00000      0.000  -0.000   0.000
   29  3 2Ppy       0.02471   0.00000     -0.000  -0.000   0.000
   29  4 2Ppz       0.03487   0.00000      0.000   0.000  -0.000
   29  5 2Ppx       0.02732   0.00000      0.000   0.000   0.000
   29     Total     0.76457   0.00000      0.000   0.000  -0.000

----------------------------------------------------------------
Total              98.00000   0.00000      0.000   0.000  -0.000


siesta: Eigenvalues (eV):
ik =     1
  -22.9167  -22.9167  -22.4825  -22.4825  -21.4480  -21.4480  -21.2748  -21.2748  -20.9474  -20.9474
  -20.6982  -20.6982  -20.2373  -20.2373  -19.6485  -19.6485  -19.5001  -19.5001  -19.4086  -19.4086
  -14.7656  -14.7656  -13.8412  -13.8412  -13.2814  -13.2814  -13.1143  -13.1143  -12.9821  -12.9821
  -12.6527  -12.6527  -12.5807  -12.5807  -12.1266  -12.1266  -11.8750  -11.8750  -11.7273  -11.7273
  -11.0256  -11.0256  -10.8249  -10.8249  -10.5818  -10.5818  -10.3549  -10.3549  -10.1754  -10.1754
   -9.6874   -9.6874   -9.1204   -9.1204   -8.9533   -8.9533   -8.8208   -8.8208   -8.6950   -8.6950
   -8.4946   -8.4946   -8.4231   -8.4231   -8.3305   -8.3305   -7.9765   -7.9765   -7.8394   -7.8394
   -7.6036   -7.6036   -7.3901   -7.3901   -7.3047   -7.3047   -7.1346   -7.1346   -6.9380   -6.9380
   -6.6983   -6.6983   -6.6372   -6.6372   -6.4119   -6.4119   -6.4012   -6.4012   -6.2693   -6.2693
   -6.0494   -6.0494   -5.9753   -5.9753   -5.5455   -5.5455   -4.3187   -4.3187   -3.2500   -3.2500
   -2.3476   -2.3476   -2.2657   -2.2657   -2.1725   -2.1725   -1.8954   -1.8954   -1.8710   -1.8710
   -1.8146   -1.8146   -1.6530   -1.6530   -1.5949   -1.5949   -1.1425   -1.1425   -1.1083   -1.1083
   -0.9139   -0.9139   -0.4716   -0.4716   -0.4492   -0.4492   -0.3053   -0.3053    0.4030    0.4030
    0.5093    0.5093    0.5471    0.5471    0.7131    0.7131    1.0656    1.0656    1.1609    1.1609
    1.3572    1.3572    1.4040    1.4040    1.5082    1.5082    1.6233    1.6233    2.0182    2.0182
    2.0772    2.0772    2.6792    2.6792    2.7239    2.7239    2.7695    2.7695    2.8980    2.8980
    2.9570    2.9570    3.0813    3.0813    3.3205    3.3205    3.4531    3.4531    3.6624    3.6624
    3.8293    3.8293    4.0697    4.0697    4.1645    4.1645    4.2704    4.2704    4.5359    4.5359
    4.6183    4.6183    4.7825    4.7825    4.7850    4.7850    4.9992    4.9992    5.3117    5.3117
    5.3180    5.3180    5.5198    5.5198    5.7387    5.7387    5.9075    5.9075    5.9272    5.9272
    6.0025    6.0025    6.3979    6.3979    6.4263    6.4263    6.5234    6.5234    6.6993    6.6993
    6.7971    6.7971    7.0112    7.0112    7.0733    7.0733    7.1456    7.1456    7.2186    7.2186
    7.3310    7.3310    7.7336    7.7336    7.7480    7.7480    7.9992    7.9992    8.0490    8.0490
    8.1738    8.1738    8.5485    8.5485    8.6447    8.6447    8.6784    8.6784    8.7761    8.7761
    8.8407    8.8407    8.8911    8.8911    9.1062    9.1062    9.2051    9.2051    9.5017    9.5017
    9.6182    9.6182    9.8381    9.8381   10.0146   10.0146   10.0929   10.0929   10.2182   10.2182
   10.2780   10.2780   10.6745   10.6745   10.9388   10.9388   11.2738   11.2738   11.3906   11.3906
   11.4036   11.4036   11.5561   11.5561   12.3215   12.3215   12.4504   12.4504   12.4710   12.4710
   12.5577   12.5577   12.6788   12.6788   12.9502   12.9502   13.1226   13.1226   13.2650   13.2650
   13.6372   13.6372   13.8158   13.8158   13.9642   13.9642   14.0570   14.0570   14.1048   14.1048
   14.4363   14.4363   14.6046   14.6046   15.0820   15.0820   15.2513   15.2513   15.2586   15.2586
   15.6221   15.6221   16.4469   16.4469   16.7591   16.7591   16.8798   16.8798   17.1942   17.1942
   17.3174   17.3174   17.7695   17.7695   18.4740   18.4740   18.7781   18.7781   19.1065   19.1065
   19.5681   19.5681   20.0730   20.0730   20.2347   20.2347   20.7377   20.7377   20.8660   20.8660
   21.3331   21.3331   21.9806   21.9806   22.4618   22.4618   23.0341   23.0341   23.2820   23.2820
   23.8637   23.8637   24.0494   24.0494   24.2517   24.2517   24.6888   24.6888   25.2110   25.2110
   25.9972   25.9972   26.2335   26.2335   26.8766   26.8766   27.8954   27.8954   28.9647   28.9647
   29.3749   29.3749   29.5430   29.5430   30.1899   30.1899   30.3462   30.3462   30.7727   30.7727
   30.9411   30.9411   30.9810   30.9810   31.4032   31.4032   31.5867   31.5867   31.7137   31.7137
   32.5893   32.5893   33.8979   33.8979   33.9462   33.9462   34.0364   34.0364   34.2912   34.2912
   35.4466   35.4466   35.5922   35.5922   36.0941   36.0941   36.2468   36.2468   36.6641   36.6641
   37.0292   37.0292   37.1486   37.1486   37.2656   37.2656   37.3896   37.3896   38.7990   38.7990
   38.8827   38.8827   39.3217   39.3217   39.5472   39.5472   39.9590   39.9590   40.4271   40.4271
   40.8387   40.8387   41.0239   41.0239   41.5710   41.5710   41.7866   41.7866   41.9074   41.9074
   42.3172   42.3172   42.8546   42.8546   43.0062   43.0062   43.4593   43.4593   43.7937   43.7937
   43.9549   43.9549   44.3286   44.3286   44.6208   44.6208   44.7519   44.7519   45.2066   45.2066
   45.2312   45.2312   45.6201   45.6201   46.2440   46.2440   46.5330   46.5330   46.6817   46.6817
   47.0638   47.0638   47.8994   47.8994   48.4752   48.4752   49.0539   49.0539   49.8866   49.8866
   50.1416   50.1416   50.1951   50.1951   50.5759   50.5759   50.5814   50.5814   51.3396   51.3396
   51.9164   51.9164   51.9873   51.9873   52.7574   52.7574   52.8024   52.8024   54.2311   54.2311
   54.3769   54.3769   54.9302   54.9302   55.6048   55.6048   55.8483   55.8483   56.5174   56.5174
   56.6288   56.6288   57.2224   57.2224   58.5847   58.5847   58.6946   58.6946   59.1253   59.1253
   60.3317   60.3317   60.5535   60.5535   61.3258   61.3258   61.4262   61.4262   62.4568   62.4568
   62.7147   62.7147   63.2981   63.2981   63.5516   63.5516   63.6394   63.6394   66.3782   66.3782
   67.3737   67.3737   68.4219   68.4219   69.5689   69.5689   70.1835   70.1835   71.0950   71.0950
   71.7928   71.7928   72.0784   72.0784   72.6843   72.6843   76.0709   76.0709   87.9790   87.9790
   89.8572   89.8572   91.2969   91.2969   95.0205   95.0205   96.5671   96.5671   97.1255   97.1255
  100.9781  100.9781  102.8862  102.8862  103.5251  103.5251  104.7395  104.7395  106.6539  106.6539
  115.9317  115.9317  117.7330  117.7330  125.9182  125.9182  128.3610  128.3610  139.3740  139.3740
  145.5201  145.5201  147.4707  147.4707
siesta: Fermi energy =      -3.783879 eV

siesta: Program's energy decomposition (eV):
siesta: Ebs     =     -1134.981279
siesta: Eions   =      3585.165840
siesta: Ena     =       382.882313
siesta: Ekin    =      2915.148917
siesta: Enl     =     -2799.099317
siesta: Eso     =        -0.004346
siesta: Edftu   =         0.000000
siesta: DEna    =        48.137728
siesta: DUscf   =        13.778442
siesta: DUext   =         0.000000
siesta: Exc     =     -1123.705977
siesta: eta*DQ  =         0.000000
siesta: Emadel  =         0.000000
siesta: Emeta   =         0.000000
siesta: Emolmec =         0.000000
siesta: Ekinion =         0.000000
siesta: Eharris =     -4148.028080
siesta: Etot    =     -4148.028080
siesta: FreeEng =     -4148.028080

siesta: Final energy (eV):
siesta:  Band Struct. =   -1134.981279
siesta:       Kinetic =    2915.148917
siesta:       Hartree =    9096.164025
siesta:       Edftu   =       0.000000
siesta:       Eso     =      -0.004346
siesta:    Ext. field =       0.000000
siesta:   Exch.-corr. =   -1123.705977
siesta:  Ion-electron =  -20783.529149
siesta:       Ion-ion =    5747.898450
siesta:       Ekinion =       0.000000
siesta:         Total =   -4148.028080
siesta:         Fermi =      -3.783879

siesta: Atomic forces (eV/Ang):
siesta:      1   -1.465100   -2.330762   -0.000000
siesta:      2   -0.017960   -0.002240    0.000000
siesta:      3   -0.065959    0.006762   -0.000000
siesta:      4   -0.050151    0.008671    0.000000
siesta:      5   -0.002413    0.002568    0.000000
siesta:      6   -0.214197   -0.144546   -0.000000
siesta:      7   -0.002922    0.017320   -0.000000
siesta:      8    0.024130   -0.020512    0.000000
siesta:      9    0.005633   -0.094508    0.000000
siesta:     10    0.058600   -0.034784   -0.000000
siesta:     11    0.002807    0.001053   -0.000000
siesta:     12    0.096091    0.071527    0.000000
siesta:     13   -0.127069   -0.000800    0.000000
siesta:     14   -0.064639   -0.142694    0.000000
siesta:     15   -0.061697    0.149275    0.000000
siesta:     16    0.031421   -0.107546   -0.000000
siesta:     17   -0.059309    0.087271   -0.000000
siesta:     18    0.014955   -0.015380    0.000000
siesta:     19    0.028034    0.076918    0.000000
siesta:     20   -0.001025    0.029247   -0.000000
siesta:     21    0.035242   -0.043770   -0.000000
siesta:     22    0.270136    0.186923   -0.000000
siesta:     23   -0.030022   -0.067658   -0.000000
siesta:     24   -0.130089    0.224060   -0.000000
siesta:     25   -0.053500    0.043660   -0.000000
siesta:     26    0.153573    0.010456    0.000000
siesta:     27   -0.036320   -0.174326    0.000000
siesta:     28    0.107650    1.154126   -0.000000
siesta:     29   -0.046339    0.073284    0.000000
siesta: ----------------------------------------
siesta:    Tot   -1.600439   -1.036403    0.000000

siesta: Stress tensor (static) (eV/Ang**3):
siesta:    -0.000554   -0.000335   -0.000000
siesta:    -0.000335   -0.000661   -0.000000
siesta:    -0.000000   -0.000000   -0.000068

siesta: Cell volume =       4382.534654 Ang**3

siesta: Pressure (static):
siesta:                Solid            Molecule  Units
siesta:           0.00000466          0.00000529  Ry/Bohr**3
siesta:           0.00042771          0.00048603  eV/Ang**3
siesta:           0.68526743          0.77870662  kBar
(Free)E+ p_basis*V_orbitals  =       -4128.177662
(Free)Eharris+ p_basis*V_orbitals  =       -4128.177662
     spin moment: S , {S} =    0.00000   0.00000   0.00000  -0.00000

siesta: Electric dipole (a.u.)  =    1.635180    0.170149    0.000000
siesta: Electric dipole (Debye) =    4.156215    0.432475    0.000000

cite: Please see "GC.bib" for an exhaustive BiBTeX file.
cite: Please clearly indicate Siesta version in published work: v4.1.5-1-g384057250
cite: This calculation has made use of the following articles
cite: which are encouraged to be cited in a published work.
        Primary SIESTA paper
          DOI: www.doi.org/10.1088/0953-8984/14/11/302
        Spin-orbit coupling (on-site approximation)
          DOI: www.doi.org/10.1088/0953-8984/19/19/489001


WARNING: alloc-realloc-dealloc name mismatch
         Name: atomlist isa
         Size:              -116. Bytes
         Node:     0
         Subsequent mismatches will not be reported
>> End of run:   4-JUL-2023  10:40:05
Job completed
