Siesta Version  : v4.1.5-1-g384057250
Architecture    : gcc
Compiler version: GNU Fortran (Debian 10.2.1-6) 10.2.1 20210110
Compiler flags  : mpifort -O2 -fPIC -ftree-vectorize -fallow-argument-mismatch
PP flags        : -DFC_HAVE_ABORT -DMPI -DSIESTA__FLOOK -DSIESTA__METIS -DSIESTA__MUMPS -DCDF -DNCDF -DNCDF_4 -DNCDF_PARALLEL -DSIESTA__MRRR -DSIESTA__ELPA
Libraries       : libncdf.a libfdict.a  -lflookall -ldl -lnetcdff -lnetcdf -lhdf5_hl -lhdf5 -lhdf5_fortran -lz -lscalapack-openmpi -lopenblas -lmetis -lzmumps -lcmumps -ldmumps -lmumps_common -lpord -lsmumps -lesmumps -lscotch -lscotcherr -fopenmp -lelpa
PARALLEL version
NetCDF support
NetCDF-4 support
NetCDF-4 MPI-IO support
METIS ordering support
Lua support

* Running on 6 nodes in parallel
>> Start of run:  22-MAY-2023  10:32:43

                           ***********************       
                           *  WELCOME TO SIESTA  *       
                           ***********************       

reinit: Reading from standard input
reinit: Dumped input in INPUT_TMP.66654
************************** Dump of input data file ****************************
SystemLabel      AT
NumberOfAtoms    30
NumberOfSpecies  4
%block ChemicalSpeciesLabel
    1    1  H
    2    7  N
    3   14  Si
    4    8  O
%endblock ChemicalSpeciesLabel
# Single point calculation
MD.TypeOfRun                CG
MD.Steps                    0
SCF.MustConverge            F # In case it does not. There can be 2 very close atoms
AtomicCoordinatesFormat NotScaledCartesianAng
%block AtomicCoordinatesAndAtomicSpecies
2.582377650    -5.776830440   0.000000000       1
1.654759240    -5.269361980   0.000000000       2
0.063128840    -6.101704590   0.000000000       3
0.119223240    -7.596849500   0.000000000       1
-1.376892050   -5.182603740   0.000000000       2
-0.824371900   -3.460866440   0.000000000       3
-1.170571480   -1.270002100   0.000000000       3
-2.706933680   -0.417515780   0.000000000       2
-2.754569660   0.634858620    0.000000000       1
-3.637675640   -0.909967860   0.000000000       1
0.218091790    -0.234193970   0.000000000       2
1.872004100    -0.697162300   0.000000000       3
2.828001130    0.461464770    0.000000000       1
2.648150080    -2.255024470   0.000000000       2
1.391921380    -3.454727220   0.000000000       3
1.840455928    8.208624710    0.000000000       2
0.513084408    9.418829010    0.000000000       3
1.153085678    10.780147250   0.000000000       1
-1.572661532   8.748297660    0.000000000       3
-3.602224132   9.878413850    0.000000000       3
-3.447988362   11.038644060   0.940305280       1
-4.588158852   8.856493230    0.512613700       1
-4.018439092   10.354639700   -1.366678340      1
-1.506166112   6.474321040    0.000000000       3
-2.545214842   5.281261540    0.000000000       4
0.150825468    5.840345850    0.000000000       2
0.132808098    4.777901020    0.000000000       1
1.774428538    6.437416060    0.000000000       3
2.969444708    5.422990860    0.000000000       4
2.840493298    8.554131810    0.000000000       1
%endblock AtomicCoordinatesAndAtomicSpecies
%include ../../../Defaults.fdf
************************** End of input data file *****************************

reinit: -----------------------------------------------------------------------
reinit: System Name: 
reinit: -----------------------------------------------------------------------
reinit: System Label: AT
reinit: -----------------------------------------------------------------------

initatom: Reading input for the pseudopotentials and atomic orbitals ----------
Species number:   1 Atomic number:    1 Label: H
Species number:   2 Atomic number:    7 Label: N
Species number:   3 Atomic number:   14 Label: Si
Species number:   4 Atomic number:    8 Label: O

Ground state valence configuration:   1s01
Reading pseudopotential information in formatted form from H.psf

Pseudopotential generated from a relativistic atomic calculation

Valence configuration for pseudopotential generation:
1s( 1.00) rc: 0.01
2p( 0.00) rc: 0.60
3d( 0.00) rc: 1.99
4f( 0.00) rc: 2.49
Ground state valence configuration:   2s02  2p03
Reading pseudopotential information in formatted form from N.psf

Pseudopotential generated from a relativistic atomic calculation

Valence configuration for pseudopotential generation:
2s( 2.00) rc: 0.94
2p( 3.00) rc: 0.59
3d( 0.00) rc: 3.46
4f( 0.00) rc: 2.47
Ground state valence configuration:   3s02  3p02
Reading pseudopotential information in formatted form from Si.psf

Pseudopotential generated from a relativistic atomic calculation

Valence configuration for pseudopotential generation:
3s( 2.00) rc: 1.67
3p( 2.00) rc: 2.04
3d( 0.00) rc: 2.89
4f( 0.00) rc: 2.49
Ground state valence configuration:   2s02  2p04
Reading pseudopotential information in formatted form from O.psf

Pseudopotential generated from a relativistic atomic calculation

Valence configuration for pseudopotential generation:
2s( 2.00) rc: 0.45
2p( 4.00) rc: 0.92
3d( 0.00) rc: 2.24
4f( 0.00) rc: 0.25
For H, standard SIESTA heuristics set lmxkb to 2
 (one more than the basis l, including polarization orbitals).
Use PS.lmax or PS.KBprojectors blocks to override.
For N, standard SIESTA heuristics set lmxkb to 3
 (one more than the basis l, including polarization orbitals).
Use PS.lmax or PS.KBprojectors blocks to override.
For Si, standard SIESTA heuristics set lmxkb to 3
 (one more than the basis l, including polarization orbitals).
Use PS.lmax or PS.KBprojectors blocks to override.
For O, standard SIESTA heuristics set lmxkb to 3
 (one more than the basis l, including polarization orbitals).
Use PS.lmax or PS.KBprojectors blocks to override.

<basis_specs>
===============================================================================
H                    Z=   1    Mass=  1.0100        Charge= 0.17977+309
Lmxo=0 Lmxkb= 2    BasisType=split      Semic=F
L=0  Nsemic=0  Cnfigmx=1
          i=1  nzeta=2  polorb=1  (1s)
            splnorm:   0.62000    
               vcte:    0.0000    
               rinn:    0.0000    
               qcoe:    0.0000    
               qyuk:    0.0000    
               qwid:   0.10000E-01
                rcs:    0.0000      0.0000    
            lambdas:    1.0000      1.0000    
-------------------------------------------------------------------------------
L=0  Nkbl=1  erefs: 0.17977+309
L=1  Nkbl=1  erefs: 0.17977+309
L=2  Nkbl=1  erefs: 0.17977+309
===============================================================================
</basis_specs>

atom: Called for H                     (Z =   1)

read_vps: Pseudopotential generation method:
read_vps: ATM4.2.7  Troullier-Martins                       
Valence charge for ps generation:    1.00000

xc_check: Exchange-correlation functional:
xc_check: GGA Perdew, Burke & Ernzerhof 1996
V l=0 = -2*Zval/r beyond r=  0.0098
V l=1 = -2*Zval/r beyond r=  0.5817
V l=2 = -2*Zval/r beyond r=  1.9372
All V_l potentials equal beyond r=  1.9372
This should be close to max(r_c) in ps generation
All pots = -2*Zval/r beyond r=  1.9372

VLOCAL1: 99.0% of the norm of Vloc inside     11.567 Ry
VLOCAL1: 99.9% of the norm of Vloc inside     26.362 Ry
atom: Maximum radius for 4*pi*r*r*local-pseudopot. charge    2.25106
atom: Maximum radius for r*vlocal+2*Zval:    1.91306
GHOST: No ghost state for L =  0
GHOST: No ghost state for L =  1
GHOST: No ghost state for L =  2

KBgen: Kleinman-Bylander projectors: 
   l= 0   rc=  2.036604   el= -0.477180   Ekb= -6.081590   kbcos= -0.277285
   l= 1   rc=  2.195416   el=  0.001076   Ekb= -0.926943   kbcos= -0.034643
   l= 2   rc=  2.251056   el=  0.002010   Ekb= -0.130941   kbcos= -0.009788

KBgen: Total number of Kleinman-Bylander projectors:    9
atom: -------------------------------------------------------------------------

atom: SANKEY-TYPE ORBITALS:
atom: Selected multiple-zeta basis: split     

SPLIT: Orbitals with angular momentum L= 0

SPLIT: Basis orbitals for state 1s

SPLIT: PAO cut-off radius determined from an
SPLIT: energy shift=  0.002000 Ry

   izeta = 1
                 lambda =    1.000000
                     rc =    6.518340
                 energy =   -0.475305
                kinetic =    0.912139
    potential(screened) =   -1.387444
       potential(ionic) =   -1.907295

   izeta = 2
                 rmatch =    2.141150
              splitnorm =    0.620000
                 energy =    0.566467
                kinetic =    3.772856
    potential(screened) =   -3.206389
       potential(ionic) =   -3.759093

POLgen: Perturbative polarization orbital with L=  1

POLgen: Polarization orbital for state 1s

   izeta = 1
                     rc =    6.518340
                 energy =    0.533861
                kinetic =    1.121086
    potential(screened) =   -0.587225
       potential(ionic) =   -1.053027
atom: Total number of Sankey-type orbitals:  5

atm_pop: Valence configuration (for local Pseudopot. screening):
 1s( 1.00)                                                            
Vna: chval, zval:    1.00000   1.00000

Vna:  Cut-off radius for the neutral-atom potential:   6.518340

atom: _________________________________________________________________________

<basis_specs>
===============================================================================
N                    Z=   7    Mass=  14.010        Charge= 0.17977+309
Lmxo=1 Lmxkb= 3    BasisType=split      Semic=F
L=0  Nsemic=0  Cnfigmx=2
          i=1  nzeta=2  polorb=0  (2s)
            splnorm:   0.28000    
               vcte:    0.0000    
               rinn:    0.0000    
               qcoe:    0.0000    
               qyuk:    0.0000    
               qwid:   0.10000E-01
                rcs:    0.0000      0.0000    
            lambdas:    1.0000      1.0000    
L=1  Nsemic=0  Cnfigmx=2
          i=1  nzeta=2  polorb=1  (2p)
            splnorm:   0.28000    
               vcte:    0.0000    
               rinn:    0.0000    
               qcoe:    0.0000    
               qyuk:    0.0000    
               qwid:   0.10000E-01
                rcs:    0.0000      0.0000    
            lambdas:    1.0000      1.0000    
-------------------------------------------------------------------------------
L=0  Nkbl=1  erefs: 0.17977+309
L=1  Nkbl=1  erefs: 0.17977+309
L=2  Nkbl=1  erefs: 0.17977+309
L=3  Nkbl=1  erefs: 0.17977+309
===============================================================================
</basis_specs>

atom: Called for N                     (Z =   7)

read_vps: Pseudopotential generation method:
read_vps: ATM4.2.7  Troullier-Martins                       
Valence charge for ps generation:    5.00000

xc_check: Exchange-correlation functional:
xc_check: GGA Perdew, Burke & Ernzerhof 1996
V l=0 = -2*Zval/r beyond r=  1.2889
V l=1 = -2*Zval/r beyond r=  1.2889
V l=2 = -2*Zval/r beyond r=  3.4178
V l=3 = -2*Zval/r beyond r=  2.4084
All V_l potentials equal beyond r=  3.3753
This should be close to max(r_c) in ps generation
All pots = -2*Zval/r beyond r=  3.4178

VLOCAL1: 99.0% of the norm of Vloc inside      3.810 Ry
VLOCAL1: 99.9% of the norm of Vloc inside      8.683 Ry
atom: Maximum radius for 4*pi*r*r*local-pseudopot. charge    4.02088
atom: Maximum radius for r*vlocal+2*Zval:    3.54838
GHOST: No ghost state for L =  0
GHOST: No ghost state for L =  1
GHOST: No ghost state for L =  2
GHOST: No ghost state for L =  3

KBgen: Kleinman-Bylander projectors: 
   l= 0   rc=  3.417763   el= -1.365098   Ekb= -4.433130   kbcos= -0.707855
   l= 1   rc=  3.375302   el= -0.521201   Ekb=-13.264039   kbcos= -0.535594
   l= 2   rc=  3.872880   el=  0.001991   Ekb= -0.641094   kbcos= -0.062456
   l= 3   rc=  3.970931   el=  0.003093   Ekb= -0.474517   kbcos= -0.018236

KBgen: Total number of Kleinman-Bylander projectors:   16
atom: -------------------------------------------------------------------------

atom: SANKEY-TYPE ORBITALS:
atom: Selected multiple-zeta basis: split     

SPLIT: Orbitals with angular momentum L= 0

SPLIT: Basis orbitals for state 2s

SPLIT: PAO cut-off radius determined from an
SPLIT: energy shift=  0.002000 Ry

   izeta = 1
                 lambda =    1.000000
                     rc =    4.730425
                 energy =   -1.363399
                kinetic =    1.245246
    potential(screened) =   -2.608645
       potential(ionic) =   -8.121105

   izeta = 2
                 rmatch =    2.531849
              splitnorm =    0.280000
                 energy =   -0.959908
                kinetic =    2.409435
    potential(screened) =   -3.369343
       potential(ionic) =   -9.427975

SPLIT: Orbitals with angular momentum L= 1

SPLIT: Basis orbitals for state 2p

SPLIT: PAO cut-off radius determined from an
SPLIT: energy shift=  0.002000 Ry

   izeta = 1
                 lambda =    1.000000
                     rc =    5.924108
                 energy =   -0.519262
                kinetic =    3.672940
    potential(screened) =   -4.192202
       potential(ionic) =   -9.518354

   izeta = 2
                 rmatch =    2.531849
              splitnorm =    0.280000
                 energy =   -0.104258
                kinetic =    6.807538
    potential(screened) =   -6.911796
       potential(ionic) =  -13.149920

POLgen: Perturbative polarization orbital with L=  2

POLgen: Polarization orbital for state 2p

   izeta = 1
                     rc =    5.924108
                 energy =    1.427508
                kinetic =    2.872379
    potential(screened) =   -1.444871
       potential(ionic) =   -5.563644
atom: Total number of Sankey-type orbitals: 13

atm_pop: Valence configuration (for local Pseudopot. screening):
 2s( 2.00)                                                            
 2p( 3.00)                                                            
Vna: chval, zval:    5.00000   5.00000

Vna:  Cut-off radius for the neutral-atom potential:   5.924108

atom: _________________________________________________________________________

<basis_specs>
===============================================================================
Si                   Z=  14    Mass=  28.090        Charge= 0.17977+309
Lmxo=1 Lmxkb= 3    BasisType=split      Semic=F
L=0  Nsemic=0  Cnfigmx=3
          i=1  nzeta=2  polorb=0  (3s)
            splnorm:   0.28000    
               vcte:    0.0000    
               rinn:    0.0000    
               qcoe:    0.0000    
               qyuk:    0.0000    
               qwid:   0.10000E-01
                rcs:    0.0000      0.0000    
            lambdas:    1.0000      1.0000    
L=1  Nsemic=0  Cnfigmx=3
          i=1  nzeta=2  polorb=1  (3p)
            splnorm:   0.28000    
               vcte:    0.0000    
               rinn:    0.0000    
               qcoe:    0.0000    
               qyuk:    0.0000    
               qwid:   0.10000E-01
                rcs:    0.0000      0.0000    
            lambdas:    1.0000      1.0000    
-------------------------------------------------------------------------------
L=0  Nkbl=1  erefs: 0.17977+309
L=1  Nkbl=1  erefs: 0.17977+309
L=2  Nkbl=1  erefs: 0.17977+309
L=3  Nkbl=1  erefs: 0.17977+309
===============================================================================
</basis_specs>

atom: Called for Si                    (Z =  14)

read_vps: Pseudopotential generation method:
read_vps: ATM4.2.7  Troullier-Martins                       
Valence charge for ps generation:    4.00000

xc_check: Exchange-correlation functional:
xc_check: GGA Perdew, Burke & Ernzerhof 1996
V l=0 = -2*Zval/r beyond r=  2.7826
V l=1 = -2*Zval/r beyond r=  2.7826
V l=2 = -2*Zval/r beyond r=  2.9253
V l=3 = -2*Zval/r beyond r=  2.7826
All V_l potentials equal beyond r=  2.8530
This should be close to max(r_c) in ps generation
All pots = -2*Zval/r beyond r=  2.9253

VLOCAL1: 99.0% of the norm of Vloc inside      5.333 Ry
VLOCAL1: 99.9% of the norm of Vloc inside     12.154 Ry
atom: Maximum radius for 4*pi*r*r*local-pseudopot. charge    3.39869
atom: Maximum radius for r*vlocal+2*Zval:    2.96205
GHOST: No ghost state for L =  0
GHOST: No ghost state for L =  1
GHOST: No ghost state for L =  2
GHOST: No ghost state for L =  3

KBgen: Kleinman-Bylander projectors: 
   l= 0   rc=  3.075247   el= -0.794092   Ekb=  5.879390   kbcos=  0.167461
   l= 1   rc=  3.153101   el= -0.300068   Ekb=  2.642817   kbcos=  0.058301
   l= 2   rc=  3.273594   el=  0.001958   Ekb= -1.185135   kbcos= -0.104411
   l= 3   rc=  3.232927   el=  0.003046   Ekb= -0.497174   kbcos= -0.015889

KBgen: Total number of Kleinman-Bylander projectors:   16
atom: -------------------------------------------------------------------------

atom: SANKEY-TYPE ORBITALS:
atom: Selected multiple-zeta basis: split     

SPLIT: Orbitals with angular momentum L= 0

SPLIT: Basis orbitals for state 3s

SPLIT: PAO cut-off radius determined from an
SPLIT: energy shift=  0.002000 Ry

   izeta = 1
                 lambda =    1.000000
                     rc =    6.429618
                 energy =   -0.792283
                kinetic =    0.525293
    potential(screened) =   -1.317576
       potential(ionic) =   -3.744923

   izeta = 2
                 rmatch =    3.998416
              splitnorm =    0.280000
                 energy =   -0.583081
                kinetic =    1.069570
    potential(screened) =   -1.652651
       potential(ionic) =   -4.235185

SPLIT: Orbitals with angular momentum L= 1

SPLIT: Basis orbitals for state 3p

SPLIT: PAO cut-off radius determined from an
SPLIT: energy shift=  0.002000 Ry

   izeta = 1
                 lambda =    1.000000
                     rc =    8.464845
                 energy =   -0.298236
                kinetic =    0.785360
    potential(screened) =   -1.083596
       potential(ionic) =   -3.273779

   izeta = 2
                 rmatch =    4.587816
              splitnorm =    0.280000
                 energy =   -0.131871
                kinetic =    1.403687
    potential(screened) =   -1.535557
       potential(ionic) =   -4.015310

POLgen: Perturbative polarization orbital with L=  2

POLgen: Polarization orbital for state 3p

   izeta = 1
                     rc =    8.464845
                 energy =    0.321949
                kinetic =    1.055677
    potential(screened) =   -0.733728
       potential(ionic) =   -2.672950
atom: Total number of Sankey-type orbitals: 13

atm_pop: Valence configuration (for local Pseudopot. screening):
 3s( 2.00)                                                            
 3p( 2.00)                                                            
Vna: chval, zval:    4.00000   4.00000

Vna:  Cut-off radius for the neutral-atom potential:   8.464845

atom: _________________________________________________________________________

<basis_specs>
===============================================================================
O                    Z=   8    Mass=  16.000        Charge= 0.17977+309
Lmxo=1 Lmxkb= 3    BasisType=split      Semic=F
L=0  Nsemic=0  Cnfigmx=2
          i=1  nzeta=2  polorb=0  (2s)
            splnorm:   0.28000    
               vcte:    0.0000    
               rinn:    0.0000    
               qcoe:    0.0000    
               qyuk:    0.0000    
               qwid:   0.10000E-01
                rcs:    0.0000      0.0000    
            lambdas:    1.0000      1.0000    
L=1  Nsemic=0  Cnfigmx=2
          i=1  nzeta=2  polorb=1  (2p)
            splnorm:   0.28000    
               vcte:    0.0000    
               rinn:    0.0000    
               qcoe:    0.0000    
               qyuk:    0.0000    
               qwid:   0.10000E-01
                rcs:    0.0000      0.0000    
            lambdas:    1.0000      1.0000    
-------------------------------------------------------------------------------
L=0  Nkbl=1  erefs: 0.17977+309
L=1  Nkbl=1  erefs: 0.17977+309
L=2  Nkbl=1  erefs: 0.17977+309
L=3  Nkbl=1  erefs: 0.17977+309
===============================================================================
</basis_specs>

atom: Called for O                     (Z =   8)

read_vps: Pseudopotential generation method:
read_vps: ATM4.2.7  Troullier-Martins                       
Valence charge for ps generation:    6.00000

xc_check: Exchange-correlation functional:
xc_check: GGA Perdew, Burke & Ernzerhof 1996
V l=0 = -2*Zval/r beyond r=  1.1000
V l=1 = -2*Zval/r beyond r=  1.1000
V l=2 = -2*Zval/r beyond r=  2.2154
V l=3 = -2*Zval/r beyond r=  1.1000
All V_l potentials equal beyond r=  2.2154
This should be close to max(r_c) in ps generation
All pots = -2*Zval/r beyond r=  2.2154

VLOCAL1: 99.0% of the norm of Vloc inside      8.845 Ry
VLOCAL1: 99.9% of the norm of Vloc inside     20.157 Ry
atom: Maximum radius for 4*pi*r*r*local-pseudopot. charge    2.67231
atom: Maximum radius for r*vlocal+2*Zval:    2.32897
GHOST: No ghost state for L =  0
GHOST: No ghost state for L =  1
GHOST: No ghost state for L =  2
GHOST: No ghost state for L =  3

KBgen: Kleinman-Bylander projectors: 
   l= 0   rc=  2.243238   el= -1.759686   Ekb=**********   kbcos= -0.171774
   l= 1   rc=  2.328968   el= -0.663873   Ekb=-14.506792   kbcos= -0.519897
   l= 2   rc=  2.573941   el=  0.002031   Ekb= -1.137373   kbcos= -0.019581
   l= 3   rc=  2.606321   el=  0.003153   Ekb= -1.013546   kbcos= -0.003122

KBgen: Total number of Kleinman-Bylander projectors:   16
atom: -------------------------------------------------------------------------

atom: SANKEY-TYPE ORBITALS:
atom: Selected multiple-zeta basis: split     

SPLIT: Orbitals with angular momentum L= 0

SPLIT: Basis orbitals for state 2s

SPLIT: PAO cut-off radius determined from an
SPLIT: energy shift=  0.002000 Ry

   izeta = 1
                 lambda =    1.000000
                     rc =    4.243912
                 energy =   -1.758270
                kinetic =    3.286084
    potential(screened) =   -5.044353
       potential(ionic) =  -12.921184

   izeta = 2
                 rmatch =    2.187845
              splitnorm =    0.280000
                 energy =   -0.885018
                kinetic =    8.134434
    potential(screened) =   -9.019452
       potential(ionic) =  -17.710645

SPLIT: Orbitals with angular momentum L= 1

SPLIT: Basis orbitals for state 2p

SPLIT: PAO cut-off radius determined from an
SPLIT: energy shift=  0.002000 Ry

   izeta = 1
                 lambda =    1.000000
                     rc =    5.314825
                 energy =   -0.661986
                kinetic =    4.917472
    potential(screened) =   -5.579458
       potential(ionic) =  -13.236259

   izeta = 2
                 rmatch =    2.160663
              splitnorm =    0.280000
                 energy =   -0.068760
                kinetic =    9.183374
    potential(screened) =   -9.252135
       potential(ionic) =  -18.274251

POLgen: Perturbative polarization orbital with L=  2

POLgen: Polarization orbital for state 2p

   izeta = 1
                     rc =    5.314825
                 energy =    1.970580
                kinetic =    3.886128
    potential(screened) =   -1.915547
       potential(ionic) =   -7.749584
atom: Total number of Sankey-type orbitals: 13

atm_pop: Valence configuration (for local Pseudopot. screening):
 2s( 2.00)                                                            
 2p( 4.00)                                                            
Vna: chval, zval:    6.00000   6.00000

Vna:  Cut-off radius for the neutral-atom potential:   5.314825

atom: _________________________________________________________________________

prinput: Basis input ----------------------------------------------------------

PAO.BasisType split     

%block ChemicalSpeciesLabel
    1    1 H                       # Species index, atomic number, species label
    2    7 N                       # Species index, atomic number, species label
    3   14 Si                      # Species index, atomic number, species label
    4    8 O                       # Species index, atomic number, species label
%endblock ChemicalSpeciesLabel

%block PAO.Basis                 # Define Basis set
H                     1                    # Species label, number of l-shells
 n=1   0   2 P   1                   # n, l, Nzeta, Polarization, NzetaPol
   6.518      2.141   
   1.000      1.000   
N                     2                    # Species label, number of l-shells
 n=2   0   2                         # n, l, Nzeta 
   4.730      2.532   
   1.000      1.000   
 n=2   1   2 P   1                   # n, l, Nzeta, Polarization, NzetaPol
   5.924      2.532   
   1.000      1.000   
Si                    2                    # Species label, number of l-shells
 n=3   0   2                         # n, l, Nzeta 
   6.430      3.998   
   1.000      1.000   
 n=3   1   2 P   1                   # n, l, Nzeta, Polarization, NzetaPol
   8.465      4.588   
   1.000      1.000   
O                     2                    # Species label, number of l-shells
 n=2   0   2                         # n, l, Nzeta 
   4.244      2.188   
   1.000      1.000   
 n=2   1   2 P   1                   # n, l, Nzeta, Polarization, NzetaPol
   5.315      2.161   
   1.000      1.000   
%endblock PAO.Basis

prinput: ----------------------------------------------------------------------

Dumping basis to NetCDF file H.ion.nc
Dumping basis to NetCDF file N.ion.nc
Dumping basis to NetCDF file Si.ion.nc
Dumping basis to NetCDF file O.ion.nc
coor:   Atomic-coordinates input format  =     Cartesian coordinates
coor:                                          (in Angstroms)

siesta: Atomic coordinates (Bohr) and species
siesta:      4.87999 -10.91663   0.00000  1        1
siesta:      3.12704  -9.95765   0.00000  2        2
siesta:      0.11930 -11.53056   0.00000  3        3
siesta:      0.22530 -14.35597   0.00000  1        4
siesta:     -2.60195  -9.79371   0.00000  2        5
siesta:     -1.55784  -6.54009   0.00000  3        6
siesta:     -2.21206  -2.39996   0.00000  3        7
siesta:     -5.11537  -0.78899   0.00000  2        8
siesta:     -5.20538   1.19971   0.00000  1        9
siesta:     -6.87421  -1.71959   0.00000  1       10
siesta:      0.41213  -0.44256   0.00000  2       11
siesta:      3.53758  -1.31745   0.00000  3       12
siesta:      5.34415   0.87204   0.00000  1       13
siesta:      5.00428  -4.26138   0.00000  2       14
siesta:      2.63035  -6.52849   0.00000  3       15
siesta:      3.47796  15.51206   0.00000  2       16
siesta:      0.96959  17.79901   0.00000  3       17
siesta:      2.17902  20.37153   0.00000  1       18
siesta:     -2.97190  16.53189   0.00000  3       19
siesta:     -6.80722  18.66750   0.00000  3       20
siesta:     -6.51576  20.86002   1.77692  1       21
siesta:     -8.67037  16.73635   0.96870  1       22
siesta:     -7.59375  19.56744  -2.58265  1       23
siesta:     -2.84624  12.23470   0.00000  3       24
siesta:     -4.80976   9.98014   0.00000  4       25
siesta:      0.28502  11.03666   0.00000  2       26
siesta:      0.25097   9.02893   0.00000  1       27
siesta:      3.35319  12.16496   0.00000  3       28
siesta:      5.61144  10.24797   0.00000  4       29
siesta:      5.36776  16.16497   0.00000  1       30

siesta: Automatic unit cell vectors (Ang):
siesta:   15.876334    0.000000    0.000000
siesta:    0.000000   28.087626    0.000000
siesta:    0.000000    0.000000   10.224979

siesta: System type = molecule  

initatomlists: Number of atoms, orbitals, and projectors:     30   302   403

siesta: ******************** Simulation parameters ****************************
siesta:
siesta: The following are some of the parameters of the simulation.
siesta: A complete list of the parameters used, including default values,
siesta: can be found in file out.fdf
siesta:
redata: Spin configuration                          = spin-orbit
redata: Number of spin components                   = 8
redata: Time-Reversal Symmetry                      = F
redata: Spin spiral                                 = F
############################################################
This spin-orbit implementation uses a local approximation.
From 4.2 and onwards the full non-local approximation is implemented
You are strongly advised to use >=4.2 versions!
############################################################
redata: Long output                                 =   F
redata: Number of Atomic Species                    =        4
redata: Charge density info will appear in .RHO file
redata: Write Mulliken Pop.                         = Atomic and Orbital charges
redata: Matel table size (NRTAB)                    =     1024
redata: Mesh Cutoff                                 =   340.0000 Ry
redata: Net charge of the system                    =     0.0000 |e|
redata: Min. number of SCF Iter                     =        1
redata: Max. number of SCF Iter                     =      200
redata: SCF mix quantity                            = Hamiltonian
redata: Mix DM or H after convergence               =   F
redata: Recompute H after scf cycle                 =   F
redata: Mix DM in first SCF step                    =   T
redata: Write Pulay info on disk                    =   F
redata: New DM Occupancy tolerance                  = 0.000000000001
redata: No kicks to SCF
redata: DM Mixing Weight for Kicks                  =     0.5000
redata: Require Harris convergence for SCF          =   F
redata: Harris energy tolerance for SCF             =     0.000100 eV
redata: Require DM convergence for SCF              =   T
redata: DM tolerance for SCF                        =     0.000008
redata: Require EDM convergence for SCF             =   F
redata: EDM tolerance for SCF                       =     0.001000 eV
redata: Require H convergence for SCF               =   T
redata: Hamiltonian tolerance for SCF               =     0.000001 eV
redata: Require (free) Energy convergence for SCF   =   F
redata: (free) Energy tolerance for SCF             =     0.000100 eV
redata: Using Saved Data (generic)                  =   F
redata: Use continuation files for DM               =   F
redata: Neglect nonoverlap interactions             =   F
redata: Method of Calculation                       = Diagonalization
redata: Electronic Temperature                      =   299.9978 K
redata: Fix the spin of the system                  =   F
redata: Dynamics option                             = Single-point calculation
mix.SCF: Pulay mixing                            = Pulay
mix.SCF:    Variant                              = stable
mix.SCF:    History steps                        = 6
mix.SCF:    Linear mixing weight                 =     0.250000
mix.SCF:    Mixing weight                        =     0.250000
mix.SCF:    SVD condition                        = 0.1000E-07
mix.SCF:    Restart steps                        = 24
mix.SCF:    Restart save steps                   = 3
mix.SCF: Spin-component mixing                   all
redata: Save all siesta data in one NC              =   F
redata: ***********************************************************************

%block SCF.Mixers
  Pulay
%endblock SCF.Mixers

%block SCF.Mixer.Pulay
  # Mixing method
  method pulay
  variant stable

  # Mixing options
  weight 0.2500
  weight.linear 0.2500
  history 6
  restart 24
  restart.save 3
%endblock SCF.Mixer.Pulay

DM_history_depth set to one: no extrapolation allowed by default for geometry relaxation
Size of DM history Fstack: 1
Total number of electrons:    98.000000
Total ionic charge:    98.000000

* ProcessorY, Blocksize:    2  24


* Orbital distribution balance (max,min):    62    48


Time-reversal symmetry not used.

siesta: k-grid: Number of k-points =     1
siesta: k-grid: Cutoff (effective) =     5.112 Ang
siesta: k-grid: Supercell and displacements
siesta: k-grid:    1   0   0      0.000
siesta: k-grid:    0   1   0      0.000
siesta: k-grid:    0   0   1      0.000

diag: Algorithm                                     = ELPA-1stage
diag: Parallel over k                               =   F
diag: Use parallel 2D distribution                  =   T
diag: Parallel block-size                           = 24
diag: Parallel distribution                         =     2 x     3
diag: Used triangular part                          = Lower
diag: Absolute tolerance                            =  0.100E-15
diag: Orthogonalization factor                      =  0.100E-05
diag: Memory factor                                 =  1.0000


ts: **************************************************************
ts: Save H and S matrices                           =    F
ts: Save DM and EDM matrices                        =    F
ts: Only save the overlap matrix S                  =    F
ts: **************************************************************

************************ Begin: TS CHECKS AND WARNINGS ************************
************************ End: TS CHECKS AND WARNINGS **************************


                     ====================================
                        Single-point calculation
                     ====================================

outcoor: Atomic coordinates (Ang):                          
    2.58237765   -5.77683044    0.00000000   1       1  H
    1.65475924   -5.26936198    0.00000000   2       2  N
    0.06312884   -6.10170459    0.00000000   3       3  Si
    0.11922324   -7.59684950    0.00000000   1       4  H
   -1.37689205   -5.18260374    0.00000000   2       5  N
   -0.82437190   -3.46086644    0.00000000   3       6  Si
   -1.17057148   -1.27000210    0.00000000   3       7  Si
   -2.70693368   -0.41751578    0.00000000   2       8  N
   -2.75456966    0.63485862    0.00000000   1       9  H
   -3.63767564   -0.90996786    0.00000000   1      10  H
    0.21809179   -0.23419397    0.00000000   2      11  N
    1.87200410   -0.69716230    0.00000000   3      12  Si
    2.82800113    0.46146477    0.00000000   1      13  H
    2.64815008   -2.25502447    0.00000000   2      14  N
    1.39192138   -3.45472722    0.00000000   3      15  Si
    1.84045593    8.20862471    0.00000000   2      16  N
    0.51308441    9.41882901    0.00000000   3      17  Si
    1.15308568   10.78014725    0.00000000   1      18  H
   -1.57266153    8.74829766    0.00000000   3      19  Si
   -3.60222413    9.87841385    0.00000000   3      20  Si
   -3.44798836   11.03864406    0.94030528   1      21  H
   -4.58815885    8.85649323    0.51261370   1      22  H
   -4.01843909   10.35463970   -1.36667834   1      23  H
   -1.50616611    6.47432104    0.00000000   3      24  Si
   -2.54521484    5.28126154    0.00000000   4      25  O
    0.15082547    5.84034585    0.00000000   2      26  N
    0.13280810    4.77790102    0.00000000   1      27  H
    1.77442854    6.43741606    0.00000000   3      28  Si
    2.96944471    5.42299086    0.00000000   4      29  O
    2.84049330    8.55413181    0.00000000   1      30  H

outcell: Unit cell vectors (Ang):
       15.876334    0.000000    0.000000
        0.000000   28.087626    0.000000
        0.000000    0.000000   10.224979

outcell: Cell vector modules (Ang)   :   15.876334   28.087626   10.224979
outcell: Cell angles (23,13,12) (deg):     90.0000     90.0000     90.0000
outcell: Cell volume (Ang**3)        :   4559.6100
<dSpData1D:S at geom step 0
  <sparsity:sparsity for geom step 0
    nrows_g=302 nrows=62 sparsity=.1009 nnzs=9198, refcount: 8>
  <dData1D:(new from dSpData1D) n=9198, refcount: 1>
refcount: 1>
new_DM -- step:     1
Initializing Density Matrix...
DM filled with atomic data:
<dSpData2D:DM initialized from atoms
  <sparsity:sparsity for geom step 0
    nrows_g=302 nrows=62 sparsity=.1009 nnzs=9198, refcount: 9>
  <dData2D:DM n=9198 m=8, refcount: 1>
refcount: 1>
     spin moment: S , {S} =   56.00000   0.00000   0.00000  56.00000
No. of atoms with KB's overlaping orbs in proc 0. Max # of overlaps:      24     133

Initializing spin-orbit part of the Hamiltonian
  Adding spin-orbit effects for H 
  Adding spin-orbit effects for N 
  Adding spin-orbit effects for Si
  Adding spin-orbit effects for O 


New grid distribution:   1
           1       1:   90    1:   80    1:   20
           2       1:   90    1:   80   21:   40
           3       1:   90    1:   80   41:   60
           4       1:   90   81:  160    1:   20
           5       1:   90   81:  160   21:   40
           6       1:   90   81:  160   41:   60

InitMesh: MESH =   180 x   320 x   120 =     6912000
InitMesh: (bp) =    90 x   160 x    60 =      864000
InitMesh: Mesh cutoff (required, used) =   340.000   355.260 Ry
ExtMesh (bp) on 0 =   194 x   184 x   128 =     4569088
New grid distribution:   2
           1      14:   90   42:   61    1:   60
           2       1:   11   62:  160    1:   60
           3       1:   13    1:   61    1:   60
           4      12:   90   62:  140    1:   60
           5      14:   90    1:   41    1:   60
           6      12:   90  141:  160    1:   60
New grid distribution:   3
           1       1:   19   63:  160    1:   60
           2      22:   90   38:   62    1:   60
           3       1:   21    1:   62    1:   60
           4      20:   90   63:  130    1:   60
           5      22:   90    1:   37    1:   60
           6      20:   90  131:  160    1:   60
Setting up quadratic distribution...
ExtMesh (bp) on 0 =   181 x   124 x   168 =     3770592
PhiOnMesh: Number of (b)points on node 0 =                92400
PhiOnMesh: nlist on node 0 =              1709596

stepf: Fermi-Dirac step function

siesta: Program's energy decomposition (eV):
siesta: Ebs     =      -632.422699
siesta: Eions   =      3553.971015
siesta: Ena     =       377.805300
siesta: Ekin    =      3184.000529
siesta: Enl     =     -2998.838526
siesta: Eso     =        -0.003898
siesta: Edftu   =         0.000000
siesta: DEna    =       130.467258
siesta: DUscf   =        76.877211
siesta: DUext   =         0.000000
siesta: Exc     =     -1171.562416
siesta: eta*DQ  =         0.000000
siesta: Emadel  =         0.000000
siesta: Emeta   =         0.000000
siesta: Emolmec =         0.000000
siesta: Ekinion =         0.000000
siesta: Eharris =     -3882.039806
siesta: Etot    =     -3955.225557
siesta: FreeEng =     -3955.229786

        iscf     Eharris(eV)        E_KS(eV)     FreeEng(eV)     dDmax    Ef(eV) dHmax(eV)
   scf:    1    -3882.039806    -3955.225557    -3955.229786  0.971456 -4.940930 21.556380
     spin moment: S , {S} =    2.03196   0.00003   0.00001   2.03196
timer: Routine,Calls,Time,% = IterSCF        1       5.594  21.87
   scf:    2    -3997.881327    -3989.264593    -3989.264595  0.457130 -4.364988 10.838296
     spin moment: S , {S} =    2.00011  -0.00001   0.00004   2.00011
   scf:    3    -3975.600028    -3990.483806    -3990.519845  0.415360 -4.270862  9.437487
     spin moment: S , {S} =    1.24689   0.00002   0.00001   1.24689
   scf:    4    -4001.176865    -3997.417718    -3997.417720  0.206358 -3.967513  6.018441
     spin moment: S , {S} =    0.00010   0.00001  -0.00000   0.00010
   scf:    5    -3998.743452    -3998.165070    -3998.165070  0.038653 -3.896451  3.631537
     spin moment: S , {S} =    0.00005   0.00000  -0.00000   0.00005
   scf:    6    -3998.832073    -3998.508510    -3998.508510  0.023010 -3.895729  2.000359
     spin moment: S , {S} =    0.00003   0.00000  -0.00000   0.00003
   scf:    7    -3998.894820    -3998.694049    -3998.694049  0.023800 -3.947884  0.731257
     spin moment: S , {S} =    0.00001   0.00000  -0.00000   0.00001
   scf:    8    -3998.803426    -3998.746676    -3998.746676  0.011312 -3.986493  0.417806
     spin moment: S , {S} =    0.00000   0.00000  -0.00000   0.00000
   scf:    9    -3998.789145    -3998.766959    -3998.766959  0.006770 -4.002044  0.312244
     spin moment: S , {S} =    0.00000   0.00000  -0.00000   0.00000
   scf:   10    -3998.817778    -3998.786553    -3998.786566  0.018969 -4.023791  0.167975
     spin moment: S , {S} =    0.00003   0.00000   0.00000  -0.00003
   scf:   11    -3998.789723    -3998.788171    -3998.788188  0.004192 -4.013028  0.043906
     spin moment: S , {S} =    0.00000   0.00000   0.00000  -0.00000
   scf:   12    -3998.788722    -3998.788448    -3998.788468  0.001316 -4.011488  0.023731
     spin moment: S , {S} =    0.00000   0.00000   0.00000   0.00000
   scf:   13    -3998.788784    -3998.788612    -3998.788633  0.001106 -4.009841  0.016868
     spin moment: S , {S} =    0.00000   0.00000   0.00000   0.00000
   scf:   14    -3998.788831    -3998.788715    -3998.788737  0.001164 -4.009098  0.013598
     spin moment: S , {S} =    0.00000   0.00000   0.00000   0.00000
   scf:   15    -3998.788851    -3998.788778    -3998.788800  0.001115 -4.008718  0.009462
     spin moment: S , {S} =    0.00000   0.00000   0.00000  -0.00000
   scf:   16    -3998.788851    -3998.788811    -3998.788832  0.000902 -4.008718  0.006040
     spin moment: S , {S} =    0.00000   0.00000   0.00000  -0.00000
   scf:   17    -3998.788847    -3998.788826    -3998.788848  0.000759 -4.008786  0.003905
     spin moment: S , {S} =    0.00000   0.00000   0.00000  -0.00000
   scf:   18    -3998.788836    -3998.788830    -3998.788852  0.000381 -4.008857  0.002269
     spin moment: S , {S} =    0.00000   0.00000   0.00000  -0.00000
   scf:   19    -3998.788835    -3998.788832    -3998.788854  0.000315 -4.008853  0.001053
     spin moment: S , {S} =    0.00000   0.00000   0.00000  -0.00000
   scf:   20    -3998.788833    -3998.788832    -3998.788854  0.000086 -4.008857  0.000711
     spin moment: S , {S} =    0.00000   0.00000   0.00000  -0.00000
   scf:   21    -3998.788833    -3998.788833    -3998.788854  0.000086 -4.008855  0.000294
     spin moment: S , {S} =    0.00000   0.00000   0.00000  -0.00000
   scf:   22    -3998.788833    -3998.788833    -3998.788854  0.000056 -4.008865  0.000131
     spin moment: S , {S} =    0.00000   0.00000   0.00000  -0.00000
   scf:   23    -3998.788833    -3998.788833    -3998.788854  0.000012 -4.008871  0.000093
     spin moment: S , {S} =    0.00000   0.00000   0.00000  -0.00000
   scf:   24    -3998.788833    -3998.788833    -3998.788854  0.000004 -4.008873  0.000077
     spin moment: S , {S} =    0.00000   0.00000   0.00000  -0.00000
mix: Pulay -- resetting history
   scf:   25    -3998.788833    -3998.788833    -3998.788854  0.000006 -4.008872  0.000044
     spin moment: S , {S} =    0.00000   0.00000   0.00000  -0.00000
   scf:   26    -3998.788833    -3998.788833    -3998.788854  0.000004 -4.008871  0.000021
     spin moment: S , {S} =    0.00000   0.00000   0.00000  -0.00000
   scf:   27    -3998.788833    -3998.788833    -3998.788854  0.000002 -4.008870  0.000011
     spin moment: S , {S} =    0.00000   0.00000   0.00000  -0.00000
   scf:   28    -3998.788833    -3998.788833    -3998.788854  0.000001 -4.008870  0.000007
     spin moment: S , {S} =    0.00000   0.00000  -0.00000  -0.00000
   scf:   29    -3998.788833    -3998.788833    -3998.788854  0.000001 -4.008871  0.000004
     spin moment: S , {S} =    0.00000   0.00000  -0.00000  -0.00000
   scf:   30    -3998.788833    -3998.788833    -3998.788854  0.000000 -4.008871  0.000002
     spin moment: S , {S} =    0.00000   0.00000  -0.00000   0.00000
   scf:   31    -3998.788833    -3998.788833    -3998.788854  0.000000 -4.008871  0.000002
     spin moment: S , {S} =    0.00000   0.00000  -0.00000   0.00000
   scf:   32    -3998.788833    -3998.788833    -3998.788854  0.000000 -4.008871  0.000001
     spin moment: S , {S} =    0.00000   0.00000  -0.00000   0.00000
   scf:   33    -3998.788833    -3998.788833    -3998.788854  0.000000 -4.008871  0.000001
     spin moment: S , {S} =    0.00000  -0.00000  -0.00000   0.00000

SCF Convergence by DM+H criterion
max |DM_out - DM_in|         :     0.0000000750
max |H_out - H_in|      (eV) :     0.0000006194
SCF cycle converged after 33 iterations

Using DM_out to compute the final energy and forces
No. of atoms with KB's overlaping orbs in proc 0. Max # of overlaps:      24     133

siesta: E_KS(eV) =            -3998.7888

siesta: E_KS - E_eggbox =     -3998.7888
     spin moment: S , {S} =    0.00000  -0.00000  -0.00000   0.00000

siesta: Atomic forces (eV/Ang):
     1   -0.060902   -0.022185    0.000002
     2   -0.015034   -0.047613   -0.000002
     3   -0.003101    0.041670    0.000004
     4   -0.020317   -0.022655    0.000001
     5    0.014869   -0.042107   -0.000003
     6    0.024144    0.004585   -0.000000
     7   -0.069384    0.108786    0.000006
     8    0.055512   -0.044343   -0.000022
     9    0.044154   -0.072980    0.000031
    10    0.094139    0.087544    0.000005
    11   -0.037088   -0.031549   -0.000007
    12    0.044113    0.063058    0.000000
    13   -0.089385   -0.163021   -0.000000
    14   -0.010380   -0.048237    0.000000
    15    0.000172    0.066185   -0.000000
    16   -0.008124    0.089472    0.008020
    17   -0.009267   -0.043891   -0.039748
    18   -0.131759    0.182293    0.008235
    19    0.005744    0.029411   -0.041211
    20    0.041939   -0.055272    0.027042
    21   -0.068443    0.242748    0.061382
    22    0.015085    0.221397    0.004185
    23   -0.006234    0.040291   -0.052435
    24    0.041818   -0.112644   -0.026638
    25   -3.106565   -2.520554    0.003217
    26   -0.038465    0.063250    0.006537
    27    0.010020   -0.096774    0.002789
    28   -0.000193   -0.122301   -0.000875
    29    3.809692    3.404476   -0.001077
    30    0.011271    0.141853    0.008276
----------------------------------------
   Tot    0.538033    1.340894   -0.032287
----------------------------------------
   Max    3.809692
   Res    0.686960    sqrt( Sum f_i^2 / 3N )
----------------------------------------
   Max    3.809692    constrained

Stress tensor Voigt[x,y,z,yz,xz,xy] (kbar):       -1.66       -0.50       -0.21       -0.04        0.05        0.29
(Free)E + p*V (eV/cell)    -3996.5300
Target enthalpy (eV/cell)    -3998.7889

mulliken: Atomic and Orbital Populations:

Species: H                   

Atom      Orb        Charge      Spin       Svec
----------------------------------------------------------------
    1  1 1s         0.50861   0.00000     -0.000  -0.000  -0.000
    1  2 1s         0.18810   0.00000      0.000   0.000   0.000
    1  3 2Ppy       0.02792   0.00000     -0.000   0.000   0.000
    1  4 2Ppz       0.03995   0.00000     -0.000   0.000  -0.000
    1  5 2Ppx       0.02505   0.00000     -0.000  -0.000   0.000
    1     Total     0.78963   0.00000     -0.000   0.000  -0.000

    4  1 1s         1.02399   0.00000     -0.000   0.000  -0.000
    4  2 1s         0.09502   0.00000      0.000  -0.000   0.000
    4  3 2Ppy       0.03905   0.00000      0.000  -0.000   0.000
    4  4 2Ppz       0.01989   0.00000      0.000  -0.000   0.000
    4  5 2Ppx       0.01356   0.00000     -0.000  -0.000  -0.000
    4     Total     1.19151   0.00000      0.000   0.000  -0.000

    9  1 1s         0.47797   0.00000      0.000  -0.000  -0.000
    9  2 1s         0.19548   0.00000     -0.000   0.000   0.000
    9  3 2Ppy       0.02305   0.00000     -0.000  -0.000  -0.000
    9  4 2Ppz       0.04875   0.00000     -0.000   0.000   0.000
    9  5 2Ppx       0.01227   0.00000     -0.000  -0.000  -0.000
    9     Total     0.75752   0.00000     -0.000  -0.000  -0.000

   10  1 1s         0.48202   0.00000      0.000   0.000  -0.000
   10  2 1s         0.19602   0.00000      0.000   0.000   0.000
   10  3 2Ppy       0.00686   0.00000     -0.000   0.000   0.000
   10  4 2Ppz       0.05299   0.00000      0.000  -0.000   0.000
   10  5 2Ppx       0.02899   0.00000      0.000  -0.000  -0.000
   10     Total     0.76688   0.00000      0.000   0.000  -0.000

   13  1 1s         1.01273   0.00000      0.000  -0.000  -0.000
   13  2 1s         0.09947   0.00000     -0.000  -0.000  -0.000
   13  3 2Ppy       0.02483   0.00000     -0.000   0.000   0.000
   13  4 2Ppz       0.01440   0.00000      0.000   0.000  -0.000
   13  5 2Ppx       0.01754   0.00000      0.000  -0.000   0.000
   13     Total     1.16898   0.00000      0.000  -0.000  -0.000

   18  1 1s         1.05003   0.00000     -0.000  -0.000  -0.000
   18  2 1s         0.08401   0.00000      0.000  -0.000   0.000
   18  3 2Ppy       0.02778   0.00000     -0.000  -0.000   0.000
   18  4 2Ppz       0.01891   0.00000     -0.000   0.000  -0.000
   18  5 2Ppx       0.01767   0.00000      0.000   0.000   0.000
   18     Total     1.19840   0.00000     -0.000  -0.000  -0.000

   21  1 1s         1.06656   0.00000     -0.000  -0.000  -0.000
   21  2 1s         0.08269   0.00000      0.000   0.000   0.000
   21  3 2Ppy       0.02228   0.00000     -0.000  -0.000   0.000
   21  4 2Ppz       0.02109   0.00000      0.000  -0.000   0.000
   21  5 2Ppx       0.01159   0.00000      0.000  -0.000  -0.000
   21     Total     1.20421   0.00000     -0.000  -0.000  -0.000

   22  1 1s         1.05183   0.00000     -0.000  -0.000  -0.000
   22  2 1s         0.08379   0.00000      0.000  -0.000   0.000
   22  3 2Ppy       0.02013   0.00000      0.000  -0.000  -0.000
   22  4 2Ppz       0.01767   0.00000      0.000  -0.000  -0.000
   22  5 2Ppx       0.01708   0.00000     -0.000   0.000  -0.000
   22     Total     1.19050   0.00000     -0.000  -0.000  -0.000

   23  1 1s         1.06500   0.00000     -0.000   0.000  -0.000
   23  2 1s         0.08211   0.00000      0.000  -0.000   0.000
   23  3 2Ppy       0.01685   0.00000     -0.000   0.000   0.000
   23  4 2Ppz       0.02461   0.00000     -0.000   0.000   0.000
   23  5 2Ppx       0.01349   0.00000      0.000  -0.000  -0.000
   23     Total     1.20205   0.00000     -0.000   0.000  -0.000

   27  1 1s         0.46385   0.00000     -0.000   0.000   0.000
   27  2 1s         0.19049   0.00000      0.000  -0.000   0.000
   27  3 2Ppy       0.02026   0.00000     -0.000   0.000  -0.000
   27  4 2Ppz       0.02552   0.00000     -0.000   0.000  -0.000
   27  5 2Ppx       0.02927   0.00000      0.000  -0.000   0.000
   27     Total     0.72940   0.00000     -0.000   0.000   0.000

   30  1 1s         0.48344   0.00000     -0.000   0.000  -0.000
   30  2 1s         0.18897   0.00000      0.000   0.000   0.000
   30  3 2Ppy       0.02653   0.00000      0.000  -0.000   0.000
   30  4 2Ppz       0.03452   0.00000      0.000  -0.000   0.000
   30  5 2Ppx       0.02316   0.00000      0.000  -0.000   0.000
   30     Total     0.75663   0.00000      0.000  -0.000   0.000

----------------------------------------------------------------
Total              10.95572   0.00000     -0.000  -0.000  -0.000


Species: N                   

Atom      Orb        Charge      Spin       Svec
----------------------------------------------------------------
    2  1 2s         1.38106   0.00000     -0.000   0.000  -0.000
    2  2 2s         0.12660   0.00000      0.000  -0.000  -0.000
    2  3 2py        1.06832   0.00000      0.000   0.000  -0.000
    2  4 2pz        1.49540   0.00000      0.000   0.000  -0.000
    2  5 2px        1.01726   0.00000      0.000   0.000  -0.000
    2  6 2py        0.19595   0.00000     -0.000  -0.000   0.000
    2  7 2pz        0.01427   0.00000     -0.000   0.000   0.000
    2  8 2px        0.21004   0.00000      0.000  -0.000   0.000
    2  9 3Pdxy      0.00673   0.00000     -0.000   0.000   0.000
    2 10 3Pdyz      0.00606   0.00000      0.000  -0.000   0.000
    2 11 3Pdz2      0.00151   0.00000     -0.000  -0.000   0.000
    2 12 3Pdxz      0.00304   0.00000     -0.000   0.000   0.000
    2 13 3Pdx2-y2   0.00297   0.00000     -0.000  -0.000  -0.000
    2     Total     5.52922   0.00000      0.000   0.000  -0.000

    5  1 2s         1.55818   0.00000     -0.000  -0.000  -0.000
    5  2 2s         0.08111   0.00000      0.000   0.000   0.000
    5  3 2py        0.90457   0.00000     -0.000  -0.000  -0.000
    5  4 2pz        1.22245   0.00000     -0.000   0.000  -0.000
    5  5 2px        1.14184   0.00000      0.000   0.000  -0.000
    5  6 2py        0.23014   0.00000      0.000   0.000   0.000
    5  7 2pz        0.05522   0.00000      0.000  -0.000   0.000
    5  8 2px        0.14629   0.00000     -0.000   0.000   0.000
    5  9 3Pdxy      0.00854   0.00000      0.000   0.000  -0.000
    5 10 3Pdyz      0.00700   0.00000      0.000   0.000   0.000
    5 11 3Pdz2      0.00189   0.00000     -0.000  -0.000  -0.000
    5 12 3Pdxz      0.01129   0.00000      0.000  -0.000   0.000
    5 13 3Pdx2-y2   0.00920   0.00000     -0.000   0.000   0.000
    5     Total     5.37772   0.00000     -0.000  -0.000  -0.000

    8  1 2s         1.28496   0.00000      0.000  -0.000  -0.000
    8  2 2s         0.17148   0.00000     -0.000  -0.000  -0.000
    8  3 2py        1.06281   0.00000     -0.000   0.000  -0.000
    8  4 2pz        1.57130   0.00000      0.000   0.000  -0.000
    8  5 2px        1.00439   0.00000     -0.000   0.000  -0.000
    8  6 2py        0.19465   0.00000      0.000  -0.000   0.000
    8  7 2pz        0.02734   0.00000     -0.000  -0.000  -0.000
    8  8 2px        0.22867   0.00000      0.000   0.000   0.000
    8  9 3Pdxy      0.00270   0.00000      0.000  -0.000  -0.000
    8 10 3Pdyz      0.00083   0.00000      0.000   0.000  -0.000
    8 11 3Pdz2      0.00272   0.00000      0.000   0.000   0.000
    8 12 3Pdxz      0.00243   0.00000      0.000   0.000  -0.000
    8 13 3Pdx2-y2   0.00434   0.00000      0.000  -0.000   0.000
    8     Total     5.55862   0.00000     -0.000   0.000  -0.000

   11  1 2s         1.45860   0.00000     -0.000  -0.000   0.000
   11  2 2s         0.11406   0.00000      0.000   0.000  -0.000
   11  3 2py        1.22350   0.00000      0.000  -0.000   0.000
   11  4 2pz        1.28793   0.00000     -0.000  -0.000   0.000
   11  5 2px        0.79949   0.00000     -0.000   0.000   0.000
   11  6 2py        0.11163   0.00000     -0.000   0.000  -0.000
   11  7 2pz        0.04614   0.00000      0.000   0.000  -0.000
   11  8 2px        0.31764   0.00000      0.000  -0.000  -0.000
   11  9 3Pdxy      0.00736   0.00000      0.000  -0.000   0.000
   11 10 3Pdyz      0.00607   0.00000     -0.000   0.000   0.000
   11 11 3Pdz2      0.00055   0.00000     -0.000   0.000  -0.000
   11 12 3Pdxz      0.00496   0.00000     -0.000   0.000  -0.000
   11 13 3Pdx2-y2   0.00524   0.00000     -0.000   0.000   0.000
   11     Total     5.38317   0.00000     -0.000  -0.000   0.000

   14  1 2s         1.50663   0.00000      0.000  -0.000   0.000
   14  2 2s         0.10224   0.00000     -0.000   0.000   0.000
   14  3 2py        0.84410   0.00000     -0.000  -0.000   0.000
   14  4 2pz        1.23728   0.00000      0.000  -0.000   0.000
   14  5 2px        1.17732   0.00000      0.000   0.000  -0.000
   14  6 2py        0.27741   0.00000      0.000  -0.000  -0.000
   14  7 2pz        0.05439   0.00000     -0.000   0.000   0.000
   14  8 2px        0.13201   0.00000      0.000  -0.000   0.000
   14  9 3Pdxy      0.00949   0.00000     -0.000   0.000  -0.000
   14 10 3Pdyz      0.00490   0.00000      0.000   0.000  -0.000
   14 11 3Pdz2      0.00146   0.00000     -0.000  -0.000  -0.000
   14 12 3Pdxz      0.01066   0.00000      0.000  -0.000  -0.000
   14 13 3Pdx2-y2   0.00791   0.00000     -0.000   0.000   0.000
   14     Total     5.36581   0.00000      0.000  -0.000   0.000

   16  1 2s         1.37900   0.00000      0.000   0.000  -0.000
   16  2 2s         0.12572   0.00000     -0.000  -0.000   0.000
   16  3 2py        0.99130   0.00000      0.000  -0.000  -0.000
   16  4 2pz        1.54753   0.00000     -0.000   0.000  -0.000
   16  5 2px        1.08053   0.00000      0.000  -0.000  -0.000
   16  6 2py        0.23941   0.00000     -0.000  -0.000  -0.000
   16  7 2pz        0.00325   0.00000      0.000  -0.000  -0.000
   16  8 2px        0.18039   0.00000     -0.000   0.000  -0.000
   16  9 3Pdxy      0.00153   0.00000     -0.000  -0.000   0.000
   16 10 3Pdyz      0.00476   0.00000     -0.000  -0.000  -0.000
   16 11 3Pdz2      0.00088   0.00000      0.000  -0.000   0.000
   16 12 3Pdxz      0.00237   0.00000      0.000   0.000  -0.000
   16 13 3Pdx2-y2   0.00610   0.00000      0.000   0.000   0.000
   16     Total     5.56278   0.00000      0.000   0.000  -0.000

   26  1 2s         1.37336   0.00000      0.000  -0.000  -0.000
   26  2 2s         0.12524   0.00000     -0.000  -0.000  -0.000
   26  3 2py        1.11299   0.00000     -0.000  -0.000  -0.000
   26  4 2pz        1.53059   0.00000     -0.000   0.000  -0.000
   26  5 2px        0.94638   0.00000     -0.000  -0.000  -0.000
   26  6 2py        0.16914   0.00000      0.000   0.000   0.000
   26  7 2pz        0.00502   0.00000      0.000  -0.000  -0.000
   26  8 2px        0.26511   0.00000      0.000   0.000  -0.000
   26  9 3Pdxy      0.00063   0.00000     -0.000  -0.000  -0.000
   26 10 3Pdyz      0.00079   0.00000      0.000  -0.000   0.000
   26 11 3Pdz2     -0.00127   0.00000     -0.000  -0.000  -0.000
   26 12 3Pdxz      0.00469   0.00000     -0.000  -0.000  -0.000
   26 13 3Pdx2-y2   0.00219   0.00000     -0.000  -0.000   0.000
   26     Total     5.53487   0.00000     -0.000   0.000  -0.000

----------------------------------------------------------------
Total              49.26791   0.00000     -0.000   0.000  -0.000


Species: Si                  

Atom      Orb        Charge      Spin       Svec
----------------------------------------------------------------
    3  1 3s         0.55116   0.00000     -0.000   0.000   0.000
    3  2 3s         0.38744   0.00000      0.000  -0.000   0.000
    3  3 3py        0.08172   0.00000     -0.000  -0.000   0.000
    3  4 3pz        0.53568   0.00000      0.000   0.000   0.000
    3  5 3px        0.36835   0.00000      0.000  -0.000   0.000
    3  6 3py        0.49912   0.00000     -0.000   0.000   0.000
    3  7 3pz        0.17598   0.00000     -0.000   0.000   0.000
    3  8 3px        0.23721   0.00000     -0.000   0.000   0.000
    3  9 3Pdxy      0.10815   0.00000     -0.000   0.000   0.000
    3 10 3Pdyz      0.05206   0.00000      0.000   0.000   0.000
    3 11 3Pdz2      0.01014   0.00000      0.000  -0.000   0.000
    3 12 3Pdxz      0.13296   0.00000      0.000  -0.000   0.000
    3 13 3Pdx2-y2   0.32439   0.00000      0.000  -0.000   0.000
    3     Total     3.46437   0.00000      0.000   0.000   0.000

    6  1 3s         0.66180   0.00000     -0.000   0.000   0.000
    6  2 3s         0.37044   0.00000      0.000  -0.000   0.000
    6  3 3py        0.13098   0.00000      0.000  -0.000  -0.000
    6  4 3pz        0.69485   0.00000      0.000  -0.000   0.000
    6  5 3px        0.49064   0.00000      0.000  -0.000   0.000
    6  6 3py        0.46531   0.00000     -0.000   0.000   0.000
    6  7 3pz        0.24292   0.00000     -0.000   0.000   0.000
    6  8 3px        0.24555   0.00000     -0.000   0.000   0.000
    6  9 3Pdxy      0.18502   0.00000      0.000  -0.000   0.000
    6 10 3Pdyz      0.14721   0.00000      0.000  -0.000  -0.000
    6 11 3Pdz2      0.01170   0.00000     -0.000  -0.000   0.000
    6 12 3Pdxz      0.03652   0.00000      0.000   0.000   0.000
    6 13 3Pdx2-y2   0.18875   0.00000      0.000  -0.000   0.000
    6     Total     3.87170   0.00000      0.000  -0.000   0.000

    7  1 3s         0.62632   0.00000      0.000   0.000   0.000
    7  2 3s         0.36981   0.00000     -0.000  -0.000  -0.000
    7  3 3py        0.37265   0.00000     -0.000  -0.000   0.000
    7  4 3pz        0.49272   0.00000      0.000   0.000  -0.000
    7  5 3px        0.08015   0.00000     -0.000   0.000  -0.000
    7  6 3py        0.30329   0.00000      0.000   0.000  -0.000
    7  7 3pz        0.20851   0.00000     -0.000  -0.000  -0.000
    7  8 3px        0.42171   0.00000      0.000  -0.000   0.000
    7  9 3Pdxy      0.20445   0.00000     -0.000  -0.000   0.000
    7 10 3Pdyz      0.14274   0.00000      0.000   0.000  -0.000
    7 11 3Pdz2      0.01066   0.00000      0.000  -0.000  -0.000
    7 12 3Pdxz      0.15023   0.00000     -0.000   0.000  -0.000
    7 13 3Pdx2-y2   0.24197   0.00000      0.000   0.000  -0.000
    7     Total     3.62522   0.00000     -0.000  -0.000  -0.000

   12  1 3s         0.52774   0.00000      0.000  -0.000  -0.000
   12  2 3s         0.40204   0.00000     -0.000   0.000   0.000
   12  3 3py        0.23055   0.00000     -0.000   0.000  -0.000
   12  4 3pz        0.43817   0.00000     -0.000   0.000  -0.000
   12  5 3px        0.29009   0.00000     -0.000  -0.000  -0.000
   12  6 3py        0.39441   0.00000      0.000  -0.000   0.000
   12  7 3pz        0.17054   0.00000      0.000  -0.000  -0.000
   12  8 3px        0.34396   0.00000      0.000   0.000   0.000
   12  9 3Pdxy      0.38709   0.00000     -0.000   0.000  -0.000
   12 10 3Pdyz      0.08023   0.00000      0.000   0.000  -0.000
   12 11 3Pdz2      0.01045   0.00000     -0.000   0.000   0.000
   12 12 3Pdxz      0.09254   0.00000      0.000  -0.000  -0.000
   12 13 3Pdx2-y2   0.16489   0.00000      0.000   0.000  -0.000
   12     Total     3.53271   0.00000     -0.000   0.000  -0.000

   15  1 3s         0.66094   0.00000     -0.000  -0.000   0.000
   15  2 3s         0.36715   0.00000     -0.000   0.000  -0.000
   15  3 3py       -0.03269   0.00000      0.000   0.000   0.000
   15  4 3pz        0.51040   0.00000     -0.000  -0.000  -0.000
   15  5 3px        0.38868   0.00000      0.000  -0.000  -0.000
   15  6 3py        0.47445   0.00000     -0.000   0.000   0.000
   15  7 3pz        0.20033   0.00000     -0.000   0.000   0.000
   15  8 3px        0.34013   0.00000     -0.000   0.000   0.000
   15  9 3Pdxy      0.14149   0.00000      0.000   0.000   0.000
   15 10 3Pdyz      0.12584   0.00000      0.000   0.000   0.000
   15 11 3Pdz2      0.01383   0.00000      0.000   0.000   0.000
   15 12 3Pdxz      0.12454   0.00000     -0.000   0.000   0.000
   15 13 3Pdx2-y2   0.30182   0.00000     -0.000  -0.000  -0.000
   15     Total     3.61691   0.00000     -0.000   0.000  -0.000

   17  1 3s         0.73191   0.00000     -0.000  -0.000   0.000
   17  2 3s         0.35623   0.00000      0.000   0.000   0.000
   17  3 3py        0.09608   0.00000      0.000   0.000   0.000
   17  4 3pz        0.62704   0.00000     -0.000  -0.000  -0.000
   17  5 3px        0.35551   0.00000     -0.000  -0.000   0.000
   17  6 3py        0.45292   0.00000     -0.000  -0.000   0.000
   17  7 3pz        0.15082   0.00000     -0.000   0.000   0.000
   17  8 3px        0.33537   0.00000      0.000   0.000   0.000
   17  9 3Pdxy      0.15124   0.00000      0.000  -0.000   0.000
   17 10 3Pdyz      0.02343   0.00000      0.000  -0.000  -0.000
   17 11 3Pdz2      0.00919   0.00000     -0.000   0.000  -0.000
   17 12 3Pdxz      0.12868   0.00000     -0.000  -0.000  -0.000
   17 13 3Pdx2-y2   0.12694   0.00000      0.000  -0.000  -0.000
   17     Total     3.54534   0.00000     -0.000  -0.000   0.000

   19  1 3s         0.86245   0.00000      0.000   0.000   0.000
   19  2 3s         0.31298   0.00000     -0.000  -0.000  -0.000
   19  3 3py        0.44677   0.00000     -0.000  -0.000  -0.000
   19  4 3pz        0.66014   0.00000      0.000  -0.000   0.000
   19  5 3px        0.35328   0.00000     -0.000  -0.000   0.000
   19  6 3py        0.32165   0.00000      0.000  -0.000   0.000
   19  7 3pz        0.26797   0.00000     -0.000   0.000   0.000
   19  8 3px        0.35632   0.00000      0.000   0.000  -0.000
   19  9 3Pdxy      0.09354   0.00000     -0.000   0.000   0.000
   19 10 3Pdyz      0.02940   0.00000      0.000  -0.000  -0.000
   19 11 3Pdz2      0.01454   0.00000      0.000  -0.000   0.000
   19 12 3Pdxz      0.05651   0.00000     -0.000  -0.000   0.000
   19 13 3Pdx2-y2   0.13122   0.00000     -0.000   0.000   0.000
   19     Total     3.90678   0.00000     -0.000  -0.000   0.000

   20  1 3s         0.54052   0.00000      0.000  -0.000   0.000
   20  2 3s         0.44400   0.00000     -0.000   0.000  -0.000
   20  3 3py        0.31078   0.00000     -0.000   0.000   0.000
   20  4 3pz        0.25494   0.00000      0.000   0.000   0.000
   20  5 3px        0.45530   0.00000     -0.000   0.000   0.000
   20  6 3py        0.38731   0.00000     -0.000  -0.000   0.000
   20  7 3pz        0.42305   0.00000     -0.000  -0.000   0.000
   20  8 3px        0.27754   0.00000      0.000  -0.000   0.000
   20  9 3Pdxy      0.06996   0.00000      0.000  -0.000  -0.000
   20 10 3Pdyz      0.08427   0.00000      0.000  -0.000   0.000
   20 11 3Pdz2      0.05092   0.00000      0.000   0.000  -0.000
   20 12 3Pdxz      0.07241   0.00000      0.000  -0.000   0.000
   20 13 3Pdx2-y2   0.04585   0.00000      0.000   0.000   0.000
   20     Total     3.41685   0.00000      0.000   0.000   0.000

   24  1 3s         0.60599   0.00000      0.000   0.000   0.000
   24  2 3s         0.36929   0.00000     -0.000  -0.000  -0.000
   24  3 3py        0.27096   0.00000     -0.000   0.000  -0.000
   24  4 3pz        0.41025   0.00000      0.000  -0.000  -0.000
   24  5 3px        0.16840   0.00000      0.000   0.000   0.000
   24  6 3py        0.39799   0.00000      0.000  -0.000   0.000
   24  7 3pz        0.19284   0.00000     -0.000  -0.000  -0.000
   24  8 3px        0.36016   0.00000     -0.000  -0.000  -0.000
   24  9 3Pdxy      0.14215   0.00000      0.000  -0.000   0.000
   24 10 3Pdyz      0.14024   0.00000     -0.000   0.000  -0.000
   24 11 3Pdz2      0.01533   0.00000     -0.000  -0.000  -0.000
   24 12 3Pdxz      0.12101   0.00000     -0.000  -0.000  -0.000
   24 13 3Pdx2-y2   0.34945   0.00000     -0.000  -0.000  -0.000
   24     Total     3.54406   0.00000     -0.000  -0.000  -0.000

   28  1 3s         0.43376   0.00000      0.000  -0.000   0.000
   28  2 3s         0.37758   0.00000     -0.000   0.000  -0.000
   28  3 3py        0.16157   0.00000     -0.000  -0.000  -0.000
   28  4 3pz        0.39994   0.00000      0.000   0.000   0.000
   28  5 3px        0.16689   0.00000      0.000   0.000   0.000
   28  6 3py        0.36816   0.00000      0.000  -0.000   0.000
   28  7 3pz        0.20458   0.00000     -0.000  -0.000  -0.000
   28  8 3px        0.38554   0.00000     -0.000  -0.000  -0.000
   28  9 3Pdxy      0.14396   0.00000     -0.000  -0.000   0.000
   28 10 3Pdyz      0.12391   0.00000     -0.000   0.000   0.000
   28 11 3Pdz2      0.01562   0.00000      0.000   0.000   0.000
   28 12 3Pdxz      0.15666   0.00000      0.000   0.000  -0.000
   28 13 3Pdx2-y2   0.35150   0.00000     -0.000  -0.000  -0.000
   28     Total     3.28968   0.00000      0.000   0.000   0.000

----------------------------------------------------------------
Total              85.08154   0.00000     -0.000  -0.000  -0.000


Species: O                   

Atom      Orb        Charge      Spin       Svec
----------------------------------------------------------------
   25  1 2s         1.73842   0.00000     -0.000   0.000   0.000
   25  2 2s         0.07111   0.00000      0.000  -0.000  -0.000
   25  3 2py        1.46460   0.00000     -0.000   0.000   0.000
   25  4 2pz        1.50895   0.00000      0.000   0.000   0.000
   25  5 2px        1.58989   0.00000      0.000   0.000   0.000
   25  6 2py        0.03493   0.00000      0.000   0.000   0.000
   25  7 2pz        0.00069   0.00000     -0.000  -0.000   0.000
   25  8 2px        0.02419   0.00000     -0.000  -0.000   0.000
   25  9 3Pdxy      0.00725   0.00000     -0.000  -0.000  -0.000
   25 10 3Pdyz      0.00622   0.00000     -0.000  -0.000  -0.000
   25 11 3Pdz2      0.00137   0.00000     -0.000  -0.000  -0.000
   25 12 3Pdxz      0.00442   0.00000     -0.000  -0.000  -0.000
   25 13 3Pdx2-y2   0.00743   0.00000     -0.000  -0.000  -0.000
   25     Total     6.45946   0.00000      0.000   0.000   0.000

   29  1 2s         1.73715   0.00000     -0.000   0.000  -0.000
   29  2 2s         0.07125   0.00000      0.000   0.000   0.000
   29  3 2py        1.48323   0.00000      0.000   0.000   0.000
   29  4 2pz        1.52824   0.00000      0.000   0.000   0.000
   29  5 2px        1.52532   0.00000      0.000  -0.000   0.000
   29  6 2py        0.04206   0.00000     -0.000  -0.000  -0.000
   29  7 2pz        0.00513   0.00000      0.000  -0.000   0.000
   29  8 2px        0.03809   0.00000      0.000   0.000   0.000
   29  9 3Pdxy      0.00816   0.00000     -0.000  -0.000  -0.000
   29 10 3Pdyz      0.00485   0.00000      0.000  -0.000  -0.000
   29 11 3Pdz2      0.00139   0.00000      0.000   0.000   0.000
   29 12 3Pdxz      0.00627   0.00000     -0.000  -0.000  -0.000
   29 13 3Pdx2-y2   0.00786   0.00000     -0.000  -0.000   0.000
   29     Total     6.45900   0.00000      0.000   0.000   0.000

----------------------------------------------------------------
Total              98.00000   0.00000     -0.000  -0.000   0.000


siesta: Eigenvalues (eV):
ik =     1
  -22.9305  -22.9305  -22.5291  -22.5291  -21.9779  -21.9779  -21.2579  -21.2579  -21.0789  -21.0789
  -20.8128  -20.8128  -19.4869  -19.4869  -19.2988  -19.2988  -18.6939  -18.6939  -15.3115  -15.3115
  -14.3747  -14.3747  -13.6831  -13.6831  -13.6826  -13.6826  -13.3008  -13.3008  -12.9701  -12.9701
  -12.5607  -12.5607  -12.0715  -12.0715  -12.0296  -12.0296  -11.5980  -11.5980  -11.4996  -11.4996
  -10.9899  -10.9899  -10.7613  -10.7613  -10.2659  -10.2659   -9.8330   -9.8330   -9.5743   -9.5743
   -9.3324   -9.3324   -9.1903   -9.1903   -9.1823   -9.1823   -8.8951   -8.8951   -8.7234   -8.7234
   -8.3973   -8.3973   -8.2455   -8.2455   -8.2018   -8.2018   -8.1290   -8.1290   -7.9952   -7.9952
   -7.9158   -7.9158   -7.4018   -7.4018   -7.3979   -7.3979   -7.3145   -7.3145   -6.8284   -6.8284
   -6.8155   -6.8155   -6.6437   -6.6437   -6.4471   -6.4471   -6.3630   -6.3630   -6.1845   -6.1845
   -5.9443   -5.9443   -5.8102   -5.8102   -5.6159   -5.6159   -4.2920   -4.2920   -3.7257   -3.7257
   -2.8429   -2.8429   -2.4681   -2.4681   -2.2806   -2.2806   -2.1801   -2.1801   -2.1089   -2.1089
   -1.9624   -1.9624   -1.7219   -1.7219   -1.6435   -1.6435   -1.5917   -1.5917   -1.4196   -1.4196
   -1.0931   -1.0931   -0.6872   -0.6872   -0.3942   -0.3942   -0.2980   -0.2980   -0.2344   -0.2344
   -0.2047   -0.2047   -0.0691   -0.0691    0.2667    0.2667    0.4081    0.4081    0.5102    0.5102
    0.5552    0.5552    0.7274    0.7274    1.0631    1.0631    1.2435    1.2435    1.2769    1.2769
    1.3387    1.3387    1.5407    1.5407    1.8667    1.8667    2.0413    2.0413    2.1568    2.1568
    2.5040    2.5040    2.6182    2.6182    2.7413    2.7413    2.8143    2.8143    2.9299    2.9299
    2.9768    2.9768    3.0640    3.0640    3.1093    3.1093    3.1544    3.1544    3.5671    3.5671
    3.7155    3.7155    3.9167    3.9167    4.1326    4.1326    4.2653    4.2653    4.3908    4.3908
    4.4973    4.4973    4.6298    4.6298    4.6568    4.6568    4.7275    4.7275    4.9941    4.9941
    5.0661    5.0661    5.2216    5.2216    5.4191    5.4191    5.5853    5.5853    5.8274    5.8274
    5.8724    5.8724    6.0165    6.0165    6.0736    6.0736    6.2901    6.2901    6.3786    6.3786
    6.5285    6.5285    6.6333    6.6333    6.7916    6.7916    6.9816    6.9816    7.0821    7.0821
    7.1797    7.1797    7.5122    7.5122    7.7149    7.7149    7.7304    7.7304    7.8939    7.8939
    7.9361    7.9361    8.2891    8.2891    8.2970    8.2970    8.3432    8.3432    8.4997    8.4997
    8.5451    8.5451    8.9091    8.9091    8.9245    8.9245    9.3308    9.3308    9.6156    9.6156
    9.6748    9.6748    9.8465    9.8465    9.8919    9.8919    9.9076    9.9076    9.9658    9.9658
   10.0009   10.0009   10.4022   10.4022   10.6479   10.6479   10.9144   10.9144   11.1187   11.1187
   11.3344   11.3344   11.3653   11.3653   11.5152   11.5152   11.7194   11.7194   11.8091   11.8091
   11.8770   11.8770   12.3064   12.3064   12.4192   12.4192   12.6715   12.6715   12.7550   12.7550
   12.9209   12.9209   13.0499   13.0499   13.2446   13.2446   13.2851   13.2851   13.4419   13.4419
   13.6473   13.6473   13.9087   13.9087   14.3579   14.3579   14.5392   14.5392   14.7554   14.7554
   14.7861   14.7861   15.1018   15.1018   15.5549   15.5549   16.0850   16.0850   16.3186   16.3186
   16.3802   16.3802   16.8147   16.8147   16.8830   16.8830   17.2212   17.2212   17.3194   17.3194
   17.8984   17.8984   18.0410   18.0410   18.3585   18.3585   18.5811   18.5811   18.7179   18.7179
   18.7794   18.7794   19.7759   19.7759   19.9632   19.9632   20.3169   20.3169   20.5676   20.5676
   20.9104   20.9104   21.0599   21.0599   21.2933   21.2933   21.4524   21.4524   22.2260   22.2260
   22.4535   22.4535   22.8231   22.8231   22.9702   22.9702   23.0425   23.0425   23.0661   23.0661
   24.2354   24.2354   24.6468   24.6468   25.1097   25.1097   25.5995   25.5995   25.8850   25.8850
   26.1572   26.1572   26.6042   26.6042   27.0433   27.0433   27.9414   27.9414   28.1557   28.1557
   28.4807   28.4807   28.5390   28.5390   29.8523   29.8523   29.9476   29.9476   30.5219   30.5219
   30.7805   30.7805   30.8383   30.8383   31.3042   31.3042   31.4334   31.4334   31.7146   31.7146
   31.7535   31.7535   32.3869   32.3869   32.4371   32.4371   33.4570   33.4570   33.6492   33.6492
   34.0132   34.0132   34.2647   34.2647   34.4829   34.4829   34.9271   34.9271   35.4644   35.4644
   35.8882   35.8882   36.1068   36.1068   36.3919   36.3919   37.1844   37.1844   37.5621   37.5621
   37.6644   37.6644   37.6992   37.6992   38.4971   38.4971   38.8379   38.8379   38.9586   38.9586
   39.8887   39.8887   40.4729   40.4729   40.7387   40.7387   41.3927   41.3927   41.6415   41.6415
   41.7392   41.7392   41.8639   41.8639   42.0724   42.0724   42.8997   42.8997   43.2870   43.2870
   43.8750   43.8750   44.4945   44.4945   44.7480   44.7480   44.9218   44.9218   45.2349   45.2349
   45.2546   45.2546   45.8402   45.8402   46.4617   46.4617   46.5745   46.5745   47.1657   47.1657
   47.6705   47.6705   48.0127   48.0127   48.6179   48.6179   48.8240   48.8240   49.2073   49.2073
   49.8809   49.8809   50.1735   50.1735   50.4338   50.4338   50.6159   50.6159   50.7697   50.7697
   51.9234   51.9234   52.2604   52.2604   53.9962   53.9962   54.0879   54.0879   54.8629   54.8629
   55.1725   55.1725   55.4944   55.4944   56.3261   56.3261   56.4046   56.4046   56.5714   56.5714
   56.8902   56.8902   57.6065   57.6065   58.5837   58.5837   59.0231   59.0231   59.6776   59.6776
   60.2903   60.2903   61.2314   61.2314   61.6227   61.6227   62.2118   62.2118   62.8429   62.8429
   65.6232   65.6232   66.3495   66.3495   67.1111   67.1111   67.2947   67.2947   68.1581   68.1581
   68.8562   68.8562   71.4037   71.4037   73.6474   73.6474   78.7840   78.7840   91.4306   91.4306
   92.4612   92.4612   92.9384   92.9384   95.5832   95.5832   97.6662   97.6662  100.4274  100.4274
  100.6708  100.6708  102.9956  102.9956  113.3848  113.3848  120.3708  120.3708  123.0497  123.0497
  135.6208  135.6208  140.4559  140.4559
siesta: Fermi energy =      -4.008871 eV

siesta: Program's energy decomposition (eV):
siesta: Ebs     =     -1119.680358
siesta: Eions   =      3553.971015
siesta: Ena     =       377.805300
siesta: Ekin    =      2751.442592
siesta: Enl     =     -2532.234056
siesta: Eso     =        -0.004696
siesta: Edftu   =         0.000000
siesta: DEna    =        37.131996
siesta: DUscf   =        14.130275
siesta: DUext   =         0.000000
siesta: Exc     =     -1093.089229
siesta: eta*DQ  =         0.000000
siesta: Emadel  =         0.000000
siesta: Emeta   =         0.000000
siesta: Emolmec =         0.000000
siesta: Ekinion =         0.000000
siesta: Eharris =     -3998.788833
siesta: Etot    =     -3998.788833
siesta: FreeEng =     -3998.788854

siesta: Final energy (eV):
siesta:  Band Struct. =   -1119.680358
siesta:       Kinetic =    2751.442592
siesta:       Hartree =    7061.564177
siesta:       Edftu   =       0.000000
siesta:       Eso     =      -0.004696
siesta:    Ext. field =       0.000000
siesta:   Exch.-corr. =   -1093.089229
siesta:  Ion-electron =  -16575.597713
siesta:       Ion-ion =    3856.896036
siesta:       Ekinion =       0.000000
siesta:         Total =   -3998.788833
siesta:         Fermi =      -4.008871

siesta: Atomic forces (eV/Ang):
siesta:      1   -0.060902   -0.022185    0.000002
siesta:      2   -0.015034   -0.047613   -0.000002
siesta:      3   -0.003101    0.041670    0.000004
siesta:      4   -0.020317   -0.022655    0.000001
siesta:      5    0.014869   -0.042107   -0.000003
siesta:      6    0.024144    0.004585   -0.000000
siesta:      7   -0.069384    0.108786    0.000006
siesta:      8    0.055512   -0.044343   -0.000022
siesta:      9    0.044154   -0.072980    0.000031
siesta:     10    0.094139    0.087544    0.000005
siesta:     11   -0.037088   -0.031549   -0.000007
siesta:     12    0.044113    0.063058    0.000000
siesta:     13   -0.089385   -0.163021   -0.000000
siesta:     14   -0.010380   -0.048237    0.000000
siesta:     15    0.000172    0.066185   -0.000000
siesta:     16   -0.008124    0.089472    0.008020
siesta:     17   -0.009267   -0.043891   -0.039748
siesta:     18   -0.131759    0.182293    0.008235
siesta:     19    0.005744    0.029411   -0.041211
siesta:     20    0.041939   -0.055272    0.027042
siesta:     21   -0.068443    0.242748    0.061382
siesta:     22    0.015085    0.221397    0.004185
siesta:     23   -0.006234    0.040291   -0.052435
siesta:     24    0.041818   -0.112644   -0.026638
siesta:     25   -3.106565   -2.520554    0.003217
siesta:     26   -0.038465    0.063250    0.006537
siesta:     27    0.010020   -0.096774    0.002789
siesta:     28   -0.000193   -0.122301   -0.000875
siesta:     29    3.809692    3.404476   -0.001077
siesta:     30    0.011271    0.141853    0.008276
siesta: ----------------------------------------
siesta:    Tot    0.538033    1.340894   -0.032287

siesta: Stress tensor (static) (eV/Ang**3):
siesta:    -0.001037    0.000183    0.000029
siesta:     0.000183   -0.000315   -0.000027
siesta:     0.000029   -0.000027   -0.000134

siesta: Cell volume =       4559.610018 Ang**3

siesta: Pressure (static):
siesta:                Solid            Molecule  Units
siesta:           0.00000540         -0.00001586  Ry/Bohr**3
siesta:           0.00049540         -0.00145610  eV/Ang**3
siesta:           0.79372466         -2.33294724  kBar
(Free)E+ p_basis*V_orbitals  =       -3977.660769
(Free)Eharris+ p_basis*V_orbitals  =       -3977.660769
     spin moment: S , {S} =    0.00000  -0.00000  -0.00000   0.00000

siesta: Electric dipole (a.u.)  =   -0.316789    2.552113   -0.012968
siesta: Electric dipole (Debye) =   -0.805197    6.486828   -0.032963

cite: Please see "AT.bib" for an exhaustive BiBTeX file.
cite: Please clearly indicate Siesta version in published work: v4.1.5-1-g384057250
cite: This calculation has made use of the following articles
cite: which are encouraged to be cited in a published work.
        Primary SIESTA paper
          DOI: www.doi.org/10.1088/0953-8984/14/11/302
        Spin-orbit coupling (on-site approximation)
          DOI: www.doi.org/10.1088/0953-8984/19/19/489001


WARNING: alloc-realloc-dealloc name mismatch
         Name: atomlist isa
         Size:              -120. Bytes
         Node:     0
         Subsequent mismatches will not be reported
>> End of run:  22-MAY-2023  10:34:47
Job completed
