Siesta Version  : v4.1.5-1-g384057250
Architecture    : gcc
Compiler version: GNU Fortran (Debian 10.2.1-6) 10.2.1 20210110
Compiler flags  : mpifort -O2 -fPIC -ftree-vectorize -fallow-argument-mismatch
PP flags        : -DFC_HAVE_ABORT -DMPI -DSIESTA__FLOOK -DSIESTA__METIS -DSIESTA__MUMPS -DCDF -DNCDF -DNCDF_4 -DNCDF_PARALLEL -DSIESTA__MRRR -DSIESTA__ELPA
Libraries       : libncdf.a libfdict.a  -lflookall -ldl -lnetcdff -lnetcdf -lhdf5_hl -lhdf5 -lhdf5_fortran -lz -lscalapack-openmpi -lopenblas -lmetis -lzmumps -lcmumps -ldmumps -lmumps_common -lpord -lsmumps -lesmumps -lscotch -lscotcherr -fopenmp -lelpa
PARALLEL version
NetCDF support
NetCDF-4 support
NetCDF-4 MPI-IO support
METIS ordering support
Lua support

* Running on 6 nodes in parallel
>> Start of run:  22-MAY-2023  10:43:02

                           ***********************       
                           *  WELCOME TO SIESTA  *       
                           ***********************       

reinit: Reading from standard input
reinit: Dumped input in INPUT_TMP.85963
************************** Dump of input data file ****************************
SystemLabel      AT
NumberOfAtoms    30
NumberOfSpecies  4
%block ChemicalSpeciesLabel
    1    1  H
    2    7  N
    3   14  Si
    4    8  O
%endblock ChemicalSpeciesLabel
# Single point calculation
MD.TypeOfRun                CG
MD.Steps                    0
SCF.MustConverge            F # In case it does not. There can be 2 very close atoms
AtomicCoordinatesFormat NotScaledCartesianAng
%block AtomicCoordinatesAndAtomicSpecies
2.582377650    -5.776830440   0.000000000       1
1.654759240    -5.269361980   0.000000000       2
0.063128840    -6.101704590   0.000000000       3
0.119223240    -7.596849500   0.000000000       1
-1.376892050   -5.182603740   0.000000000       2
-0.824371900   -3.460866440   0.000000000       3
-1.170571480   -1.270002100   0.000000000       3
-2.706933680   -0.417515780   0.000000000       2
-2.754569660   0.634858620    0.000000000       1
-3.637675640   -0.909967860   0.000000000       1
0.218091790    -0.234193970   0.000000000       2
1.872004100    -0.697162300   0.000000000       3
2.828001130    0.461464770    0.000000000       1
2.648150080    -2.255024470   0.000000000       2
1.391921380    -3.454727220   0.000000000       3
1.828459500    8.913650859    0.000000000       2
0.501087980    10.123855159   0.000000000       3
1.141089250    11.485173399   0.000000000       1
-1.584657960   9.453323809    0.000000000       3
-3.614220560   10.583439999   0.000000000       3
-3.459984790   11.743670209   0.940305280       1
-4.600155280   9.561519379    0.512613700       1
-4.030435520   11.059665849   -1.366678340      1
-1.518162540   7.179347189    0.000000000       3
-2.557211270   5.986287689    0.000000000       4
0.138829040    6.545371999    0.000000000       2
0.120811670    5.482927169    0.000000000       1
1.762432110    7.142442209    0.000000000       3
2.957448280    6.128017009    0.000000000       4
2.828496870    9.259157959    0.000000000       1
%endblock AtomicCoordinatesAndAtomicSpecies
%include ../../../Defaults.fdf
************************** End of input data file *****************************

reinit: -----------------------------------------------------------------------
reinit: System Name: 
reinit: -----------------------------------------------------------------------
reinit: System Label: AT
reinit: -----------------------------------------------------------------------

initatom: Reading input for the pseudopotentials and atomic orbitals ----------
Species number:   1 Atomic number:    1 Label: H
Species number:   2 Atomic number:    7 Label: N
Species number:   3 Atomic number:   14 Label: Si
Species number:   4 Atomic number:    8 Label: O

Ground state valence configuration:   1s01
Reading pseudopotential information in formatted form from H.psf

Pseudopotential generated from a relativistic atomic calculation

Valence configuration for pseudopotential generation:
1s( 1.00) rc: 0.01
2p( 0.00) rc: 0.60
3d( 0.00) rc: 1.99
4f( 0.00) rc: 2.49
Ground state valence configuration:   2s02  2p03
Reading pseudopotential information in formatted form from N.psf

Pseudopotential generated from a relativistic atomic calculation

Valence configuration for pseudopotential generation:
2s( 2.00) rc: 0.94
2p( 3.00) rc: 0.59
3d( 0.00) rc: 3.46
4f( 0.00) rc: 2.47
Ground state valence configuration:   3s02  3p02
Reading pseudopotential information in formatted form from Si.psf

Pseudopotential generated from a relativistic atomic calculation

Valence configuration for pseudopotential generation:
3s( 2.00) rc: 1.67
3p( 2.00) rc: 2.04
3d( 0.00) rc: 2.89
4f( 0.00) rc: 2.49
Ground state valence configuration:   2s02  2p04
Reading pseudopotential information in formatted form from O.psf

Pseudopotential generated from a relativistic atomic calculation

Valence configuration for pseudopotential generation:
2s( 2.00) rc: 0.45
2p( 4.00) rc: 0.92
3d( 0.00) rc: 2.24
4f( 0.00) rc: 0.25
For H, standard SIESTA heuristics set lmxkb to 2
 (one more than the basis l, including polarization orbitals).
Use PS.lmax or PS.KBprojectors blocks to override.
For N, standard SIESTA heuristics set lmxkb to 3
 (one more than the basis l, including polarization orbitals).
Use PS.lmax or PS.KBprojectors blocks to override.
For Si, standard SIESTA heuristics set lmxkb to 3
 (one more than the basis l, including polarization orbitals).
Use PS.lmax or PS.KBprojectors blocks to override.
For O, standard SIESTA heuristics set lmxkb to 3
 (one more than the basis l, including polarization orbitals).
Use PS.lmax or PS.KBprojectors blocks to override.

<basis_specs>
===============================================================================
H                    Z=   1    Mass=  1.0100        Charge= 0.17977+309
Lmxo=0 Lmxkb= 2    BasisType=split      Semic=F
L=0  Nsemic=0  Cnfigmx=1
          i=1  nzeta=2  polorb=1  (1s)
            splnorm:   0.62000    
               vcte:    0.0000    
               rinn:    0.0000    
               qcoe:    0.0000    
               qyuk:    0.0000    
               qwid:   0.10000E-01
                rcs:    0.0000      0.0000    
            lambdas:    1.0000      1.0000    
-------------------------------------------------------------------------------
L=0  Nkbl=1  erefs: 0.17977+309
L=1  Nkbl=1  erefs: 0.17977+309
L=2  Nkbl=1  erefs: 0.17977+309
===============================================================================
</basis_specs>

atom: Called for H                     (Z =   1)

read_vps: Pseudopotential generation method:
read_vps: ATM4.2.7  Troullier-Martins                       
Valence charge for ps generation:    1.00000

xc_check: Exchange-correlation functional:
xc_check: GGA Perdew, Burke & Ernzerhof 1996
V l=0 = -2*Zval/r beyond r=  0.0098
V l=1 = -2*Zval/r beyond r=  0.5817
V l=2 = -2*Zval/r beyond r=  1.9372
All V_l potentials equal beyond r=  1.9372
This should be close to max(r_c) in ps generation
All pots = -2*Zval/r beyond r=  1.9372

VLOCAL1: 99.0% of the norm of Vloc inside     11.567 Ry
VLOCAL1: 99.9% of the norm of Vloc inside     26.362 Ry
atom: Maximum radius for 4*pi*r*r*local-pseudopot. charge    2.25106
atom: Maximum radius for r*vlocal+2*Zval:    1.91306
GHOST: No ghost state for L =  0
GHOST: No ghost state for L =  1
GHOST: No ghost state for L =  2

KBgen: Kleinman-Bylander projectors: 
   l= 0   rc=  2.036604   el= -0.477180   Ekb= -6.081590   kbcos= -0.277285
   l= 1   rc=  2.195416   el=  0.001076   Ekb= -0.926943   kbcos= -0.034643
   l= 2   rc=  2.251056   el=  0.002010   Ekb= -0.130941   kbcos= -0.009788

KBgen: Total number of Kleinman-Bylander projectors:    9
atom: -------------------------------------------------------------------------

atom: SANKEY-TYPE ORBITALS:
atom: Selected multiple-zeta basis: split     

SPLIT: Orbitals with angular momentum L= 0

SPLIT: Basis orbitals for state 1s

SPLIT: PAO cut-off radius determined from an
SPLIT: energy shift=  0.002000 Ry

   izeta = 1
                 lambda =    1.000000
                     rc =    6.518340
                 energy =   -0.475305
                kinetic =    0.912139
    potential(screened) =   -1.387444
       potential(ionic) =   -1.907295

   izeta = 2
                 rmatch =    2.141150
              splitnorm =    0.620000
                 energy =    0.566467
                kinetic =    3.772856
    potential(screened) =   -3.206389
       potential(ionic) =   -3.759093

POLgen: Perturbative polarization orbital with L=  1

POLgen: Polarization orbital for state 1s

   izeta = 1
                     rc =    6.518340
                 energy =    0.533861
                kinetic =    1.121086
    potential(screened) =   -0.587225
       potential(ionic) =   -1.053027
atom: Total number of Sankey-type orbitals:  5

atm_pop: Valence configuration (for local Pseudopot. screening):
 1s( 1.00)                                                            
Vna: chval, zval:    1.00000   1.00000

Vna:  Cut-off radius for the neutral-atom potential:   6.518340

atom: _________________________________________________________________________

<basis_specs>
===============================================================================
N                    Z=   7    Mass=  14.010        Charge= 0.17977+309
Lmxo=1 Lmxkb= 3    BasisType=split      Semic=F
L=0  Nsemic=0  Cnfigmx=2
          i=1  nzeta=2  polorb=0  (2s)
            splnorm:   0.28000    
               vcte:    0.0000    
               rinn:    0.0000    
               qcoe:    0.0000    
               qyuk:    0.0000    
               qwid:   0.10000E-01
                rcs:    0.0000      0.0000    
            lambdas:    1.0000      1.0000    
L=1  Nsemic=0  Cnfigmx=2
          i=1  nzeta=2  polorb=1  (2p)
            splnorm:   0.28000    
               vcte:    0.0000    
               rinn:    0.0000    
               qcoe:    0.0000    
               qyuk:    0.0000    
               qwid:   0.10000E-01
                rcs:    0.0000      0.0000    
            lambdas:    1.0000      1.0000    
-------------------------------------------------------------------------------
L=0  Nkbl=1  erefs: 0.17977+309
L=1  Nkbl=1  erefs: 0.17977+309
L=2  Nkbl=1  erefs: 0.17977+309
L=3  Nkbl=1  erefs: 0.17977+309
===============================================================================
</basis_specs>

atom: Called for N                     (Z =   7)

read_vps: Pseudopotential generation method:
read_vps: ATM4.2.7  Troullier-Martins                       
Valence charge for ps generation:    5.00000

xc_check: Exchange-correlation functional:
xc_check: GGA Perdew, Burke & Ernzerhof 1996
V l=0 = -2*Zval/r beyond r=  1.2889
V l=1 = -2*Zval/r beyond r=  1.2889
V l=2 = -2*Zval/r beyond r=  3.4178
V l=3 = -2*Zval/r beyond r=  2.4084
All V_l potentials equal beyond r=  3.3753
This should be close to max(r_c) in ps generation
All pots = -2*Zval/r beyond r=  3.4178

VLOCAL1: 99.0% of the norm of Vloc inside      3.810 Ry
VLOCAL1: 99.9% of the norm of Vloc inside      8.683 Ry
atom: Maximum radius for 4*pi*r*r*local-pseudopot. charge    4.02088
atom: Maximum radius for r*vlocal+2*Zval:    3.54838
GHOST: No ghost state for L =  0
GHOST: No ghost state for L =  1
GHOST: No ghost state for L =  2
GHOST: No ghost state for L =  3

KBgen: Kleinman-Bylander projectors: 
   l= 0   rc=  3.417763   el= -1.365098   Ekb= -4.433130   kbcos= -0.707855
   l= 1   rc=  3.375302   el= -0.521201   Ekb=-13.264039   kbcos= -0.535594
   l= 2   rc=  3.872880   el=  0.001991   Ekb= -0.641094   kbcos= -0.062456
   l= 3   rc=  3.970931   el=  0.003093   Ekb= -0.474517   kbcos= -0.018236

KBgen: Total number of Kleinman-Bylander projectors:   16
atom: -------------------------------------------------------------------------

atom: SANKEY-TYPE ORBITALS:
atom: Selected multiple-zeta basis: split     

SPLIT: Orbitals with angular momentum L= 0

SPLIT: Basis orbitals for state 2s

SPLIT: PAO cut-off radius determined from an
SPLIT: energy shift=  0.002000 Ry

   izeta = 1
                 lambda =    1.000000
                     rc =    4.730425
                 energy =   -1.363399
                kinetic =    1.245246
    potential(screened) =   -2.608645
       potential(ionic) =   -8.121105

   izeta = 2
                 rmatch =    2.531849
              splitnorm =    0.280000
                 energy =   -0.959908
                kinetic =    2.409435
    potential(screened) =   -3.369343
       potential(ionic) =   -9.427975

SPLIT: Orbitals with angular momentum L= 1

SPLIT: Basis orbitals for state 2p

SPLIT: PAO cut-off radius determined from an
SPLIT: energy shift=  0.002000 Ry

   izeta = 1
                 lambda =    1.000000
                     rc =    5.924108
                 energy =   -0.519262
                kinetic =    3.672940
    potential(screened) =   -4.192202
       potential(ionic) =   -9.518354

   izeta = 2
                 rmatch =    2.531849
              splitnorm =    0.280000
                 energy =   -0.104258
                kinetic =    6.807538
    potential(screened) =   -6.911796
       potential(ionic) =  -13.149920

POLgen: Perturbative polarization orbital with L=  2

POLgen: Polarization orbital for state 2p

   izeta = 1
                     rc =    5.924108
                 energy =    1.427508
                kinetic =    2.872379
    potential(screened) =   -1.444871
       potential(ionic) =   -5.563644
atom: Total number of Sankey-type orbitals: 13

atm_pop: Valence configuration (for local Pseudopot. screening):
 2s( 2.00)                                                            
 2p( 3.00)                                                            
Vna: chval, zval:    5.00000   5.00000

Vna:  Cut-off radius for the neutral-atom potential:   5.924108

atom: _________________________________________________________________________

<basis_specs>
===============================================================================
Si                   Z=  14    Mass=  28.090        Charge= 0.17977+309
Lmxo=1 Lmxkb= 3    BasisType=split      Semic=F
L=0  Nsemic=0  Cnfigmx=3
          i=1  nzeta=2  polorb=0  (3s)
            splnorm:   0.28000    
               vcte:    0.0000    
               rinn:    0.0000    
               qcoe:    0.0000    
               qyuk:    0.0000    
               qwid:   0.10000E-01
                rcs:    0.0000      0.0000    
            lambdas:    1.0000      1.0000    
L=1  Nsemic=0  Cnfigmx=3
          i=1  nzeta=2  polorb=1  (3p)
            splnorm:   0.28000    
               vcte:    0.0000    
               rinn:    0.0000    
               qcoe:    0.0000    
               qyuk:    0.0000    
               qwid:   0.10000E-01
                rcs:    0.0000      0.0000    
            lambdas:    1.0000      1.0000    
-------------------------------------------------------------------------------
L=0  Nkbl=1  erefs: 0.17977+309
L=1  Nkbl=1  erefs: 0.17977+309
L=2  Nkbl=1  erefs: 0.17977+309
L=3  Nkbl=1  erefs: 0.17977+309
===============================================================================
</basis_specs>

atom: Called for Si                    (Z =  14)

read_vps: Pseudopotential generation method:
read_vps: ATM4.2.7  Troullier-Martins                       
Valence charge for ps generation:    4.00000

xc_check: Exchange-correlation functional:
xc_check: GGA Perdew, Burke & Ernzerhof 1996
V l=0 = -2*Zval/r beyond r=  2.7826
V l=1 = -2*Zval/r beyond r=  2.7826
V l=2 = -2*Zval/r beyond r=  2.9253
V l=3 = -2*Zval/r beyond r=  2.7826
All V_l potentials equal beyond r=  2.8530
This should be close to max(r_c) in ps generation
All pots = -2*Zval/r beyond r=  2.9253

VLOCAL1: 99.0% of the norm of Vloc inside      5.333 Ry
VLOCAL1: 99.9% of the norm of Vloc inside     12.154 Ry
atom: Maximum radius for 4*pi*r*r*local-pseudopot. charge    3.39869
atom: Maximum radius for r*vlocal+2*Zval:    2.96205
GHOST: No ghost state for L =  0
GHOST: No ghost state for L =  1
GHOST: No ghost state for L =  2
GHOST: No ghost state for L =  3

KBgen: Kleinman-Bylander projectors: 
   l= 0   rc=  3.075247   el= -0.794092   Ekb=  5.879390   kbcos=  0.167461
   l= 1   rc=  3.153101   el= -0.300068   Ekb=  2.642817   kbcos=  0.058301
   l= 2   rc=  3.273594   el=  0.001958   Ekb= -1.185135   kbcos= -0.104411
   l= 3   rc=  3.232927   el=  0.003046   Ekb= -0.497174   kbcos= -0.015889

KBgen: Total number of Kleinman-Bylander projectors:   16
atom: -------------------------------------------------------------------------

atom: SANKEY-TYPE ORBITALS:
atom: Selected multiple-zeta basis: split     

SPLIT: Orbitals with angular momentum L= 0

SPLIT: Basis orbitals for state 3s

SPLIT: PAO cut-off radius determined from an
SPLIT: energy shift=  0.002000 Ry

   izeta = 1
                 lambda =    1.000000
                     rc =    6.429618
                 energy =   -0.792283
                kinetic =    0.525293
    potential(screened) =   -1.317576
       potential(ionic) =   -3.744923

   izeta = 2
                 rmatch =    3.998416
              splitnorm =    0.280000
                 energy =   -0.583081
                kinetic =    1.069570
    potential(screened) =   -1.652651
       potential(ionic) =   -4.235185

SPLIT: Orbitals with angular momentum L= 1

SPLIT: Basis orbitals for state 3p

SPLIT: PAO cut-off radius determined from an
SPLIT: energy shift=  0.002000 Ry

   izeta = 1
                 lambda =    1.000000
                     rc =    8.464845
                 energy =   -0.298236
                kinetic =    0.785360
    potential(screened) =   -1.083596
       potential(ionic) =   -3.273779

   izeta = 2
                 rmatch =    4.587816
              splitnorm =    0.280000
                 energy =   -0.131871
                kinetic =    1.403687
    potential(screened) =   -1.535557
       potential(ionic) =   -4.015310

POLgen: Perturbative polarization orbital with L=  2

POLgen: Polarization orbital for state 3p

   izeta = 1
                     rc =    8.464845
                 energy =    0.321949
                kinetic =    1.055677
    potential(screened) =   -0.733728
       potential(ionic) =   -2.672950
atom: Total number of Sankey-type orbitals: 13

atm_pop: Valence configuration (for local Pseudopot. screening):
 3s( 2.00)                                                            
 3p( 2.00)                                                            
Vna: chval, zval:    4.00000   4.00000

Vna:  Cut-off radius for the neutral-atom potential:   8.464845

atom: _________________________________________________________________________

<basis_specs>
===============================================================================
O                    Z=   8    Mass=  16.000        Charge= 0.17977+309
Lmxo=1 Lmxkb= 3    BasisType=split      Semic=F
L=0  Nsemic=0  Cnfigmx=2
          i=1  nzeta=2  polorb=0  (2s)
            splnorm:   0.28000    
               vcte:    0.0000    
               rinn:    0.0000    
               qcoe:    0.0000    
               qyuk:    0.0000    
               qwid:   0.10000E-01
                rcs:    0.0000      0.0000    
            lambdas:    1.0000      1.0000    
L=1  Nsemic=0  Cnfigmx=2
          i=1  nzeta=2  polorb=1  (2p)
            splnorm:   0.28000    
               vcte:    0.0000    
               rinn:    0.0000    
               qcoe:    0.0000    
               qyuk:    0.0000    
               qwid:   0.10000E-01
                rcs:    0.0000      0.0000    
            lambdas:    1.0000      1.0000    
-------------------------------------------------------------------------------
L=0  Nkbl=1  erefs: 0.17977+309
L=1  Nkbl=1  erefs: 0.17977+309
L=2  Nkbl=1  erefs: 0.17977+309
L=3  Nkbl=1  erefs: 0.17977+309
===============================================================================
</basis_specs>

atom: Called for O                     (Z =   8)

read_vps: Pseudopotential generation method:
read_vps: ATM4.2.7  Troullier-Martins                       
Valence charge for ps generation:    6.00000

xc_check: Exchange-correlation functional:
xc_check: GGA Perdew, Burke & Ernzerhof 1996
V l=0 = -2*Zval/r beyond r=  1.1000
V l=1 = -2*Zval/r beyond r=  1.1000
V l=2 = -2*Zval/r beyond r=  2.2154
V l=3 = -2*Zval/r beyond r=  1.1000
All V_l potentials equal beyond r=  2.2154
This should be close to max(r_c) in ps generation
All pots = -2*Zval/r beyond r=  2.2154

VLOCAL1: 99.0% of the norm of Vloc inside      8.845 Ry
VLOCAL1: 99.9% of the norm of Vloc inside     20.157 Ry
atom: Maximum radius for 4*pi*r*r*local-pseudopot. charge    2.67231
atom: Maximum radius for r*vlocal+2*Zval:    2.32897
GHOST: No ghost state for L =  0
GHOST: No ghost state for L =  1
GHOST: No ghost state for L =  2
GHOST: No ghost state for L =  3

KBgen: Kleinman-Bylander projectors: 
   l= 0   rc=  2.243238   el= -1.759686   Ekb=**********   kbcos= -0.171774
   l= 1   rc=  2.328968   el= -0.663873   Ekb=-14.506792   kbcos= -0.519897
   l= 2   rc=  2.573941   el=  0.002031   Ekb= -1.137373   kbcos= -0.019581
   l= 3   rc=  2.606321   el=  0.003153   Ekb= -1.013546   kbcos= -0.003122

KBgen: Total number of Kleinman-Bylander projectors:   16
atom: -------------------------------------------------------------------------

atom: SANKEY-TYPE ORBITALS:
atom: Selected multiple-zeta basis: split     

SPLIT: Orbitals with angular momentum L= 0

SPLIT: Basis orbitals for state 2s

SPLIT: PAO cut-off radius determined from an
SPLIT: energy shift=  0.002000 Ry

   izeta = 1
                 lambda =    1.000000
                     rc =    4.243912
                 energy =   -1.758270
                kinetic =    3.286084
    potential(screened) =   -5.044353
       potential(ionic) =  -12.921184

   izeta = 2
                 rmatch =    2.187845
              splitnorm =    0.280000
                 energy =   -0.885018
                kinetic =    8.134434
    potential(screened) =   -9.019452
       potential(ionic) =  -17.710645

SPLIT: Orbitals with angular momentum L= 1

SPLIT: Basis orbitals for state 2p

SPLIT: PAO cut-off radius determined from an
SPLIT: energy shift=  0.002000 Ry

   izeta = 1
                 lambda =    1.000000
                     rc =    5.314825
                 energy =   -0.661986
                kinetic =    4.917472
    potential(screened) =   -5.579458
       potential(ionic) =  -13.236259

   izeta = 2
                 rmatch =    2.160663
              splitnorm =    0.280000
                 energy =   -0.068760
                kinetic =    9.183374
    potential(screened) =   -9.252135
       potential(ionic) =  -18.274251

POLgen: Perturbative polarization orbital with L=  2

POLgen: Polarization orbital for state 2p

   izeta = 1
                     rc =    5.314825
                 energy =    1.970580
                kinetic =    3.886128
    potential(screened) =   -1.915547
       potential(ionic) =   -7.749584
atom: Total number of Sankey-type orbitals: 13

atm_pop: Valence configuration (for local Pseudopot. screening):
 2s( 2.00)                                                            
 2p( 4.00)                                                            
Vna: chval, zval:    6.00000   6.00000

Vna:  Cut-off radius for the neutral-atom potential:   5.314825

atom: _________________________________________________________________________

prinput: Basis input ----------------------------------------------------------

PAO.BasisType split     

%block ChemicalSpeciesLabel
    1    1 H                       # Species index, atomic number, species label
    2    7 N                       # Species index, atomic number, species label
    3   14 Si                      # Species index, atomic number, species label
    4    8 O                       # Species index, atomic number, species label
%endblock ChemicalSpeciesLabel

%block PAO.Basis                 # Define Basis set
H                     1                    # Species label, number of l-shells
 n=1   0   2 P   1                   # n, l, Nzeta, Polarization, NzetaPol
   6.518      2.141   
   1.000      1.000   
N                     2                    # Species label, number of l-shells
 n=2   0   2                         # n, l, Nzeta 
   4.730      2.532   
   1.000      1.000   
 n=2   1   2 P   1                   # n, l, Nzeta, Polarization, NzetaPol
   5.924      2.532   
   1.000      1.000   
Si                    2                    # Species label, number of l-shells
 n=3   0   2                         # n, l, Nzeta 
   6.430      3.998   
   1.000      1.000   
 n=3   1   2 P   1                   # n, l, Nzeta, Polarization, NzetaPol
   8.465      4.588   
   1.000      1.000   
O                     2                    # Species label, number of l-shells
 n=2   0   2                         # n, l, Nzeta 
   4.244      2.188   
   1.000      1.000   
 n=2   1   2 P   1                   # n, l, Nzeta, Polarization, NzetaPol
   5.315      2.161   
   1.000      1.000   
%endblock PAO.Basis

prinput: ----------------------------------------------------------------------

Dumping basis to NetCDF file H.ion.nc
Dumping basis to NetCDF file N.ion.nc
Dumping basis to NetCDF file Si.ion.nc
Dumping basis to NetCDF file O.ion.nc
coor:   Atomic-coordinates input format  =     Cartesian coordinates
coor:                                          (in Angstroms)

siesta: Atomic coordinates (Bohr) and species
siesta:      4.87999 -10.91663   0.00000  1        1
siesta:      3.12704  -9.95765   0.00000  2        2
siesta:      0.11930 -11.53056   0.00000  3        3
siesta:      0.22530 -14.35597   0.00000  1        4
siesta:     -2.60195  -9.79371   0.00000  2        5
siesta:     -1.55784  -6.54009   0.00000  3        6
siesta:     -2.21206  -2.39996   0.00000  3        7
siesta:     -5.11537  -0.78899   0.00000  2        8
siesta:     -5.20538   1.19971   0.00000  1        9
siesta:     -6.87421  -1.71959   0.00000  1       10
siesta:      0.41213  -0.44256   0.00000  2       11
siesta:      3.53758  -1.31745   0.00000  3       12
siesta:      5.34415   0.87204   0.00000  1       13
siesta:      5.00428  -4.26138   0.00000  2       14
siesta:      2.63035  -6.52849   0.00000  3       15
siesta:      3.45529  16.84437   0.00000  2       16
siesta:      0.94692  19.13132   0.00000  3       17
siesta:      2.15635  21.70384   0.00000  1       18
siesta:     -2.99457  17.86420   0.00000  3       19
siesta:     -6.82989  19.99981   0.00000  3       20
siesta:     -6.53843  22.19233   1.77692  1       21
siesta:     -8.69304  18.06866   0.96870  1       22
siesta:     -7.61642  20.89975  -2.58265  1       23
siesta:     -2.86891  13.56701   0.00000  3       24
siesta:     -4.83243  11.31245   0.00000  4       25
siesta:      0.26235  12.36897   0.00000  2       26
siesta:      0.22830  10.36123   0.00000  1       27
siesta:      3.33052  13.49727   0.00000  3       28
siesta:      5.58877  11.58028   0.00000  4       29
siesta:      5.34509  17.49728   0.00000  1       30

siesta: Automatic unit cell vectors (Ang):
siesta:   15.889530    0.000000    0.000000
siesta:    0.000000   28.863154    0.000000
siesta:    0.000000    0.000000   10.224979

siesta: System type = molecule  

initatomlists: Number of atoms, orbitals, and projectors:     30   302   403

siesta: ******************** Simulation parameters ****************************
siesta:
siesta: The following are some of the parameters of the simulation.
siesta: A complete list of the parameters used, including default values,
siesta: can be found in file out.fdf
siesta:
redata: Spin configuration                          = spin-orbit
redata: Number of spin components                   = 8
redata: Time-Reversal Symmetry                      = F
redata: Spin spiral                                 = F
############################################################
This spin-orbit implementation uses a local approximation.
From 4.2 and onwards the full non-local approximation is implemented
You are strongly advised to use >=4.2 versions!
############################################################
redata: Long output                                 =   F
redata: Number of Atomic Species                    =        4
redata: Charge density info will appear in .RHO file
redata: Write Mulliken Pop.                         = Atomic and Orbital charges
redata: Matel table size (NRTAB)                    =     1024
redata: Mesh Cutoff                                 =   340.0000 Ry
redata: Net charge of the system                    =     0.0000 |e|
redata: Min. number of SCF Iter                     =        1
redata: Max. number of SCF Iter                     =      200
redata: SCF mix quantity                            = Hamiltonian
redata: Mix DM or H after convergence               =   F
redata: Recompute H after scf cycle                 =   F
redata: Mix DM in first SCF step                    =   T
redata: Write Pulay info on disk                    =   F
redata: New DM Occupancy tolerance                  = 0.000000000001
redata: No kicks to SCF
redata: DM Mixing Weight for Kicks                  =     0.5000
redata: Require Harris convergence for SCF          =   F
redata: Harris energy tolerance for SCF             =     0.000100 eV
redata: Require DM convergence for SCF              =   T
redata: DM tolerance for SCF                        =     0.000008
redata: Require EDM convergence for SCF             =   F
redata: EDM tolerance for SCF                       =     0.001000 eV
redata: Require H convergence for SCF               =   T
redata: Hamiltonian tolerance for SCF               =     0.000001 eV
redata: Require (free) Energy convergence for SCF   =   F
redata: (free) Energy tolerance for SCF             =     0.000100 eV
redata: Using Saved Data (generic)                  =   F
redata: Use continuation files for DM               =   F
redata: Neglect nonoverlap interactions             =   F
redata: Method of Calculation                       = Diagonalization
redata: Electronic Temperature                      =   299.9978 K
redata: Fix the spin of the system                  =   F
redata: Dynamics option                             = Single-point calculation
mix.SCF: Pulay mixing                            = Pulay
mix.SCF:    Variant                              = stable
mix.SCF:    History steps                        = 6
mix.SCF:    Linear mixing weight                 =     0.250000
mix.SCF:    Mixing weight                        =     0.250000
mix.SCF:    SVD condition                        = 0.1000E-07
mix.SCF:    Restart steps                        = 24
mix.SCF:    Restart save steps                   = 3
mix.SCF: Spin-component mixing                   all
redata: Save all siesta data in one NC              =   F
redata: ***********************************************************************

%block SCF.Mixers
  Pulay
%endblock SCF.Mixers

%block SCF.Mixer.Pulay
  # Mixing method
  method pulay
  variant stable

  # Mixing options
  weight 0.2500
  weight.linear 0.2500
  history 6
  restart 24
  restart.save 3
%endblock SCF.Mixer.Pulay

DM_history_depth set to one: no extrapolation allowed by default for geometry relaxation
Size of DM history Fstack: 1
Total number of electrons:    98.000000
Total ionic charge:    98.000000

* ProcessorY, Blocksize:    2  24


* Orbital distribution balance (max,min):    62    48


Time-reversal symmetry not used.

siesta: k-grid: Number of k-points =     1
siesta: k-grid: Cutoff (effective) =     5.112 Ang
siesta: k-grid: Supercell and displacements
siesta: k-grid:    1   0   0      0.000
siesta: k-grid:    0   1   0      0.000
siesta: k-grid:    0   0   1      0.000

diag: Algorithm                                     = ELPA-1stage
diag: Parallel over k                               =   F
diag: Use parallel 2D distribution                  =   T
diag: Parallel block-size                           = 24
diag: Parallel distribution                         =     2 x     3
diag: Used triangular part                          = Lower
diag: Absolute tolerance                            =  0.100E-15
diag: Orthogonalization factor                      =  0.100E-05
diag: Memory factor                                 =  1.0000


ts: **************************************************************
ts: Save H and S matrices                           =    F
ts: Save DM and EDM matrices                        =    F
ts: Only save the overlap matrix S                  =    F
ts: **************************************************************

************************ Begin: TS CHECKS AND WARNINGS ************************
************************ End: TS CHECKS AND WARNINGS **************************


                     ====================================
                        Single-point calculation
                     ====================================

outcoor: Atomic coordinates (Ang):                          
    2.58237765   -5.77683044    0.00000000   1       1  H
    1.65475924   -5.26936198    0.00000000   2       2  N
    0.06312884   -6.10170459    0.00000000   3       3  Si
    0.11922324   -7.59684950    0.00000000   1       4  H
   -1.37689205   -5.18260374    0.00000000   2       5  N
   -0.82437190   -3.46086644    0.00000000   3       6  Si
   -1.17057148   -1.27000210    0.00000000   3       7  Si
   -2.70693368   -0.41751578    0.00000000   2       8  N
   -2.75456966    0.63485862    0.00000000   1       9  H
   -3.63767564   -0.90996786    0.00000000   1      10  H
    0.21809179   -0.23419397    0.00000000   2      11  N
    1.87200410   -0.69716230    0.00000000   3      12  Si
    2.82800113    0.46146477    0.00000000   1      13  H
    2.64815008   -2.25502447    0.00000000   2      14  N
    1.39192138   -3.45472722    0.00000000   3      15  Si
    1.82845950    8.91365086    0.00000000   2      16  N
    0.50108798   10.12385516    0.00000000   3      17  Si
    1.14108925   11.48517340    0.00000000   1      18  H
   -1.58465796    9.45332381    0.00000000   3      19  Si
   -3.61422056   10.58344000    0.00000000   3      20  Si
   -3.45998479   11.74367021    0.94030528   1      21  H
   -4.60015528    9.56151938    0.51261370   1      22  H
   -4.03043552   11.05966585   -1.36667834   1      23  H
   -1.51816254    7.17934719    0.00000000   3      24  Si
   -2.55721127    5.98628769    0.00000000   4      25  O
    0.13882904    6.54537200    0.00000000   2      26  N
    0.12081167    5.48292717    0.00000000   1      27  H
    1.76243211    7.14244221    0.00000000   3      28  Si
    2.95744828    6.12801701    0.00000000   4      29  O
    2.82849687    9.25915796    0.00000000   1      30  H

outcell: Unit cell vectors (Ang):
       15.889530    0.000000    0.000000
        0.000000   28.863154    0.000000
        0.000000    0.000000   10.224979

outcell: Cell vector modules (Ang)   :   15.889530   28.863154   10.224979
outcell: Cell angles (23,13,12) (deg):     90.0000     90.0000     90.0000
outcell: Cell volume (Ang**3)        :   4689.4001
<dSpData1D:S at geom step 0
  <sparsity:sparsity for geom step 0
    nrows_g=302 nrows=62 sparsity=.0999 nnzs=9110, refcount: 8>
  <dData1D:(new from dSpData1D) n=9110, refcount: 1>
refcount: 1>
new_DM -- step:     1
Initializing Density Matrix...
DM filled with atomic data:
<dSpData2D:DM initialized from atoms
  <sparsity:sparsity for geom step 0
    nrows_g=302 nrows=62 sparsity=.0999 nnzs=9110, refcount: 9>
  <dData2D:DM n=9110 m=8, refcount: 1>
refcount: 1>
     spin moment: S , {S} =   56.00000   0.00000   0.00000  56.00000
No. of atoms with KB's overlaping orbs in proc 0. Max # of overlaps:      24     133

Initializing spin-orbit part of the Hamiltonian
  Adding spin-orbit effects for H 
  Adding spin-orbit effects for N 
  Adding spin-orbit effects for Si
  Adding spin-orbit effects for O 


New grid distribution:   1
           1       1:   90    1:   81    1:   20
           2       1:   90    1:   81   21:   40
           3       1:   90    1:   81   41:   60
           4       1:   90   82:  162    1:   20
           5       1:   90   82:  162   21:   40
           6       1:   90   82:  162   41:   60

InitMesh: MESH =   180 x   324 x   120 =     6998400
InitMesh: (bp) =    90 x   162 x    60 =      874800
InitMesh: Mesh cutoff (required, used) =   340.000   348.260 Ry
ExtMesh (bp) on 0 =   194 x   185 x   128 =     4593920
New grid distribution:   2
           1      14:   90   46:   65    1:   60
           2       1:   11   66:  162    1:   60
           3       1:   13    1:   65    1:   60
           4      12:   90   66:  143    1:   60
           5      14:   90    1:   45    1:   60
           6      12:   90  144:  162    1:   60
New grid distribution:   3
           1       1:   19   66:  162    1:   60
           2      22:   90   41:   65    1:   60
           3       1:   21    1:   65    1:   60
           4      20:   90   66:  132    1:   60
           5      22:   90    1:   40    1:   60
           6      20:   90  133:  162    1:   60
Setting up quadratic distribution...
ExtMesh (bp) on 0 =   181 x   124 x   168 =     3770592
PhiOnMesh: Number of (b)points on node 0 =                92400
PhiOnMesh: nlist on node 0 =              1688821

stepf: Fermi-Dirac step function

siesta: Program's energy decomposition (eV):
siesta: Ebs     =      -637.461207
siesta: Eions   =      3553.971015
siesta: Ena     =       377.805314
siesta: Ekin    =      3183.465199
siesta: Enl     =     -2998.361316
siesta: Eso     =        -0.003900
siesta: Edftu   =         0.000000
siesta: DEna    =       130.407480
siesta: DUscf   =        76.807246
siesta: DUext   =         0.000000
siesta: Exc     =     -1171.414819
siesta: eta*DQ  =         0.000000
siesta: Emadel  =         0.000000
siesta: Emeta   =         0.000000
siesta: Emolmec =         0.000000
siesta: Ekinion =         0.000000
siesta: Eharris =     -3882.172441
siesta: Etot    =     -3955.265811
siesta: FreeEng =     -3955.270038

        iscf     Eharris(eV)        E_KS(eV)     FreeEng(eV)     dDmax    Ef(eV) dHmax(eV)
   scf:    1    -3882.172441    -3955.265811    -3955.270038  0.971428 -4.940978 21.553415
     spin moment: S , {S} =    2.03194   0.00003   0.00001   2.03194
timer: Routine,Calls,Time,% = IterSCF        1       5.621  21.94
   scf:    2    -3997.333685    -3989.071405    -3989.071407  0.457186 -4.372466 10.994878
     spin moment: S , {S} =    2.00010  -0.00001   0.00004   2.00010
   scf:    3    -3968.367384    -3988.434745    -3988.464828  0.414972 -4.290221 10.420405
     spin moment: S , {S} =    1.55758   0.00002   0.00001   1.55758
   scf:    4    -4001.662596    -3997.373969    -3997.373974  0.257019 -3.985349  5.577417
     spin moment: S , {S} =    0.00011   0.00001  -0.00000   0.00011
   scf:    5    -3998.651304    -3998.107283    -3998.107283  0.039781 -3.915204  3.202960
     spin moment: S , {S} =    0.00006   0.00001  -0.00000   0.00006
   scf:    6    -3998.807192    -3998.465714    -3998.465714  0.023424 -3.906649  1.833605
     spin moment: S , {S} =    0.00003   0.00000  -0.00000   0.00003
   scf:    7    -3998.872451    -3998.661267    -3998.661267  0.024416 -3.955570  0.758777
     spin moment: S , {S} =    0.00001   0.00000  -0.00000   0.00001
   scf:    8    -3998.780180    -3998.718441    -3998.718441  0.012009 -3.996058  0.443021
     spin moment: S , {S} =    0.00000   0.00000  -0.00000   0.00000
   scf:    9    -3998.761623    -3998.739111    -3998.739111  0.006580 -4.011504  0.348797
     spin moment: S , {S} =    0.00000   0.00000   0.00000   0.00000
   scf:   10    -3998.796089    -3998.759994    -3998.760001  0.021573 -4.037242  0.193210
     spin moment: S , {S} =    0.00002   0.00000   0.00000  -0.00002
   scf:   11    -3998.763868    -3998.762015    -3998.762025  0.004076 -4.024710  0.058481
     spin moment: S , {S} =    0.00000   0.00000   0.00000   0.00000
   scf:   12    -3998.762639    -3998.762336    -3998.762349  0.001219 -4.022487  0.032126
     spin moment: S , {S} =    0.00000   0.00000   0.00000   0.00000
   scf:   13    -3998.762764    -3998.762547    -3998.762560  0.000874 -4.020396  0.015836
     spin moment: S , {S} =    0.00000   0.00000   0.00000   0.00000
   scf:   14    -3998.762740    -3998.762640    -3998.762654  0.000879 -4.019633  0.010368
     spin moment: S , {S} =    0.00000   0.00000   0.00000   0.00000
   scf:   15    -3998.762752    -3998.762692    -3998.762706  0.000870 -4.019284  0.007542
     spin moment: S , {S} =    0.00000   0.00000   0.00000   0.00000
   scf:   16    -3998.762748    -3998.762717    -3998.762732  0.000727 -4.019319  0.004943
     spin moment: S , {S} =    0.00000   0.00000   0.00000   0.00000
   scf:   17    -3998.762736    -3998.762726    -3998.762740  0.000460 -4.019393  0.003709
     spin moment: S , {S} =    0.00000   0.00000   0.00000  -0.00000
   scf:   18    -3998.762732    -3998.762729    -3998.762743  0.000246 -4.019454  0.002531
     spin moment: S , {S} =    0.00000   0.00000   0.00000  -0.00000
   scf:   19    -3998.762734    -3998.762731    -3998.762745  0.000298 -4.019459  0.001405
     spin moment: S , {S} =    0.00000   0.00000   0.00000  -0.00000
   scf:   20    -3998.762732    -3998.762731    -3998.762745  0.000102 -4.019468  0.000977
     spin moment: S , {S} =    0.00000   0.00000   0.00000  -0.00000
   scf:   21    -3998.762732    -3998.762732    -3998.762746  0.000118 -4.019471  0.000480
     spin moment: S , {S} =    0.00000   0.00000   0.00000  -0.00000
   scf:   22    -3998.762732    -3998.762732    -3998.762746  0.000082 -4.019479  0.000148
     spin moment: S , {S} =    0.00000   0.00000  -0.00000  -0.00000
   scf:   23    -3998.762732    -3998.762732    -3998.762746  0.000026 -4.019483  0.000093
     spin moment: S , {S} =    0.00000   0.00000  -0.00000  -0.00000
   scf:   24    -3998.762732    -3998.762732    -3998.762746  0.000009 -4.019483  0.000059
     spin moment: S , {S} =    0.00000   0.00000  -0.00000  -0.00000
mix: Pulay -- resetting history
   scf:   25    -3998.762732    -3998.762732    -3998.762746  0.000005 -4.019480  0.000028
     spin moment: S , {S} =    0.00000   0.00000  -0.00000  -0.00000
   scf:   26    -3998.762732    -3998.762732    -3998.762746  0.000002 -4.019479  0.000017
     spin moment: S , {S} =    0.00000   0.00000  -0.00000  -0.00000
   scf:   27    -3998.762732    -3998.762732    -3998.762746  0.000001 -4.019479  0.000009
     spin moment: S , {S} =    0.00000   0.00000  -0.00000  -0.00000
   scf:   28    -3998.762732    -3998.762732    -3998.762746  0.000001 -4.019479  0.000006
     spin moment: S , {S} =    0.00000   0.00000  -0.00000  -0.00000
   scf:   29    -3998.762732    -3998.762732    -3998.762746  0.000000 -4.019479  0.000004
     spin moment: S , {S} =    0.00000   0.00000  -0.00000  -0.00000
   scf:   30    -3998.762732    -3998.762732    -3998.762746  0.000000 -4.019479  0.000003
     spin moment: S , {S} =    0.00000   0.00000  -0.00000   0.00000
   scf:   31    -3998.762732    -3998.762732    -3998.762746  0.000000 -4.019479  0.000002
     spin moment: S , {S} =    0.00000   0.00000  -0.00000   0.00000
   scf:   32    -3998.762732    -3998.762732    -3998.762746  0.000000 -4.019479  0.000002
     spin moment: S , {S} =    0.00000   0.00000  -0.00000   0.00000
   scf:   33    -3998.762732    -3998.762732    -3998.762746  0.000000 -4.019479  0.000001
     spin moment: S , {S} =    0.00000   0.00000  -0.00000   0.00000

SCF Convergence by DM+H criterion
max |DM_out - DM_in|         :     0.0000001963
max |H_out - H_in|      (eV) :     0.0000009019
SCF cycle converged after 33 iterations

Using DM_out to compute the final energy and forces
No. of atoms with KB's overlaping orbs in proc 0. Max # of overlaps:      24     133

siesta: E_KS(eV) =            -3998.7627

siesta: E_KS - E_eggbox =     -3998.7627
     spin moment: S , {S} =    0.00000   0.00000  -0.00000   0.00000

siesta: Atomic forces (eV/Ang):
     1   -0.072682   -0.026697    0.000002
     2   -0.003679   -0.045720   -0.000002
     3   -0.003638    0.040591    0.000004
     4   -0.032803    0.022201    0.000001
     5    0.016320   -0.041368   -0.000003
     6    0.021273    0.004233   -0.000000
     7   -0.052907    0.103415    0.000004
     8    0.047469   -0.038172   -0.000013
     9    0.081371   -0.089551    0.000018
    10    0.122574    0.119650    0.000003
    11   -0.041200   -0.038666   -0.000005
    12    0.035252    0.059066    0.000001
    13   -0.088737   -0.199531   -0.000000
    14   -0.009108   -0.058582    0.000000
    15    0.000541    0.065438   -0.000000
    16   -0.004190    0.094771    0.007993
    17   -0.011673   -0.042570   -0.039734
    18    0.032618    0.186014    0.008228
    19    0.008126    0.030547   -0.041262
    20    0.042409   -0.055486    0.026381
    21   -0.030692    0.219721    0.062060
    22    0.011286   -0.005812    0.026416
    23   -0.035668    0.001587   -0.051137
    24    0.027386   -0.111291   -0.026624
    25   -1.194822   -2.917552    0.003208
    26   -0.028325    0.061790    0.006534
    27   -0.011092   -0.068901    0.002784
    28    0.000161   -0.112597   -0.000872
    29    1.220429    4.245883   -0.001086
    30   -0.063039    0.303728    0.008279
----------------------------------------
   Tot   -0.017041    1.706138   -0.008825
----------------------------------------
   Max    4.245883
   Res    0.575826    sqrt( Sum f_i^2 / 3N )
----------------------------------------
   Max    4.245883    constrained

Stress tensor Voigt[x,y,z,yz,xz,xy] (kbar):       -1.57       -0.51       -0.21       -0.04        0.05        0.28
(Free)E + p*V (eV/cell)    -3996.5273
Target enthalpy (eV/cell)    -3998.7627

mulliken: Atomic and Orbital Populations:

Species: H                   

Atom      Orb        Charge      Spin       Svec
----------------------------------------------------------------
    1  1 1s         0.50861   0.00000     -0.000   0.000  -0.000
    1  2 1s         0.18812   0.00000     -0.000  -0.000   0.000
    1  3 2Ppy       0.02792   0.00000     -0.000   0.000  -0.000
    1  4 2Ppz       0.03993   0.00000     -0.000   0.000  -0.000
    1  5 2Ppx       0.02506   0.00000     -0.000   0.000   0.000
    1     Total     0.78964   0.00000     -0.000   0.000  -0.000

    4  1 1s         1.02392   0.00000     -0.000   0.000  -0.000
    4  2 1s         0.09505   0.00000      0.000  -0.000   0.000
    4  3 2Ppy       0.03908   0.00000      0.000   0.000   0.000
    4  4 2Ppz       0.01987   0.00000      0.000  -0.000   0.000
    4  5 2Ppx       0.01356   0.00000     -0.000   0.000  -0.000
    4     Total     1.19147   0.00000     -0.000   0.000  -0.000

    9  1 1s         0.47950   0.00000     -0.000   0.000  -0.000
    9  2 1s         0.19538   0.00000     -0.000   0.000  -0.000
    9  3 2Ppy       0.02297   0.00000      0.000   0.000   0.000
    9  4 2Ppz       0.04910   0.00000      0.000  -0.000  -0.000
    9  5 2Ppx       0.01240   0.00000      0.000  -0.000  -0.000
    9     Total     0.75935   0.00000      0.000  -0.000  -0.000

   10  1 1s         0.48222   0.00000     -0.000   0.000  -0.000
   10  2 1s         0.19603   0.00000     -0.000  -0.000   0.000
   10  3 2Ppy       0.00685   0.00000     -0.000  -0.000   0.000
   10  4 2Ppz       0.05301   0.00000     -0.000   0.000   0.000
   10  5 2Ppx       0.02900   0.00000     -0.000   0.000  -0.000
   10     Total     0.76711   0.00000     -0.000   0.000  -0.000

   13  1 1s         1.01403   0.00000     -0.000   0.000  -0.000
   13  2 1s         0.09941   0.00000      0.000  -0.000   0.000
   13  3 2Ppy       0.02469   0.00000     -0.000  -0.000   0.000
   13  4 2Ppz       0.01447   0.00000      0.000  -0.000   0.000
   13  5 2Ppx       0.01751   0.00000     -0.000  -0.000   0.000
   13     Total     1.17011   0.00000     -0.000  -0.000  -0.000

   18  1 1s         1.04989   0.00000     -0.000  -0.000  -0.000
   18  2 1s         0.08417   0.00000      0.000   0.000   0.000
   18  3 2Ppy       0.02776   0.00000     -0.000  -0.000   0.000
   18  4 2Ppz       0.01892   0.00000      0.000  -0.000  -0.000
   18  5 2Ppx       0.01766   0.00000      0.000   0.000  -0.000
   18     Total     1.19841   0.00000     -0.000  -0.000  -0.000

   21  1 1s         1.06665   0.00000     -0.000  -0.000  -0.000
   21  2 1s         0.08267   0.00000      0.000  -0.000   0.000
   21  3 2Ppy       0.02228   0.00000      0.000   0.000   0.000
   21  4 2Ppz       0.02109   0.00000     -0.000  -0.000   0.000
   21  5 2Ppx       0.01160   0.00000      0.000  -0.000  -0.000
   21     Total     1.20430   0.00000     -0.000  -0.000  -0.000

   22  1 1s         1.05204   0.00000     -0.000  -0.000  -0.000
   22  2 1s         0.08349   0.00000      0.000   0.000   0.000
   22  3 2Ppy       0.02014   0.00000      0.000  -0.000  -0.000
   22  4 2Ppz       0.01768   0.00000      0.000   0.000  -0.000
   22  5 2Ppx       0.01709   0.00000     -0.000  -0.000   0.000
   22     Total     1.19043   0.00000     -0.000  -0.000  -0.000

   23  1 1s         1.06502   0.00000     -0.000  -0.000  -0.000
   23  2 1s         0.08212   0.00000      0.000   0.000   0.000
   23  3 2Ppy       0.01685   0.00000     -0.000   0.000  -0.000
   23  4 2Ppz       0.02461   0.00000     -0.000  -0.000   0.000
   23  5 2Ppx       0.01349   0.00000      0.000  -0.000   0.000
   23     Total     1.20210   0.00000     -0.000  -0.000  -0.000

   27  1 1s         0.46469   0.00000     -0.000   0.000   0.000
   27  2 1s         0.19041   0.00000      0.000  -0.000  -0.000
   27  3 2Ppy       0.02015   0.00000     -0.000  -0.000  -0.000
   27  4 2Ppz       0.02569   0.00000     -0.000   0.000  -0.000
   27  5 2Ppx       0.02936   0.00000      0.000  -0.000   0.000
   27     Total     0.73029   0.00000     -0.000   0.000   0.000

   30  1 1s         0.48404   0.00000     -0.000  -0.000  -0.000
   30  2 1s         0.18919   0.00000      0.000  -0.000   0.000
   30  3 2Ppy       0.02652   0.00000      0.000  -0.000   0.000
   30  4 2Ppz       0.03450   0.00000     -0.000  -0.000   0.000
   30  5 2Ppx       0.02317   0.00000      0.000  -0.000   0.000
   30     Total     0.75742   0.00000     -0.000  -0.000   0.000

----------------------------------------------------------------
Total              10.96063   0.00000     -0.000  -0.000  -0.000


Species: N                   

Atom      Orb        Charge      Spin       Svec
----------------------------------------------------------------
    2  1 2s         1.38098   0.00000     -0.000  -0.000  -0.000
    2  2 2s         0.12665   0.00000      0.000   0.000   0.000
    2  3 2py        1.06813   0.00000     -0.000  -0.000  -0.000
    2  4 2pz        1.49545   0.00000     -0.000  -0.000  -0.000
    2  5 2px        1.01728   0.00000      0.000   0.000  -0.000
    2  6 2py        0.19601   0.00000     -0.000   0.000   0.000
    2  7 2pz        0.01427   0.00000      0.000   0.000   0.000
    2  8 2px        0.21004   0.00000      0.000  -0.000   0.000
    2  9 3Pdxy      0.00672   0.00000     -0.000  -0.000   0.000
    2 10 3Pdyz      0.00606   0.00000     -0.000  -0.000   0.000
    2 11 3Pdz2      0.00150   0.00000     -0.000   0.000   0.000
    2 12 3Pdxz      0.00304   0.00000      0.000   0.000   0.000
    2 13 3Pdx2-y2   0.00297   0.00000     -0.000  -0.000  -0.000
    2     Total     5.52910   0.00000     -0.000  -0.000  -0.000

    5  1 2s         1.55817   0.00000     -0.000   0.000  -0.000
    5  2 2s         0.08111   0.00000      0.000  -0.000  -0.000
    5  3 2py        0.90444   0.00000     -0.000   0.000  -0.000
    5  4 2pz        1.22250   0.00000     -0.000   0.000  -0.000
    5  5 2px        1.14172   0.00000     -0.000  -0.000  -0.000
    5  6 2py        0.23017   0.00000      0.000  -0.000   0.000
    5  7 2pz        0.05523   0.00000     -0.000  -0.000   0.000
    5  8 2px        0.14634   0.00000      0.000   0.000   0.000
    5  9 3Pdxy      0.00854   0.00000     -0.000  -0.000  -0.000
    5 10 3Pdyz      0.00700   0.00000     -0.000  -0.000   0.000
    5 11 3Pdz2      0.00189   0.00000      0.000  -0.000   0.000
    5 12 3Pdxz      0.01129   0.00000      0.000   0.000   0.000
    5 13 3Pdx2-y2   0.00920   0.00000      0.000   0.000   0.000
    5     Total     5.37760   0.00000     -0.000   0.000  -0.000

    8  1 2s         1.28487   0.00000     -0.000  -0.000  -0.000
    8  2 2s         0.17150   0.00000      0.000   0.000  -0.000
    8  3 2py        1.06157   0.00000     -0.000   0.000  -0.000
    8  4 2pz        1.57188   0.00000      0.000   0.000  -0.000
    8  5 2px        1.00433   0.00000      0.000  -0.000  -0.000
    8  6 2py        0.19489   0.00000     -0.000  -0.000   0.000
    8  7 2pz        0.02738   0.00000      0.000  -0.000  -0.000
    8  8 2px        0.22881   0.00000     -0.000   0.000   0.000
    8  9 3Pdxy      0.00270   0.00000      0.000  -0.000  -0.000
    8 10 3Pdyz      0.00082   0.00000     -0.000   0.000  -0.000
    8 11 3Pdz2      0.00273   0.00000      0.000   0.000   0.000
    8 12 3Pdxz      0.00243   0.00000     -0.000  -0.000  -0.000
    8 13 3Pdx2-y2   0.00436   0.00000      0.000  -0.000   0.000
    8     Total     5.55826   0.00000      0.000   0.000  -0.000

   11  1 2s         1.45908   0.00000      0.000  -0.000  -0.000
   11  2 2s         0.11390   0.00000     -0.000   0.000  -0.000
   11  3 2py        1.22256   0.00000     -0.000   0.000  -0.000
   11  4 2pz        1.28741   0.00000     -0.000  -0.000  -0.000
   11  5 2px        0.79896   0.00000      0.000   0.000  -0.000
   11  6 2py        0.11210   0.00000      0.000  -0.000   0.000
   11  7 2pz        0.04630   0.00000      0.000   0.000   0.000
   11  8 2px        0.31786   0.00000     -0.000  -0.000   0.000
   11  9 3Pdxy      0.00736   0.00000     -0.000  -0.000   0.000
   11 10 3Pdyz      0.00609   0.00000     -0.000   0.000   0.000
   11 11 3Pdz2      0.00055   0.00000      0.000  -0.000   0.000
   11 12 3Pdxz      0.00496   0.00000     -0.000   0.000  -0.000
   11 13 3Pdx2-y2   0.00528   0.00000     -0.000   0.000   0.000
   11     Total     5.38242   0.00000     -0.000  -0.000  -0.000

   14  1 2s         1.50658   0.00000      0.000  -0.000  -0.000
   14  2 2s         0.10226   0.00000     -0.000   0.000  -0.000
   14  3 2py        0.84393   0.00000      0.000   0.000  -0.000
   14  4 2pz        1.23726   0.00000      0.000  -0.000  -0.000
   14  5 2px        1.17754   0.00000      0.000  -0.000  -0.000
   14  6 2py        0.27747   0.00000      0.000  -0.000   0.000
   14  7 2pz        0.05439   0.00000     -0.000   0.000   0.000
   14  8 2px        0.13196   0.00000     -0.000   0.000   0.000
   14  9 3Pdxy      0.00949   0.00000     -0.000   0.000  -0.000
   14 10 3Pdyz      0.00491   0.00000      0.000  -0.000   0.000
   14 11 3Pdz2      0.00146   0.00000     -0.000  -0.000   0.000
   14 12 3Pdxz      0.01066   0.00000     -0.000   0.000   0.000
   14 13 3Pdx2-y2   0.00792   0.00000     -0.000  -0.000   0.000
   14     Total     5.36584   0.00000      0.000   0.000  -0.000

   16  1 2s         1.37860   0.00000     -0.000   0.000  -0.000
   16  2 2s         0.12591   0.00000      0.000  -0.000   0.000
   16  3 2py        0.99109   0.00000      0.000   0.000  -0.000
   16  4 2pz        1.54755   0.00000      0.000   0.000  -0.000
   16  5 2px        1.07942   0.00000      0.000   0.000  -0.000
   16  6 2py        0.23956   0.00000     -0.000  -0.000   0.000
   16  7 2pz        0.00325   0.00000     -0.000  -0.000   0.000
   16  8 2px        0.18089   0.00000      0.000  -0.000  -0.000
   16  9 3Pdxy      0.00152   0.00000     -0.000  -0.000   0.000
   16 10 3Pdyz      0.00476   0.00000      0.000   0.000  -0.000
   16 11 3Pdz2      0.00088   0.00000      0.000  -0.000   0.000
   16 12 3Pdxz      0.00237   0.00000     -0.000  -0.000  -0.000
   16 13 3Pdx2-y2   0.00609   0.00000      0.000  -0.000   0.000
   16     Total     5.56190   0.00000      0.000   0.000  -0.000

   26  1 2s         1.37349   0.00000      0.000   0.000  -0.000
   26  2 2s         0.12515   0.00000     -0.000  -0.000  -0.000
   26  3 2py        1.11245   0.00000      0.000  -0.000  -0.000
   26  4 2pz        1.53080   0.00000     -0.000   0.000  -0.000
   26  5 2px        0.94656   0.00000     -0.000   0.000  -0.000
   26  6 2py        0.16920   0.00000      0.000   0.000   0.000
   26  7 2pz        0.00506   0.00000      0.000  -0.000   0.000
   26  8 2px        0.26506   0.00000      0.000  -0.000   0.000
   26  9 3Pdxy      0.00064   0.00000     -0.000  -0.000  -0.000
   26 10 3Pdyz      0.00079   0.00000     -0.000   0.000   0.000
   26 11 3Pdz2     -0.00127   0.00000     -0.000  -0.000  -0.000
   26 12 3Pdxz      0.00470   0.00000      0.000   0.000  -0.000
   26 13 3Pdx2-y2   0.00221   0.00000     -0.000   0.000   0.000
   26     Total     5.53485   0.00000     -0.000   0.000  -0.000

----------------------------------------------------------------
Total              49.27059   0.00000     -0.000   0.000  -0.000


Species: Si                  

Atom      Orb        Charge      Spin       Svec
----------------------------------------------------------------
    3  1 3s         0.55112   0.00000     -0.000   0.000   0.000
    3  2 3s         0.38750   0.00000      0.000  -0.000   0.000
    3  3 3py        0.08154   0.00000      0.000  -0.000   0.000
    3  4 3pz        0.53519   0.00000     -0.000  -0.000   0.000
    3  5 3px        0.36828   0.00000      0.000  -0.000   0.000
    3  6 3py        0.49926   0.00000     -0.000   0.000   0.000
    3  7 3pz        0.17607   0.00000      0.000  -0.000   0.000
    3  8 3px        0.23723   0.00000     -0.000   0.000   0.000
    3  9 3Pdxy      0.10814   0.00000     -0.000   0.000   0.000
    3 10 3Pdyz      0.05203   0.00000     -0.000  -0.000   0.000
    3 11 3Pdz2      0.01014   0.00000      0.000   0.000   0.000
    3 12 3Pdxz      0.13292   0.00000      0.000   0.000   0.000
    3 13 3Pdx2-y2   0.32436   0.00000      0.000  -0.000   0.000
    3     Total     3.46377   0.00000      0.000  -0.000   0.000

    6  1 3s         0.66182   0.00000      0.000  -0.000   0.000
    6  2 3s         0.37047   0.00000     -0.000   0.000   0.000
    6  3 3py        0.13105   0.00000     -0.000  -0.000  -0.000
    6  4 3pz        0.69463   0.00000     -0.000   0.000  -0.000
    6  5 3px        0.49059   0.00000      0.000  -0.000   0.000
    6  6 3py        0.46528   0.00000      0.000  -0.000   0.000
    6  7 3pz        0.24296   0.00000      0.000  -0.000   0.000
    6  8 3px        0.24558   0.00000     -0.000   0.000   0.000
    6  9 3Pdxy      0.18508   0.00000     -0.000   0.000   0.000
    6 10 3Pdyz      0.14728   0.00000      0.000   0.000  -0.000
    6 11 3Pdz2      0.01171   0.00000     -0.000   0.000   0.000
    6 12 3Pdxz      0.03651   0.00000      0.000   0.000  -0.000
    6 13 3Pdx2-y2   0.18880   0.00000      0.000   0.000   0.000
    6     Total     3.87178   0.00000      0.000  -0.000   0.000

    7  1 3s         0.62622   0.00000      0.000   0.000   0.000
    7  2 3s         0.36988   0.00000     -0.000  -0.000  -0.000
    7  3 3py        0.37240   0.00000     -0.000   0.000   0.000
    7  4 3pz        0.49260   0.00000     -0.000  -0.000  -0.000
    7  5 3px        0.08015   0.00000     -0.000   0.000   0.000
    7  6 3py        0.30340   0.00000      0.000  -0.000   0.000
    7  7 3pz        0.20863   0.00000     -0.000   0.000  -0.000
    7  8 3px        0.42164   0.00000      0.000  -0.000   0.000
    7  9 3Pdxy      0.20444   0.00000      0.000   0.000   0.000
    7 10 3Pdyz      0.14273   0.00000     -0.000   0.000  -0.000
    7 11 3Pdz2      0.01065   0.00000      0.000  -0.000  -0.000
    7 12 3Pdxz      0.15007   0.00000      0.000   0.000   0.000
    7 13 3Pdx2-y2   0.24201   0.00000     -0.000   0.000   0.000
    7     Total     3.62480   0.00000     -0.000   0.000   0.000

   12  1 3s         0.52690   0.00000      0.000  -0.000   0.000
   12  2 3s         0.40232   0.00000     -0.000   0.000  -0.000
   12  3 3py        0.22979   0.00000      0.000  -0.000   0.000
   12  4 3pz        0.43822   0.00000      0.000  -0.000   0.000
   12  5 3px        0.29011   0.00000      0.000  -0.000   0.000
   12  6 3py        0.39457   0.00000     -0.000  -0.000   0.000
   12  7 3pz        0.17080   0.00000     -0.000  -0.000   0.000
   12  8 3px        0.34393   0.00000     -0.000   0.000   0.000
   12  9 3Pdxy      0.38722   0.00000     -0.000   0.000   0.000
   12 10 3Pdyz      0.08018   0.00000     -0.000  -0.000   0.000
   12 11 3Pdz2      0.01044   0.00000     -0.000   0.000   0.000
   12 12 3Pdxz      0.09250   0.00000     -0.000  -0.000   0.000
   12 13 3Pdx2-y2   0.16490   0.00000      0.000  -0.000   0.000
   12     Total     3.53188   0.00000      0.000  -0.000   0.000

   15  1 3s         0.66096   0.00000     -0.000   0.000   0.000
   15  2 3s         0.36715   0.00000      0.000  -0.000   0.000
   15  3 3py       -0.03265   0.00000     -0.000   0.000   0.000
   15  4 3pz        0.51021   0.00000     -0.000  -0.000   0.000
   15  5 3px        0.38863   0.00000     -0.000  -0.000   0.000
   15  6 3py        0.47453   0.00000      0.000  -0.000   0.000
   15  7 3pz        0.20041   0.00000      0.000   0.000   0.000
   15  8 3px        0.34013   0.00000      0.000   0.000   0.000
   15  9 3Pdxy      0.14151   0.00000      0.000  -0.000   0.000
   15 10 3Pdyz      0.12584   0.00000      0.000   0.000   0.000
   15 11 3Pdz2      0.01383   0.00000      0.000  -0.000   0.000
   15 12 3Pdxz      0.12448   0.00000      0.000   0.000  -0.000
   15 13 3Pdx2-y2   0.30180   0.00000     -0.000   0.000   0.000
   15     Total     3.61684   0.00000     -0.000   0.000   0.000

   17  1 3s         0.73209   0.00000     -0.000  -0.000   0.000
   17  2 3s         0.35613   0.00000      0.000   0.000   0.000
   17  3 3py        0.09641   0.00000      0.000   0.000   0.000
   17  4 3pz        0.62741   0.00000      0.000   0.000  -0.000
   17  5 3px        0.35561   0.00000     -0.000  -0.000   0.000
   17  6 3py        0.45268   0.00000     -0.000  -0.000   0.000
   17  7 3pz        0.15073   0.00000     -0.000   0.000   0.000
   17  8 3px        0.33531   0.00000      0.000   0.000   0.000
   17  9 3Pdxy      0.15132   0.00000      0.000  -0.000   0.000
   17 10 3Pdyz      0.02343   0.00000      0.000   0.000  -0.000
   17 11 3Pdz2      0.00921   0.00000     -0.000  -0.000  -0.000
   17 12 3Pdxz      0.12866   0.00000     -0.000   0.000  -0.000
   17 13 3Pdx2-y2   0.12695   0.00000     -0.000  -0.000  -0.000
   17     Total     3.54595   0.00000      0.000   0.000   0.000

   19  1 3s         0.86238   0.00000      0.000   0.000   0.000
   19  2 3s         0.31307   0.00000     -0.000  -0.000  -0.000
   19  3 3py        0.44668   0.00000     -0.000  -0.000   0.000
   19  4 3pz        0.66008   0.00000     -0.000  -0.000   0.000
   19  5 3px        0.35315   0.00000     -0.000  -0.000   0.000
   19  6 3py        0.32181   0.00000      0.000   0.000  -0.000
   19  7 3pz        0.26789   0.00000      0.000  -0.000   0.000
   19  8 3px        0.35634   0.00000      0.000   0.000  -0.000
   19  9 3Pdxy      0.09360   0.00000     -0.000   0.000   0.000
   19 10 3Pdyz      0.02943   0.00000      0.000  -0.000   0.000
   19 11 3Pdz2      0.01455   0.00000      0.000  -0.000  -0.000
   19 12 3Pdxz      0.05653   0.00000     -0.000  -0.000   0.000
   19 13 3Pdx2-y2   0.13123   0.00000     -0.000   0.000   0.000
   19     Total     3.90674   0.00000     -0.000  -0.000   0.000

   20  1 3s         0.54046   0.00000      0.000  -0.000   0.000
   20  2 3s         0.44403   0.00000     -0.000   0.000   0.000
   20  3 3py        0.31077   0.00000      0.000   0.000   0.000
   20  4 3pz        0.25491   0.00000      0.000   0.000   0.000
   20  5 3px        0.45523   0.00000     -0.000   0.000   0.000
   20  6 3py        0.38734   0.00000     -0.000  -0.000   0.000
   20  7 3pz        0.42303   0.00000     -0.000   0.000   0.000
   20  8 3px        0.27763   0.00000      0.000  -0.000   0.000
   20  9 3Pdxy      0.06995   0.00000     -0.000   0.000  -0.000
   20 10 3Pdyz      0.08428   0.00000     -0.000  -0.000   0.000
   20 11 3Pdz2      0.05091   0.00000      0.000   0.000  -0.000
   20 12 3Pdxz      0.07242   0.00000      0.000  -0.000   0.000
   20 13 3Pdx2-y2   0.04586   0.00000      0.000  -0.000  -0.000
   20     Total     3.41683   0.00000      0.000   0.000   0.000

   24  1 3s         0.60602   0.00000      0.000   0.000   0.000
   24  2 3s         0.36933   0.00000     -0.000  -0.000  -0.000
   24  3 3py        0.27094   0.00000     -0.000   0.000  -0.000
   24  4 3pz        0.41037   0.00000     -0.000   0.000   0.000
   24  5 3px        0.16848   0.00000      0.000   0.000   0.000
   24  6 3py        0.39794   0.00000      0.000  -0.000   0.000
   24  7 3pz        0.19293   0.00000      0.000  -0.000   0.000
   24  8 3px        0.36017   0.00000     -0.000  -0.000   0.000
   24  9 3Pdxy      0.14195   0.00000      0.000  -0.000   0.000
   24 10 3Pdyz      0.14013   0.00000      0.000  -0.000   0.000
   24 11 3Pdz2      0.01534   0.00000     -0.000   0.000   0.000
   24 12 3Pdxz      0.12087   0.00000     -0.000   0.000   0.000
   24 13 3Pdx2-y2   0.34954   0.00000     -0.000  -0.000   0.000
   24     Total     3.54401   0.00000      0.000   0.000   0.000

   28  1 3s         0.43396   0.00000      0.000  -0.000   0.000
   28  2 3s         0.37755   0.00000     -0.000   0.000  -0.000
   28  3 3py        0.16163   0.00000     -0.000  -0.000   0.000
   28  4 3pz        0.40000   0.00000     -0.000   0.000   0.000
   28  5 3px        0.16686   0.00000     -0.000  -0.000   0.000
   28  6 3py        0.36811   0.00000      0.000   0.000   0.000
   28  7 3pz        0.20454   0.00000      0.000  -0.000   0.000
   28  8 3px        0.38558   0.00000      0.000  -0.000   0.000
   28  9 3Pdxy      0.14391   0.00000     -0.000  -0.000   0.000
   28 10 3Pdyz      0.12403   0.00000      0.000   0.000   0.000
   28 11 3Pdz2      0.01563   0.00000      0.000  -0.000   0.000
   28 12 3Pdxz      0.15665   0.00000      0.000  -0.000   0.000
   28 13 3Pdx2-y2   0.35162   0.00000     -0.000  -0.000   0.000
   28     Total     3.29008   0.00000     -0.000  -0.000   0.000

----------------------------------------------------------------
Total              85.08329   0.00000      0.000   0.000   0.000


Species: O                   

Atom      Orb        Charge      Spin       Svec
----------------------------------------------------------------
   25  1 2s         1.73850   0.00000     -0.000  -0.000   0.000
   25  2 2s         0.07154   0.00000      0.000   0.000  -0.000
   25  3 2py        1.46277   0.00000      0.000  -0.000  -0.000
   25  4 2pz        1.50776   0.00000     -0.000  -0.000   0.000
   25  5 2px        1.58913   0.00000     -0.000   0.000  -0.000
   25  6 2py        0.03585   0.00000      0.000   0.000   0.000
   25  7 2pz        0.00106   0.00000      0.000   0.000   0.000
   25  8 2px        0.02437   0.00000      0.000  -0.000  -0.000
   25  9 3Pdxy      0.00727   0.00000     -0.000   0.000   0.000
   25 10 3Pdyz      0.00624   0.00000      0.000  -0.000  -0.000
   25 11 3Pdz2      0.00138   0.00000      0.000  -0.000  -0.000
   25 12 3Pdxz      0.00443   0.00000      0.000   0.000  -0.000
   25 13 3Pdx2-y2   0.00747   0.00000     -0.000  -0.000  -0.000
   25     Total     6.45777   0.00000      0.000  -0.000  -0.000

   29  1 2s         1.73772   0.00000     -0.000   0.000  -0.000
   29  2 2s         0.07099   0.00000      0.000  -0.000   0.000
   29  3 2py        1.48324   0.00000      0.000   0.000  -0.000
   29  4 2pz        1.52843   0.00000     -0.000   0.000   0.000
   29  5 2px        1.52529   0.00000      0.000   0.000  -0.000
   29  6 2py        0.04175   0.00000     -0.000  -0.000  -0.000
   29  7 2pz        0.00503   0.00000      0.000  -0.000   0.000
   29  8 2px        0.03799   0.00000     -0.000   0.000   0.000
   29  9 3Pdxy      0.00816   0.00000     -0.000   0.000   0.000
   29 10 3Pdyz      0.00484   0.00000      0.000  -0.000   0.000
   29 11 3Pdz2      0.00138   0.00000      0.000   0.000   0.000
   29 12 3Pdxz      0.00628   0.00000     -0.000   0.000  -0.000
   29 13 3Pdx2-y2   0.00784   0.00000     -0.000   0.000   0.000
   29     Total     6.45894   0.00000     -0.000   0.000   0.000

----------------------------------------------------------------
Total              98.00000   0.00000      0.000  -0.000   0.000


siesta: Eigenvalues (eV):
ik =     1
  -22.9374  -22.9374  -22.5273  -22.5273  -21.9794  -21.9794  -21.2615  -21.2615  -21.0999  -21.0999
  -20.8466  -20.8466  -19.5093  -19.5093  -19.3196  -19.3196  -18.7156  -18.7156  -15.3106  -15.3106
  -14.3742  -14.3742  -13.7055  -13.7055  -13.6852  -13.6852  -13.3007  -13.3007  -12.9908  -12.9908
  -12.5850  -12.5850  -12.1036  -12.1036  -12.0300  -12.0300  -11.6262  -11.6262  -11.5030  -11.5030
  -11.0163  -11.0163  -10.7620  -10.7620  -10.2884  -10.2884   -9.8312   -9.8312   -9.5739   -9.5739
   -9.3294   -9.3294   -9.2137   -9.2137   -9.1836   -9.1836   -8.9166   -8.9166   -8.7221   -8.7221
   -8.3955   -8.3955   -8.2714   -8.2714   -8.2229   -8.2229   -8.1292   -8.1292   -8.0178   -8.0178
   -7.9056   -7.9056   -7.4253   -7.4253   -7.4197   -7.4197   -7.3142   -7.3142   -6.8405   -6.8405
   -6.8284   -6.8284   -6.6419   -6.6419   -6.4703   -6.4703   -6.3542   -6.3542   -6.2037   -6.2037
   -5.9430   -5.9430   -5.8335   -5.8335   -5.6366   -5.6366   -4.3143   -4.3143   -3.7246   -3.7246
   -2.8416   -2.8416   -2.4669   -2.4669   -2.3013   -2.3013   -2.1791   -2.1791   -2.1293   -2.1293
   -1.9622   -1.9622   -1.7448   -1.7448   -1.6663   -1.6663   -1.5930   -1.5930   -1.4421   -1.4421
   -1.0944   -1.0944   -0.7112   -0.7112   -0.3938   -0.3938   -0.3190   -0.3190   -0.2582   -0.2582
   -0.2042   -0.2042   -0.0684   -0.0684    0.2680    0.2680    0.4085    0.4085    0.4877    0.4877
    0.5323    0.5323    0.7274    0.7274    1.0636    1.0636    1.2257    1.2257    1.2644    1.2644
    1.3328    1.3328    1.5414    1.5414    1.8466    1.8466    2.0499    2.0499    2.1293    2.1293
    2.4854    2.4854    2.6177    2.6177    2.7920    2.7920    2.7937    2.7937    2.8590    2.8590
    2.9779    2.9779    3.0412    3.0412    3.0768    3.0768    3.1371    3.1371    3.5715    3.5715
    3.6872    3.6872    3.9163    3.9163    4.1016    4.1016    4.2436    4.2436    4.3911    4.3911
    4.5147    4.5147    4.6089    4.6089    4.6541    4.6541    4.6764    4.6764    4.9915    4.9915
    5.0440    5.0440    5.1940    5.1940    5.4146    5.4146    5.5843    5.5843    5.8066    5.8066
    5.8457    5.8457    6.0181    6.0181    6.0515    6.0515    6.2679    6.2679    6.3730    6.3730
    6.5306    6.5306    6.6030    6.6030    6.7912    6.7912    6.9842    6.9842    7.0535    7.0535
    7.1584    7.1584    7.4890    7.4890    7.7051    7.7051    7.7160    7.7160    7.8945    7.8945
    7.9159    7.9159    8.2694    8.2694    8.2809    8.2809    8.3374    8.3374    8.4980    8.4980
    8.5440    8.5440    8.8854    8.8854    8.8980    8.8980    9.3087    9.3087    9.5940    9.5940
    9.6798    9.6798    9.8233    9.8233    9.8885    9.8885    9.8922    9.8922    9.9664    9.9664
   10.0011   10.0011   10.3747   10.3747   10.6464   10.6464   10.8870   10.8870   11.1218   11.1218
   11.3142   11.3142   11.3652   11.3652   11.4994   11.4994   11.6920   11.6920   11.7952   11.7952
   11.8701   11.8701   12.3065   12.3065   12.3855   12.3855   12.6720   12.6720   12.7347   12.7347
   12.9278   12.9278   13.0193   13.0193   13.2391   13.2391   13.2595   13.2595   13.4428   13.4428
   13.6401   13.6401   13.8834   13.8834   14.3601   14.3601   14.5136   14.5136   14.7309   14.7309
   14.7807   14.7807   15.0732   15.0732   15.5552   15.5552   16.0858   16.0858   16.3130   16.3130
   16.3673   16.3673   16.7897   16.7897   16.8830   16.8830   17.2325   17.2325   17.2868   17.2868
   17.8720   17.8720   18.0425   18.0425   18.3612   18.3612   18.5564   18.5564   18.6910   18.6910
   18.7581   18.7581   19.7787   19.7787   19.9643   19.9643   20.2896   20.2896   20.5941   20.5941
   20.9130   20.9130   21.0341   21.0341   21.2629   21.2629   21.4108   21.4108   22.2023   22.2023
   22.4497   22.4497   22.8070   22.8070   22.9669   22.9669   23.0186   23.0186   23.0658   23.0658
   24.2284   24.2284   24.6269   24.6269   25.1066   25.1066   25.5758   25.5758   25.8852   25.8852
   26.1322   26.1322   26.5831   26.5831   27.0469   27.0469   27.9380   27.9380   28.1562   28.1562
   28.4632   28.4632   28.5233   28.5233   29.8526   29.8526   29.8899   29.8899   30.5020   30.5020
   30.7598   30.7598   30.8279   30.8279   31.2817   31.2817   31.4198   31.4198   31.6983   31.6983
   31.7482   31.7482   32.3630   32.3630   32.3710   32.3710   33.4562   33.4562   33.6155   33.6155
   34.0074   34.0074   34.2633   34.2633   34.4988   34.4988   34.8734   34.8734   35.4667   35.4667
   35.8949   35.8949   36.0775   36.0775   36.3923   36.3923   37.1635   37.1635   37.5901   37.5901
   37.6082   37.6082   37.6675   37.6675   38.4720   38.4720   38.8368   38.8368   38.9608   38.9608
   39.8954   39.8954   40.4318   40.4318   40.7050   40.7050   41.3648   41.3648   41.6244   41.6244
   41.7367   41.7367   41.8607   41.8607   42.0265   42.0265   42.8978   42.8978   43.2618   43.2618
   43.8535   43.8535   44.4693   44.4693   44.7273   44.7273   44.9048   44.9048   45.2189   45.2189
   45.2330   45.2330   45.8539   45.8539   46.4340   46.4340   46.5532   46.5532   47.1563   47.1563
   47.6291   47.6291   48.0103   48.0103   48.5597   48.5597   48.8026   48.8026   49.2048   49.2048
   49.8821   49.8821   50.2066   50.2066   50.4251   50.4251   50.5937   50.5937   50.6656   50.6656
   51.8609   51.8609   52.2619   52.2619   53.9727   53.9727   54.0534   54.0534   54.9228   54.9228
   55.0469   55.0469   55.5205   55.5205   56.3211   56.3211   56.3804   56.3804   56.5091   56.5091
   56.8623   56.8623   57.5410   57.5410   58.5460   58.5460   59.0226   59.0226   59.6524   59.6524
   60.2293   60.2293   61.1864   61.1864   61.5977   61.5977   62.1699   62.1699   62.8211   62.8211
   65.5977   65.5977   66.3498   66.3498   67.1043   67.1043   67.2486   67.2486   68.1508   68.1508
   68.8094   68.8094   71.3820   71.3820   73.6197   73.6197   78.6851   78.6851   91.3878   91.3878
   92.4577   92.4577   92.9125   92.9125   95.5582   95.5582   97.6429   97.6429  100.4042  100.4042
  100.6293  100.6293  102.9626  102.9626  113.3320  113.3320  120.3483  120.3483  123.0210  123.0210
  135.5902  135.5902  140.4126  140.4126
siesta: Fermi energy =      -4.019479 eV

siesta: Program's energy decomposition (eV):
siesta: Ebs     =     -1120.832464
siesta: Eions   =      3553.971015
siesta: Ena     =       377.805314
siesta: Ekin    =      2751.411743
siesta: Enl     =     -2532.193460
siesta: Eso     =        -0.004697
siesta: Edftu   =         0.000000
siesta: DEna    =        37.123849
siesta: DUscf   =        14.134201
siesta: DUext   =         0.000000
siesta: Exc     =     -1093.068668
siesta: eta*DQ  =         0.000000
siesta: Emadel  =         0.000000
siesta: Emeta   =         0.000000
siesta: Emolmec =         0.000000
siesta: Ekinion =         0.000000
siesta: Eharris =     -3998.762732
siesta: Etot    =     -3998.762732
siesta: FreeEng =     -3998.762746

siesta: Final energy (eV):
siesta:  Band Struct. =   -1120.832464
siesta:       Kinetic =    2751.411743
siesta:       Hartree =    6955.794999
siesta:       Edftu   =       0.000000
siesta:       Eso     =      -0.004697
siesta:    Ext. field =       0.000000
siesta:   Exch.-corr. =   -1093.068668
siesta:  Ion-electron =  -16365.208707
siesta:       Ion-ion =    3752.312598
siesta:       Ekinion =       0.000000
siesta:         Total =   -3998.762732
siesta:         Fermi =      -4.019479

siesta: Atomic forces (eV/Ang):
siesta:      1   -0.072682   -0.026697    0.000002
siesta:      2   -0.003679   -0.045720   -0.000002
siesta:      3   -0.003638    0.040591    0.000004
siesta:      4   -0.032803    0.022201    0.000001
siesta:      5    0.016320   -0.041368   -0.000003
siesta:      6    0.021273    0.004233   -0.000000
siesta:      7   -0.052907    0.103415    0.000004
siesta:      8    0.047469   -0.038172   -0.000013
siesta:      9    0.081371   -0.089551    0.000018
siesta:     10    0.122574    0.119650    0.000003
siesta:     11   -0.041200   -0.038666   -0.000005
siesta:     12    0.035252    0.059066    0.000001
siesta:     13   -0.088737   -0.199531   -0.000000
siesta:     14   -0.009108   -0.058582    0.000000
siesta:     15    0.000541    0.065438   -0.000000
siesta:     16   -0.004190    0.094771    0.007993
siesta:     17   -0.011673   -0.042570   -0.039734
siesta:     18    0.032618    0.186014    0.008228
siesta:     19    0.008126    0.030547   -0.041262
siesta:     20    0.042409   -0.055486    0.026381
siesta:     21   -0.030692    0.219721    0.062060
siesta:     22    0.011286   -0.005812    0.026416
siesta:     23   -0.035668    0.001587   -0.051137
siesta:     24    0.027386   -0.111291   -0.026624
siesta:     25   -1.194822   -2.917552    0.003208
siesta:     26   -0.028325    0.061790    0.006534
siesta:     27   -0.011092   -0.068901    0.002784
siesta:     28    0.000161   -0.112597   -0.000872
siesta:     29    1.220429    4.245883   -0.001086
siesta:     30   -0.063039    0.303728    0.008279
siesta: ----------------------------------------
siesta:    Tot   -0.017041    1.706138   -0.008825

siesta: Stress tensor (static) (eV/Ang**3):
siesta:    -0.000980    0.000174    0.000028
siesta:     0.000174   -0.000319   -0.000026
siesta:     0.000028   -0.000026   -0.000131

siesta: Cell volume =       4689.400118 Ang**3

siesta: Pressure (static):
siesta:                Solid            Molecule  Units
siesta:           0.00000519         -0.00000614  Ry/Bohr**3
siesta:           0.00047671         -0.00056355  eV/Ang**3
siesta:           0.76378296         -0.90291332  kBar
(Free)E+ p_basis*V_orbitals  =       -3977.634661
(Free)Eharris+ p_basis*V_orbitals  =       -3977.634661
     spin moment: S , {S} =    0.00000   0.00000  -0.00000   0.00000

siesta: Electric dipole (a.u.)  =   -0.323858    2.531752   -0.012894
siesta: Electric dipole (Debye) =   -0.823166    6.435077   -0.032774

cite: Please see "AT.bib" for an exhaustive BiBTeX file.
cite: Please clearly indicate Siesta version in published work: v4.1.5-1-g384057250
cite: This calculation has made use of the following articles
cite: which are encouraged to be cited in a published work.
        Primary SIESTA paper
          DOI: www.doi.org/10.1088/0953-8984/14/11/302
        Spin-orbit coupling (on-site approximation)
          DOI: www.doi.org/10.1088/0953-8984/19/19/489001


WARNING: alloc-realloc-dealloc name mismatch
         Name: atomlist isa
         Size:              -120. Bytes
         Node:     0
         Subsequent mismatches will not be reported
>> End of run:  22-MAY-2023  10:45:06
Job completed
