Siesta Version  : v4.1.5-1-g384057250
Architecture    : unknown
Compiler version: GNU Fortran (Debian 6.3.0-18+deb9u1) 6.3.0 20170516
Compiler flags  : mpifort -O2 -fPIC -ftree-vectorize
PP flags        : -DFC_HAVE_ABORT -DMPI -DSIESTA__FLOOK -DSIESTA__METIS -DSIESTA__MUMPS -DCDF -DNCDF -DNCDF_4 -DNCDF_PARALLEL -DSIESTA__TIME -DSIESTA__ELPA -DSIESTA__DIAG_2STAGE
Libraries       : libncdf.a libfdict.a libsiestaLAPACK.a libsiestaBLAS.a -lscalapack-openmpi -lz -lflookall -ldl -lmetis -lzmumps -lcmumps -ldmumps -lmumps_common -lpord -lsmumps -lesmumps -lscotch -lscotcherr -fopenmp -lnetcdff -lnetcdf -lhdf5_hl -lhdf5 -lhdf5_fortran -lelpa -llapack -lblas -lblacs-openmpi
PARALLEL version
NetCDF support
NetCDF-4 support
NetCDF-4 MPI-IO support
METIS ordering support
Lua support

* Running on 32 nodes in parallel
>> Start of run:  19-FEB-2022  20:02:36

                           ***********************       
                           *  WELCOME TO SIESTA  *       
                           ***********************       

reinit: Reading from standard input
reinit: Dumped input in INPUT_TMP.77025
************************** Dump of input data file ****************************
# Created by GDIS version 0.90.0
#
SystemLabel      C
NumberOfAtoms    13
NumberOfSpecies  4
%block ChemicalSpeciesLabel
    1    1  H
    2    7  N
    3   14  Si
    4    8  O
%endblock ChemicalSpeciesLabel
AtomicCoordinatesFormat NotScaledCartesianAng
%block AtomicCoordinatesAndAtomicSpecies
    1.07571200    3.82916874    0.00000000   1       1  H
    0.45886177    2.96529489   -0.00000000   2       2  N
   -1.29350027    3.24938905    0.00000000   3       3  Si
   -1.65166164    4.70451468   -0.00000000   1       4  H
   -2.72508540    1.60321315   -0.00000000   3       5  Si
   -4.21691642    1.74148542    0.00000000   1       6  H
   -1.33000544   -0.14636172    0.00000000   3       7  Si
   -2.01380705   -1.75466429    0.00000000   2       8  N
   -1.40609867   -2.61295866   -0.00000000   1       9  H
   -3.05571330   -1.91711525    0.00000000   1      10  H
    0.35466701   -0.01492098   -0.00000000   2      11  N
    1.38085443    1.37498623    0.00000000   3      12  Si
    2.97283730    1.48016461   -0.00000000   4      13  O
%endblock AtomicCoordinatesAndAtomicSpecies
%include ../defaults.fdf
************************** End of input data file *****************************

reinit: -----------------------------------------------------------------------
reinit: System Name: 
reinit: -----------------------------------------------------------------------
reinit: System Label: C
reinit: -----------------------------------------------------------------------

initatom: Reading input for the pseudopotentials and atomic orbitals ----------
Species number:   1 Atomic number:    1 Label: H
Species number:   2 Atomic number:    7 Label: N
Species number:   3 Atomic number:   14 Label: Si
Species number:   4 Atomic number:    8 Label: O

Ground state valence configuration:   1s01
Reading pseudopotential information in formatted form from H.psf

Pseudopotential generated from a relativistic atomic calculation

Valence configuration for pseudopotential generation:
1s( 1.00) rc: 0.01
2p( 0.00) rc: 0.60
3d( 0.00) rc: 1.99
4f( 0.00) rc: 2.49
Ground state valence configuration:   2s02  2p03
Reading pseudopotential information in formatted form from N.psf

Pseudopotential generated from a relativistic atomic calculation

Valence configuration for pseudopotential generation:
2s( 2.00) rc: 0.94
2p( 3.00) rc: 0.59
3d( 0.00) rc: 3.46
4f( 0.00) rc: 2.47
Ground state valence configuration:   3s02  3p02
Reading pseudopotential information in formatted form from Si.psf

Pseudopotential generated from a relativistic atomic calculation

Valence configuration for pseudopotential generation:
3s( 2.00) rc: 1.67
3p( 2.00) rc: 2.04
3d( 0.00) rc: 2.89
4f( 0.00) rc: 0.25
Ground state valence configuration:   2s02  2p04
Reading pseudopotential information in formatted form from O.psf

Pseudopotential generated from a relativistic atomic calculation

Valence configuration for pseudopotential generation:
2s( 2.00) rc: 0.45
2p( 4.00) rc: 0.92
3d( 0.00) rc: 2.24
4f( 0.00) rc: 0.25
For H, standard SIESTA heuristics set lmxkb to 2
 (one more than the basis l, including polarization orbitals).
Use PS.lmax or PS.KBprojectors blocks to override.
For N, standard SIESTA heuristics set lmxkb to 3
 (one more than the basis l, including polarization orbitals).
Use PS.lmax or PS.KBprojectors blocks to override.
For Si, standard SIESTA heuristics set lmxkb to 3
 (one more than the basis l, including polarization orbitals).
Use PS.lmax or PS.KBprojectors blocks to override.
For O, standard SIESTA heuristics set lmxkb to 3
 (one more than the basis l, including polarization orbitals).
Use PS.lmax or PS.KBprojectors blocks to override.

<basis_specs>
===============================================================================
H                    Z=   1    Mass=  1.0100        Charge= 0.17977+309
Lmxo=0 Lmxkb= 2    BasisType=split      Semic=F
L=0  Nsemic=0  Cnfigmx=1
          i=1  nzeta=2  polorb=1  (1s)
            splnorm:   0.62000    
               vcte:    0.0000    
               rinn:    0.0000    
               qcoe:    0.0000    
               qyuk:    0.0000    
               qwid:   0.10000E-01
                rcs:    0.0000      0.0000    
            lambdas:    1.0000      1.0000    
-------------------------------------------------------------------------------
L=0  Nkbl=1  erefs: 0.17977+309
L=1  Nkbl=1  erefs: 0.17977+309
L=2  Nkbl=1  erefs: 0.17977+309
===============================================================================
</basis_specs>

atom: Called for H                     (Z =   1)

read_vps: Pseudopotential generation method:
read_vps: ATM4.2.7  Troullier-Martins                       
Valence charge for ps generation:    1.00000

xc_check: Exchange-correlation functional:
xc_check: GGA Perdew, Burke & Ernzerhof 1996
V l=0 = -2*Zval/r beyond r=  0.0098
V l=1 = -2*Zval/r beyond r=  0.5817
V l=2 = -2*Zval/r beyond r=  1.9372
All V_l potentials equal beyond r=  1.9372
This should be close to max(r_c) in ps generation
All pots = -2*Zval/r beyond r=  1.9372

VLOCAL1: 99.0% of the norm of Vloc inside     11.567 Ry
VLOCAL1: 99.9% of the norm of Vloc inside     26.362 Ry
atom: Maximum radius for 4*pi*r*r*local-pseudopot. charge    2.25106
atom: Maximum radius for r*vlocal+2*Zval:    1.91306
GHOST: No ghost state for L =  0
GHOST: No ghost state for L =  1
GHOST: No ghost state for L =  2

KBgen: Kleinman-Bylander projectors: 
   l= 0   rc=  2.036604   el= -0.477180   Ekb= -6.081590   kbcos= -0.277285
   l= 1   rc=  2.195416   el=  0.001076   Ekb= -0.926943   kbcos= -0.034643
   l= 2   rc=  2.251056   el=  0.002010   Ekb= -0.130941   kbcos= -0.009788

KBgen: Total number of Kleinman-Bylander projectors:    9
atom: -------------------------------------------------------------------------

atom: SANKEY-TYPE ORBITALS:
atom: Selected multiple-zeta basis: split     

SPLIT: Orbitals with angular momentum L= 0

SPLIT: Basis orbitals for state 1s

SPLIT: PAO cut-off radius determined from an
SPLIT: energy shift=  0.002000 Ry

   izeta = 1
                 lambda =    1.000000
                     rc =    6.518340
                 energy =   -0.475305
                kinetic =    0.912139
    potential(screened) =   -1.387444
       potential(ionic) =   -1.907295

   izeta = 2
                 rmatch =    2.141150
              splitnorm =    0.620000
                 energy =    0.566467
                kinetic =    3.772856
    potential(screened) =   -3.206389
       potential(ionic) =   -3.759093

POLgen: Perturbative polarization orbital with L=  1

POLgen: Polarization orbital for state 1s

   izeta = 1
                     rc =    6.518340
                 energy =    0.533861
                kinetic =    1.121086
    potential(screened) =   -0.587225
       potential(ionic) =   -1.053027
atom: Total number of Sankey-type orbitals:  5

atm_pop: Valence configuration (for local Pseudopot. screening):
 1s( 1.00)                                                            
Vna: chval, zval:    1.00000   1.00000

Vna:  Cut-off radius for the neutral-atom potential:   6.518340

atom: _________________________________________________________________________

<basis_specs>
===============================================================================
N                    Z=   7    Mass=  14.010        Charge= 0.17977+309
Lmxo=1 Lmxkb= 3    BasisType=split      Semic=F
L=0  Nsemic=0  Cnfigmx=2
          i=1  nzeta=2  polorb=0  (2s)
            splnorm:   0.28000    
               vcte:    0.0000    
               rinn:    0.0000    
               qcoe:    0.0000    
               qyuk:    0.0000    
               qwid:   0.10000E-01
                rcs:    0.0000      0.0000    
            lambdas:    1.0000      1.0000    
L=1  Nsemic=0  Cnfigmx=2
          i=1  nzeta=2  polorb=1  (2p)
            splnorm:   0.28000    
               vcte:    0.0000    
               rinn:    0.0000    
               qcoe:    0.0000    
               qyuk:    0.0000    
               qwid:   0.10000E-01
                rcs:    0.0000      0.0000    
            lambdas:    1.0000      1.0000    
-------------------------------------------------------------------------------
L=0  Nkbl=1  erefs: 0.17977+309
L=1  Nkbl=1  erefs: 0.17977+309
L=2  Nkbl=1  erefs: 0.17977+309
L=3  Nkbl=1  erefs: 0.17977+309
===============================================================================
</basis_specs>

atom: Called for N                     (Z =   7)

read_vps: Pseudopotential generation method:
read_vps: ATM4.2.7  Troullier-Martins                       
Valence charge for ps generation:    5.00000

xc_check: Exchange-correlation functional:
xc_check: GGA Perdew, Burke & Ernzerhof 1996
V l=0 = -2*Zval/r beyond r=  1.2889
V l=1 = -2*Zval/r beyond r=  1.2889
V l=2 = -2*Zval/r beyond r=  3.4178
V l=3 = -2*Zval/r beyond r=  2.4084
All V_l potentials equal beyond r=  3.3753
This should be close to max(r_c) in ps generation
All pots = -2*Zval/r beyond r=  3.4178

VLOCAL1: 99.0% of the norm of Vloc inside      3.810 Ry
VLOCAL1: 99.9% of the norm of Vloc inside      8.683 Ry
atom: Maximum radius for 4*pi*r*r*local-pseudopot. charge    4.02088
atom: Maximum radius for r*vlocal+2*Zval:    3.54838
GHOST: No ghost state for L =  0
GHOST: No ghost state for L =  1
GHOST: No ghost state for L =  2
GHOST: No ghost state for L =  3

KBgen: Kleinman-Bylander projectors: 
   l= 0   rc=  3.417763   el= -1.365098   Ekb= -4.433130   kbcos= -0.707855
   l= 1   rc=  3.375302   el= -0.521201   Ekb=-13.264039   kbcos= -0.535594
   l= 2   rc=  3.872880   el=  0.001991   Ekb= -0.641094   kbcos= -0.062456
   l= 3   rc=  3.970931   el=  0.003093   Ekb= -0.474517   kbcos= -0.018236

KBgen: Total number of Kleinman-Bylander projectors:   16
atom: -------------------------------------------------------------------------

atom: SANKEY-TYPE ORBITALS:
atom: Selected multiple-zeta basis: split     

SPLIT: Orbitals with angular momentum L= 0

SPLIT: Basis orbitals for state 2s

SPLIT: PAO cut-off radius determined from an
SPLIT: energy shift=  0.002000 Ry

   izeta = 1
                 lambda =    1.000000
                     rc =    4.730425
                 energy =   -1.363399
                kinetic =    1.245246
    potential(screened) =   -2.608645
       potential(ionic) =   -8.121105

   izeta = 2
                 rmatch =    2.531849
              splitnorm =    0.280000
                 energy =   -0.959908
                kinetic =    2.409435
    potential(screened) =   -3.369343
       potential(ionic) =   -9.427975

SPLIT: Orbitals with angular momentum L= 1

SPLIT: Basis orbitals for state 2p

SPLIT: PAO cut-off radius determined from an
SPLIT: energy shift=  0.002000 Ry

   izeta = 1
                 lambda =    1.000000
                     rc =    5.924108
                 energy =   -0.519262
                kinetic =    3.672940
    potential(screened) =   -4.192202
       potential(ionic) =   -9.518354

   izeta = 2
                 rmatch =    2.531849
              splitnorm =    0.280000
                 energy =   -0.104258
                kinetic =    6.807538
    potential(screened) =   -6.911796
       potential(ionic) =  -13.149920

POLgen: Perturbative polarization orbital with L=  2

POLgen: Polarization orbital for state 2p

   izeta = 1
                     rc =    5.924108
                 energy =    1.427508
                kinetic =    2.872379
    potential(screened) =   -1.444871
       potential(ionic) =   -5.563644
atom: Total number of Sankey-type orbitals: 13

atm_pop: Valence configuration (for local Pseudopot. screening):
 2s( 2.00)                                                            
 2p( 3.00)                                                            
Vna: chval, zval:    5.00000   5.00000

Vna:  Cut-off radius for the neutral-atom potential:   5.924108

atom: _________________________________________________________________________

<basis_specs>
===============================================================================
Si                   Z=  14    Mass=  28.090        Charge= 0.17977+309
Lmxo=1 Lmxkb= 3    BasisType=split      Semic=F
L=0  Nsemic=0  Cnfigmx=3
          i=1  nzeta=2  polorb=0  (3s)
            splnorm:   0.28000    
               vcte:    0.0000    
               rinn:    0.0000    
               qcoe:    0.0000    
               qyuk:    0.0000    
               qwid:   0.10000E-01
                rcs:    0.0000      0.0000    
            lambdas:    1.0000      1.0000    
L=1  Nsemic=0  Cnfigmx=3
          i=1  nzeta=2  polorb=1  (3p)
            splnorm:   0.28000    
               vcte:    0.0000    
               rinn:    0.0000    
               qcoe:    0.0000    
               qyuk:    0.0000    
               qwid:   0.10000E-01
                rcs:    0.0000      0.0000    
            lambdas:    1.0000      1.0000    
-------------------------------------------------------------------------------
L=0  Nkbl=1  erefs: 0.17977+309
L=1  Nkbl=1  erefs: 0.17977+309
L=2  Nkbl=1  erefs: 0.17977+309
L=3  Nkbl=1  erefs: 0.17977+309
===============================================================================
</basis_specs>

atom: Called for Si                    (Z =  14)

read_vps: Pseudopotential generation method:
read_vps: ATM4.2.7  Troullier-Martins                       
Valence charge for ps generation:    4.00000

xc_check: Exchange-correlation functional:
xc_check: GGA Perdew, Burke & Ernzerhof 1996
V l=0 = -2*Zval/r beyond r=  2.7826
V l=1 = -2*Zval/r beyond r=  2.7826
V l=2 = -2*Zval/r beyond r=  2.9253
V l=3 = -2*Zval/r beyond r=  2.7826
All V_l potentials equal beyond r=  2.8530
This should be close to max(r_c) in ps generation
All pots = -2*Zval/r beyond r=  2.9253

VLOCAL1: 99.0% of the norm of Vloc inside      5.333 Ry
VLOCAL1: 99.9% of the norm of Vloc inside     12.154 Ry
atom: Maximum radius for 4*pi*r*r*local-pseudopot. charge    3.39869
atom: Maximum radius for r*vlocal+2*Zval:    2.96205
GHOST: No ghost state for L =  0
GHOST: No ghost state for L =  1
GHOST: No ghost state for L =  2
GHOST: No ghost state for L =  3

KBgen: Kleinman-Bylander projectors: 
   l= 0   rc=  3.075247   el= -0.794092   Ekb=  5.879390   kbcos=  0.167461
   l= 1   rc=  3.153101   el= -0.300068   Ekb=  2.642817   kbcos=  0.058301
   l= 2   rc=  3.273594   el=  0.001958   Ekb= -1.185135   kbcos= -0.104411
   l= 3   rc=  3.232927   el=  0.003046   Ekb= -1.061051   kbcos= -0.011037

KBgen: Total number of Kleinman-Bylander projectors:   16
atom: -------------------------------------------------------------------------

atom: SANKEY-TYPE ORBITALS:
atom: Selected multiple-zeta basis: split     

SPLIT: Orbitals with angular momentum L= 0

SPLIT: Basis orbitals for state 3s

SPLIT: PAO cut-off radius determined from an
SPLIT: energy shift=  0.002000 Ry

   izeta = 1
                 lambda =    1.000000
                     rc =    6.429618
                 energy =   -0.792283
                kinetic =    0.525293
    potential(screened) =   -1.317576
       potential(ionic) =   -3.744923

   izeta = 2
                 rmatch =    3.998416
              splitnorm =    0.280000
                 energy =   -0.583081
                kinetic =    1.069570
    potential(screened) =   -1.652651
       potential(ionic) =   -4.235185

SPLIT: Orbitals with angular momentum L= 1

SPLIT: Basis orbitals for state 3p

SPLIT: PAO cut-off radius determined from an
SPLIT: energy shift=  0.002000 Ry

   izeta = 1
                 lambda =    1.000000
                     rc =    8.464845
                 energy =   -0.298236
                kinetic =    0.785360
    potential(screened) =   -1.083596
       potential(ionic) =   -3.273779

   izeta = 2
                 rmatch =    4.587816
              splitnorm =    0.280000
                 energy =   -0.131871
                kinetic =    1.403687
    potential(screened) =   -1.535557
       potential(ionic) =   -4.015310

POLgen: Perturbative polarization orbital with L=  2

POLgen: Polarization orbital for state 3p

   izeta = 1
                     rc =    8.464845
                 energy =    0.321949
                kinetic =    1.055677
    potential(screened) =   -0.733728
       potential(ionic) =   -2.672950
atom: Total number of Sankey-type orbitals: 13

atm_pop: Valence configuration (for local Pseudopot. screening):
 3s( 2.00)                                                            
 3p( 2.00)                                                            
Vna: chval, zval:    4.00000   4.00000

Vna:  Cut-off radius for the neutral-atom potential:   8.464845

atom: _________________________________________________________________________

<basis_specs>
===============================================================================
O                    Z=   8    Mass=  16.000        Charge= 0.17977+309
Lmxo=1 Lmxkb= 3    BasisType=split      Semic=F
L=0  Nsemic=0  Cnfigmx=2
          i=1  nzeta=2  polorb=0  (2s)
            splnorm:   0.28000    
               vcte:    0.0000    
               rinn:    0.0000    
               qcoe:    0.0000    
               qyuk:    0.0000    
               qwid:   0.10000E-01
                rcs:    0.0000      0.0000    
            lambdas:    1.0000      1.0000    
L=1  Nsemic=0  Cnfigmx=2
          i=1  nzeta=2  polorb=1  (2p)
            splnorm:   0.28000    
               vcte:    0.0000    
               rinn:    0.0000    
               qcoe:    0.0000    
               qyuk:    0.0000    
               qwid:   0.10000E-01
                rcs:    0.0000      0.0000    
            lambdas:    1.0000      1.0000    
-------------------------------------------------------------------------------
L=0  Nkbl=1  erefs: 0.17977+309
L=1  Nkbl=1  erefs: 0.17977+309
L=2  Nkbl=1  erefs: 0.17977+309
L=3  Nkbl=1  erefs: 0.17977+309
===============================================================================
</basis_specs>

atom: Called for O                     (Z =   8)

read_vps: Pseudopotential generation method:
read_vps: ATM4.2.7  Troullier-Martins                       
Valence charge for ps generation:    6.00000

xc_check: Exchange-correlation functional:
xc_check: GGA Perdew, Burke & Ernzerhof 1996
V l=0 = -2*Zval/r beyond r=  1.1000
V l=1 = -2*Zval/r beyond r=  1.1000
V l=2 = -2*Zval/r beyond r=  2.2154
V l=3 = -2*Zval/r beyond r=  1.1000
All V_l potentials equal beyond r=  2.2154
This should be close to max(r_c) in ps generation
All pots = -2*Zval/r beyond r=  2.2154

VLOCAL1: 99.0% of the norm of Vloc inside      8.845 Ry
VLOCAL1: 99.9% of the norm of Vloc inside     20.157 Ry
atom: Maximum radius for 4*pi*r*r*local-pseudopot. charge    2.67231
atom: Maximum radius for r*vlocal+2*Zval:    2.32897
GHOST: No ghost state for L =  0
GHOST: No ghost state for L =  1
GHOST: No ghost state for L =  2
GHOST: No ghost state for L =  3

KBgen: Kleinman-Bylander projectors: 
   l= 0   rc=  2.243238   el= -1.759686   Ekb=**********   kbcos= -0.171774
   l= 1   rc=  2.328968   el= -0.663873   Ekb=-14.506792   kbcos= -0.519897
   l= 2   rc=  2.573941   el=  0.002031   Ekb= -1.137373   kbcos= -0.019581
   l= 3   rc=  2.606321   el=  0.003153   Ekb= -1.013546   kbcos= -0.003122

KBgen: Total number of Kleinman-Bylander projectors:   16
atom: -------------------------------------------------------------------------

atom: SANKEY-TYPE ORBITALS:
atom: Selected multiple-zeta basis: split     

SPLIT: Orbitals with angular momentum L= 0

SPLIT: Basis orbitals for state 2s

SPLIT: PAO cut-off radius determined from an
SPLIT: energy shift=  0.002000 Ry

   izeta = 1
                 lambda =    1.000000
                     rc =    4.243912
                 energy =   -1.758270
                kinetic =    3.286084
    potential(screened) =   -5.044353
       potential(ionic) =  -12.921184

   izeta = 2
                 rmatch =    2.187845
              splitnorm =    0.280000
                 energy =   -0.885018
                kinetic =    8.134434
    potential(screened) =   -9.019452
       potential(ionic) =  -17.710645

SPLIT: Orbitals with angular momentum L= 1

SPLIT: Basis orbitals for state 2p

SPLIT: PAO cut-off radius determined from an
SPLIT: energy shift=  0.002000 Ry

   izeta = 1
                 lambda =    1.000000
                     rc =    5.314825
                 energy =   -0.661986
                kinetic =    4.917472
    potential(screened) =   -5.579458
       potential(ionic) =  -13.236259

   izeta = 2
                 rmatch =    2.160663
              splitnorm =    0.280000
                 energy =   -0.068760
                kinetic =    9.183374
    potential(screened) =   -9.252135
       potential(ionic) =  -18.274251

POLgen: Perturbative polarization orbital with L=  2

POLgen: Polarization orbital for state 2p

   izeta = 1
                     rc =    5.314825
                 energy =    1.970580
                kinetic =    3.886128
    potential(screened) =   -1.915547
       potential(ionic) =   -7.749584
atom: Total number of Sankey-type orbitals: 13

atm_pop: Valence configuration (for local Pseudopot. screening):
 2s( 2.00)                                                            
 2p( 4.00)                                                            
Vna: chval, zval:    6.00000   6.00000

Vna:  Cut-off radius for the neutral-atom potential:   5.314825

atom: _________________________________________________________________________

prinput: Basis input ----------------------------------------------------------

PAO.BasisType split     

%block ChemicalSpeciesLabel
    1    1 H                       # Species index, atomic number, species label
    2    7 N                       # Species index, atomic number, species label
    3   14 Si                      # Species index, atomic number, species label
    4    8 O                       # Species index, atomic number, species label
%endblock ChemicalSpeciesLabel

%block PAO.Basis                 # Define Basis set
H                     1                    # Species label, number of l-shells
 n=1   0   2 P   1                   # n, l, Nzeta, Polarization, NzetaPol
   6.518      2.141   
   1.000      1.000   
N                     2                    # Species label, number of l-shells
 n=2   0   2                         # n, l, Nzeta 
   4.730      2.532   
   1.000      1.000   
 n=2   1   2 P   1                   # n, l, Nzeta, Polarization, NzetaPol
   5.924      2.532   
   1.000      1.000   
Si                    2                    # Species label, number of l-shells
 n=3   0   2                         # n, l, Nzeta 
   6.430      3.998   
   1.000      1.000   
 n=3   1   2 P   1                   # n, l, Nzeta, Polarization, NzetaPol
   8.465      4.588   
   1.000      1.000   
O                     2                    # Species label, number of l-shells
 n=2   0   2                         # n, l, Nzeta 
   4.244      2.188   
   1.000      1.000   
 n=2   1   2 P   1                   # n, l, Nzeta, Polarization, NzetaPol
   5.315      2.161   
   1.000      1.000   
%endblock PAO.Basis

prinput: ----------------------------------------------------------------------

Dumping basis to NetCDF file H.ion.nc
Dumping basis to NetCDF file N.ion.nc
Dumping basis to NetCDF file Si.ion.nc
Dumping basis to NetCDF file O.ion.nc
coor:   Atomic-coordinates input format  =     Cartesian coordinates
coor:                                          (in Angstroms)

siesta: Atomic coordinates (Bohr) and species
siesta:      2.03280   7.23608   0.00000  1        1
siesta:      0.86712   5.60360  -0.00000  2        2
siesta:     -2.44436   6.14046   0.00000  3        3
siesta:     -3.12119   8.89025  -0.00000  1        4
siesta:     -5.14967   3.02963  -0.00000  3        5
siesta:     -7.96882   3.29093   0.00000  1        6
siesta:     -2.51335  -0.27658   0.00000  3        7
siesta:     -3.80555  -3.31584   0.00000  2        8
siesta:     -2.65714  -4.93778  -0.00000  1        9
siesta:     -5.77446  -3.62282   0.00000  1       10
siesta:      0.67022  -0.02820  -0.00000  2       11
siesta:      2.60944   2.59835   0.00000  3       12
siesta:      5.61785   2.79711  -0.00000  4       13

siesta: Automatic unit cell vectors (Ang):
siesta:   14.879181    0.000000    0.000000
siesta:    0.000000   15.637803    0.000000
siesta:    0.000000    0.000000    9.854683

siesta: System type = molecule  

initatomlists: Number of atoms, orbitals, and projectors:     13   129   173

coxmol: Writing XMOL coordinates into file C.xyz                                                               

siesta: ******************** Simulation parameters ****************************
siesta:
siesta: The following are some of the parameters of the simulation.
siesta: A complete list of the parameters used, including default values,
siesta: can be found in file out.fdf
siesta:
redata: Spin configuration                          = collinear
redata: Number of spin components                   = 2
redata: Time-Reversal Symmetry                      = T
redata: Spin spiral                                 = F
redata: Long output                                 =   F
redata: Number of Atomic Species                    =        4
redata: Charge density info will appear in .RHO file
redata: Write Mulliken Pop.                         = Atomic and Orbital charges
redata: Matel table size (NRTAB)                    =     1024
redata: Mesh Cutoff                                 =   340.0000 Ry
redata: Net charge of the system                    =     0.0000 |e|
redata: Min. number of SCF Iter                     =        0
redata: Max. number of SCF Iter                     =      400
redata: SCF convergence failure will abort job
redata: SCF mix quantity                            = Hamiltonian
redata: Mix DM or H after convergence               =   F
redata: Recompute H after scf cycle                 =   F
redata: Mix DM in first SCF step                    =   T
redata: Write Pulay info on disk                    =   F
redata: New DM Occupancy tolerance                  = 0.000000000001
redata: No kicks to SCF
redata: DM Mixing Weight for Kicks                  =     0.5000
redata: Require Harris convergence for SCF          =   F
redata: Harris energy tolerance for SCF             =     0.000100 eV
redata: Require DM convergence for SCF              =   T
redata: DM tolerance for SCF                        =     0.000100
redata: Require EDM convergence for SCF             =   F
redata: EDM tolerance for SCF                       =     0.001000 eV
redata: Require H convergence for SCF               =   T
redata: Hamiltonian tolerance for SCF               =     0.001000 eV
redata: Require (free) Energy convergence for SCF   =   F
redata: (free) Energy tolerance for SCF             =     0.000100 eV
redata: Antiferro initial spin density              =   F
redata: Using Saved Data (generic)                  =   F
redata: Use continuation files for DM               =   F
redata: Neglect nonoverlap interactions             =   F
redata: Method of Calculation                       = Diagonalization
redata: Electronic Temperature                      =   299.9978 K
redata: Fix the spin of the system                  =   F
redata: Dynamics option                             = CG coord. optimization
redata: Variable cell                               =   F
redata: Use continuation files for CG               =   F
redata: Max atomic displ per move                   =     0.3000 Ang
redata: Maximum number of optimization moves        =      500
redata: Force tolerance                             =     0.0050 eV/Ang
mix.SCF: Pulay mixing                            = Pulay
mix.SCF:    Variant                              = stable
mix.SCF:    History steps                        = 18
mix.SCF:    Linear mixing weight                 =     0.250000
mix.SCF:    Mixing weight                        =     0.250000
mix.SCF:    SVD condition                        = 0.1000E-07
mix.SCF:    Restart steps                        = 36
mix.SCF:    Restart save steps                   = 6
mix.SCF: Spin-component mixing                   all
redata: Save all siesta data in one NC              =   F
redata: ***********************************************************************

%block SCF.Mixers
  Pulay
%endblock SCF.Mixers

%block SCF.Mixer.Pulay
  # Mixing method
  method pulay
  variant stable

  # Mixing options
  weight 0.2500
  weight.linear 0.2500
  history 18
  restart 36
  restart.save 6
%endblock SCF.Mixer.Pulay

DM_history_depth set to one: no extrapolation allowed by default for geometry relaxation
Size of DM history Fstack: 1
Total number of electrons:    42.000000
Total ionic charge:    42.000000

* ProcessorY, Blocksize:    4   4


* Orbital distribution balance (max,min):     5     4

 Kpoints in:            1 . Kpoints trimmed:            1

siesta: k-grid: Number of k-points =     1
siesta: k-grid: Cutoff (effective) =     4.927 Ang
siesta: k-grid: Supercell and displacements
siesta: k-grid:    1   0   0      0.000
siesta: k-grid:    0   1   0      0.000
siesta: k-grid:    0   0   1      0.000

diag: Algorithm                                     = ELPA-1stage
diag: Parallel over k                               =   F
diag: Use parallel 2D distribution                  =   T
diag: Parallel block-size                           = 4
diag: Parallel distribution                         =     4 x     8
diag: Used triangular part                          = Lower
diag: Absolute tolerance                            =  0.100E-15
diag: Orthogonalization factor                      =  0.100E-05
diag: Memory factor                                 =  1.5000


ts: **************************************************************
ts: Save H and S matrices                           =    F
ts: Save DM and EDM matrices                        =    F
ts: Only save the overlap matrix S                  =    F
ts: **************************************************************

************************ Begin: TS CHECKS AND WARNINGS ************************
************************ End: TS CHECKS AND WARNINGS **************************


                     ====================================
                        Begin CG opt. move =      0
                     ====================================

outcoor: Atomic coordinates (Ang):                          
    1.07571200    3.82916874    0.00000000   1       1  H
    0.45886177    2.96529489    0.00000000   2       2  N
   -1.29350027    3.24938905    0.00000000   3       3  Si
   -1.65166164    4.70451468    0.00000000   1       4  H
   -2.72508540    1.60321315    0.00000000   3       5  Si
   -4.21691642    1.74148542    0.00000000   1       6  H
   -1.33000544   -0.14636172    0.00000000   3       7  Si
   -2.01380705   -1.75466429    0.00000000   2       8  N
   -1.40609867   -2.61295866    0.00000000   1       9  H
   -3.05571330   -1.91711525    0.00000000   1      10  H
    0.35466701   -0.01492098    0.00000000   2      11  N
    1.38085443    1.37498623    0.00000000   3      12  Si
    2.97283730    1.48016461    0.00000000   4      13  O

outcell: Unit cell vectors (Ang):
       14.879181    0.000000    0.000000
        0.000000   15.637803    0.000000
        0.000000    0.000000    9.854683

outcell: Cell vector modules (Ang)   :   14.879181   15.637803    9.854683
outcell: Cell angles (23,13,12) (deg):     90.0000     90.0000     90.0000
outcell: Cell volume (Ang**3)        :   2292.9651
<dSpData1D:S at geom step 0
  <sparsity:sparsity for geom step 0
    nrows_g=129 nrows=5 sparsity=.0379 nnzs=631, refcount: 7>
  <dData1D:(new from dSpData1D) n=631, refcount: 1>
refcount: 1>
new_DM -- step:     1
Initializing Density Matrix...
DM filled with atomic data:
<dSpData2D:DM initialized from atoms
  <sparsity:sparsity for geom step 0
    nrows_g=129 nrows=5 sparsity=.0379 nnzs=631, refcount: 8>
  <dData2D:DM n=631 m=2, refcount: 1>
refcount: 1>
     spin moment: S , {S} =   24.00000       0.0       0.0  24.00000
No. of atoms with KB's overlaping orbs in proc 0. Max # of overlaps:       9     125
New grid distribution:   1
           1       1:   90    1:   23    1:    8
           2       1:   90    1:   23    9:   16
           3       1:   90    1:   23   17:   24
           4       1:   90    1:   23   25:   32
           5       1:   90    1:   23   33:   39
           6       1:   90    1:   23   40:   46
           7       1:   90    1:   23   47:   53
           8       1:   90    1:   23   54:   60
           9       1:   90   24:   46    1:    8
          10       1:   90   24:   46    9:   16
          11       1:   90   24:   46   17:   24
          12       1:   90   24:   46   25:   32
          13       1:   90   24:   46   33:   39
          14       1:   90   24:   46   40:   46
          15       1:   90   24:   46   47:   53
          16       1:   90   24:   46   54:   60
          17       1:   90   47:   68    1:    8
          18       1:   90   47:   68    9:   16
          19       1:   90   47:   68   17:   24
          20       1:   90   47:   68   25:   32
          21       1:   90   47:   68   33:   39
          22       1:   90   47:   68   40:   46
          23       1:   90   47:   68   47:   53
          24       1:   90   47:   68   54:   60
          25       1:   90   69:   90    1:    8
          26       1:   90   69:   90    9:   16
          27       1:   90   69:   90   17:   24
          28       1:   90   69:   90   25:   32
          29       1:   90   69:   90   33:   39
          30       1:   90   69:   90   40:   46
          31       1:   90   69:   90   47:   53
          32       1:   90   69:   90   54:   60

InitMesh: MESH =   180 x   180 x   120 =     3888000
InitMesh: (bp) =    90 x    90 x    60 =      486000
InitMesh: Mesh cutoff (required, used) =   340.000   366.180 Ry
ExtMesh (bp) on 0 =   202 x   127 x   120 =     3078480
New grid distribution:   2
           1      16:   73   71:   90    1:   20
           2      10:   68    1:    9    1:   20
           3      69:   81    1:    8    1:   23
           4      69:   82    9:   17   24:   60
           5      10:   68    1:    9   21:   60
           6      83:   90   18:   76    1:   20
           7      69:   81    1:    8   24:   60
           8      83:   90    9:   17   24:   60
           9       1:   11   18:   70    1:   20
          10       1:    9    1:    9   21:   60
          11      83:   90   77:   90    1:   20
          12      12:   73   18:   70   21:   60
          13       1:   11   18:   70   21:   60
          14      10:   68   10:   17    1:   20
          15      69:   82    9:   17    1:   23
          16      82:   90    1:    8    1:   23
          17      12:   73   18:   70    1:   20
          18       1:    9   10:   17   21:   60
          19      83:   90    9:   17    1:   23
          20      83:   90   18:   76   21:   60
          21      74:   82   18:   76   21:   60
          22       1:   15   71:   90    1:   20
          23      82:   90    1:    8   24:   60
          24       1:    9    1:    9    1:   20
          25      74:   82   18:   76    1:   20
          26      74:   82   77:   90    1:   20
          27      83:   90   77:   90   21:   60
          28      16:   73   71:   90   21:   60
          29      10:   68   10:   17   21:   60
          30       1:   15   71:   90   21:   60
          31      74:   82   77:   90   21:   60
          32       1:    9   10:   17    1:   20
New grid distribution:   3
           1      17:   55   13:   27    1:   26
           2      56:   73    1:   13   28:   60
           3       1:   20   77:   90    1:   23
           4      18:   55    1:   12   27:   60
           5      17:   55   13:   27   27:   60
           6      19:   55    1:   12    1:   26
           7      56:   74   14:   27   28:   60
           8      56:   73    1:   13    1:   27
           9      14:   67   28:   76    1:   23
          10      68:   79   28:   68    1:   25
          11       1:   16   13:   27    1:   26
          12      75:   90   14:   27   28:   60
          13      68:   79   28:   69   26:   60
          14      80:   90   28:   68    1:   25
          15       1:   16   13:   27   27:   60
          16      80:   90   69:   90    1:   25
          17       1:   13   28:   76    1:   23
          18      74:   90    1:   13   28:   60
          19      75:   90   14:   27    1:   27
          20      14:   67   28:   77   24:   60
          21       1:   13   28:   77   24:   60
          22      68:   79   70:   90   26:   60
          23      56:   74   14:   27    1:   27
          24      74:   90    1:   13    1:   27
          25      21:   67   77:   90    1:   23
          26       1:   17    1:   12   27:   60
          27      68:   79   69:   90    1:   25
          28      20:   67   78:   90   24:   60
          29      80:   90   28:   69   26:   60
          30       1:   19   78:   90   24:   60
          31      80:   90   70:   90   26:   60
          32       1:   18    1:   12    1:   26
Setting up quadratic distribution...
ExtMesh (bp) on 0 =   170 x   124 x   132 =     2782560
PhiOnMesh: Number of (b)points on node 0 =                23200
PhiOnMesh: nlist on node 0 =               211779

stepf: Fermi-Dirac step function

siesta: Program's energy decomposition (eV):
siesta: Ebs     =      -276.685755
siesta: Eions   =      1544.210757
siesta: Ena     =       161.154037
siesta: Ekin    =      1419.497852
siesta: Enl     =     -1347.801871
siesta: Eso     =         0.000000
siesta: Edftu   =         0.000000
siesta: DEna    =        55.583931
siesta: DUscf   =        33.645240
siesta: DUext   =         0.000000
siesta: Exc     =      -510.388104
siesta: eta*DQ  =         0.000000
siesta: Emadel  =         0.000000
siesta: Emeta   =         0.000000
siesta: Emolmec =         0.000000
siesta: Ekinion =         0.000000
siesta: Eharris =     -1704.793321
siesta: Etot    =     -1732.519672
siesta: FreeEng =     -1732.520139

        iscf     Eharris(eV)        E_KS(eV)     FreeEng(eV)     dDmax    Ef(eV) dHmax(eV)
   scf:    1    -1704.793321    -1732.519672    -1732.520139  0.966741 -4.909581 20.890524
     spin moment: S , {S} =    0.00233       0.0       0.0   0.00233
timer: Routine,Calls,Time,% = IterSCF        1       0.768   3.12
   scf:    2    -1757.257661    -1748.064126    -1748.064127  0.163029 -4.655158  8.738373
     spin moment: S , {S} =    0.00000       0.0       0.0   0.00000
   scf:    3    -1750.477557    -1749.715812    -1749.715812  0.064997 -4.261462  6.443446
     spin moment: S , {S} =    0.00000       0.0       0.0   0.00000
   scf:    4    -1750.320789    -1750.108567    -1750.108567  0.040304 -4.121958  2.576265
     spin moment: S , {S} =   -0.00000       0.0       0.0  -0.00000
   scf:    5    -1750.334592    -1750.254245    -1750.254245  0.023652 -4.420434  1.707868
     spin moment: S , {S} =    0.00000       0.0       0.0   0.00000
   scf:    6    -1750.416028    -1750.331686    -1750.331686  0.025278 -4.324345  0.454016
     spin moment: S , {S} =   -0.00000       0.0       0.0  -0.00000
   scf:    7    -1750.370764    -1750.350582    -1750.350582  0.011507 -4.347621  0.221749
     spin moment: S , {S} =   -0.00000       0.0       0.0  -0.00000
   scf:    8    -1750.362546    -1750.356426    -1750.356426  0.005478 -4.342413  0.110219
     spin moment: S , {S} =   -0.00000       0.0       0.0  -0.00000
   scf:    9    -1750.366064    -1750.360854    -1750.360854  0.006745 -4.361227  0.067482
     spin moment: S , {S} =   -0.00000       0.0       0.0  -0.00000
   scf:   10    -1750.363696    -1750.362064    -1750.362064  0.005390 -4.341287  0.047611
     spin moment: S , {S} =   -0.00000       0.0       0.0  -0.00000
   scf:   11    -1750.362162    -1750.362139    -1750.362139  0.001198 -4.346986  0.028418
     spin moment: S , {S} =    0.00000       0.0       0.0   0.00000
   scf:   12    -1750.362194    -1750.362169    -1750.362169  0.000661 -4.342262  0.005196
     spin moment: S , {S} =    0.00000       0.0       0.0   0.00000
   scf:   13    -1750.362189    -1750.362178    -1750.362178  0.000467 -4.339884  0.003846
     spin moment: S , {S} =    0.00000       0.0       0.0   0.00000
   scf:   14    -1750.362181    -1750.362179    -1750.362179  0.000184 -4.340463  0.002093
     spin moment: S , {S} =    0.00000       0.0       0.0   0.00000
   scf:   15    -1750.362179    -1750.362179    -1750.362179  0.000059 -4.339677  0.001816
     spin moment: S , {S} =    0.00000       0.0       0.0   0.00000
   scf:   16    -1750.362180    -1750.362179    -1750.362179  0.000047 -4.340046  0.000539
     spin moment: S , {S} =    0.00000       0.0       0.0   0.00000

SCF Convergence by DM+H criterion
max |DM_out - DM_in|         :     0.0000469903
max |H_out - H_in|      (eV) :     0.0005393958
SCF cycle converged after 16 iterations

Using DM_out to compute the final energy and forces
No. of atoms with KB's overlaping orbs in proc 0. Max # of overlaps:       9     125

siesta: E_KS(eV) =            -1750.3622

siesta: E_KS - E_eggbox =     -1750.3622
     spin moment: S , {S} =    0.00000       0.0       0.0   0.00000

siesta: Atomic forces (eV/Ang):
     1    0.040997   -0.238796   -0.000000
     2   -0.002450    0.000410    0.000000
     3    0.002101   -0.001292    0.000000
     4    0.065492    0.040275   -0.000000
     5   -0.000750   -0.000100   -0.000000
     6   -0.001362   -0.144095   -0.000000
     7    0.000082   -0.000068    0.000000
     8    0.000387   -0.000179    0.000000
     9   -0.031122    0.070606    0.000000
    10    0.074028    0.056103   -0.000000
    11   -0.001540    0.000400   -0.000000
    12    0.000902    0.001008   -0.000000
    13   -0.034286   -0.538888   -0.000000
----------------------------------------
   Tot    0.112479   -0.754616   -0.000000
----------------------------------------
   Max    0.538888
   Res    0.100199    sqrt( Sum f_i^2 / 3N )
----------------------------------------
   Max    0.538888    constrained

Stress tensor Voigt[x,y,z,yz,xz,xy] (kbar):        0.53       -0.85       -0.13        0.00        0.00       -0.09
(Free)E + p*V (eV/cell)    -1750.1479
Target enthalpy (eV/cell)    -1750.3622

mulliken: Atomic and Orbital Populations:

mulliken: Spin UP 

Species: H                   
Atom  Qatom  Qorb
               1s      1s      2Ppy    2Ppz    2Ppx    
   1  0.381   0.245   0.094   0.012   0.018   0.013
   4  0.599   0.523   0.044   0.017   0.009   0.006
   6  0.607   0.528   0.038   0.009   0.015   0.017
   9  0.380   0.240   0.098   0.015   0.024   0.003
  10  0.382   0.240   0.098   0.008   0.026   0.010

Species: N                   
Atom  Qatom  Qorb
               2s      2s      2py     2pz     2px     2py     2pz     2px     
               3Pdxy   3Pdyz   3Pdz2   3Pdxz   3Pdx2-y2
   2  2.770   0.701   0.058   0.539   0.761   0.495   0.094   0.003   0.111
              0.003   0.001   0.000   0.002   0.001
   8  2.778   0.645   0.085   0.500   0.782   0.531   0.117   0.014   0.098
              0.002   0.001   0.001   0.000   0.002
  11  2.694   0.708   0.065   0.574   0.648   0.441   0.084   0.025   0.137
              0.003   0.003   0.000   0.003   0.003

Species: Si                  
Atom  Qatom  Qorb
               3s      3s      3py     3pz     3px     3py     3pz     3px     
               3Pdxy   3Pdyz   3Pdz2   3Pdxz   3Pdx2-y2
   3  1.753   0.332   0.192   0.080   0.289   0.150   0.247   0.083   0.155
              0.056   0.015   0.004   0.067   0.083
   5  1.890   0.365   0.173   0.287   0.406   0.029   0.121   0.100   0.268
              0.053   0.014   0.004   0.015   0.055
   7  1.821   0.316   0.182   0.116   0.214   0.122   0.185   0.105   0.193
              0.146   0.070   0.005   0.074   0.092
  12  1.709   0.232   0.182   0.174   0.211   0.043   0.119   0.092   0.231
              0.173   0.041   0.007   0.093   0.109

Species: O                   
Atom  Qatom  Qorb
               2s      2s      2py     2pz     2px     2py     2pz     2px     
               3Pdxy   3Pdyz   3Pdz2   3Pdxz   3Pdx2-y2
  13  3.236   0.871   0.035   0.817   0.769   0.699   0.008   0.000   0.024
              0.004  -0.000   0.001   0.005   0.004

mulliken: Qtot =       21.000

mulliken: Spin DOWN 

Species: H                   
Atom  Qatom  Qorb
               1s      1s      2Ppy    2Ppz    2Ppx    
   1  0.381   0.245   0.094   0.012   0.018   0.013
   4  0.599   0.523   0.044   0.017   0.009   0.006
   6  0.607   0.528   0.038   0.009   0.015   0.017
   9  0.380   0.240   0.098   0.015   0.024   0.003
  10  0.382   0.240   0.098   0.008   0.026   0.010

Species: N                   
Atom  Qatom  Qorb
               2s      2s      2py     2pz     2px     2py     2pz     2px     
               3Pdxy   3Pdyz   3Pdz2   3Pdxz   3Pdx2-y2
   2  2.770   0.701   0.058   0.539   0.761   0.495   0.094   0.003   0.111
              0.003   0.001   0.000   0.002   0.001
   8  2.778   0.645   0.085   0.500   0.782   0.531   0.117   0.014   0.098
              0.002   0.001   0.001   0.000   0.002
  11  2.694   0.708   0.065   0.574   0.648   0.441   0.084   0.025   0.137
              0.003   0.003   0.000   0.003   0.003

Species: Si                  
Atom  Qatom  Qorb
               3s      3s      3py     3pz     3px     3py     3pz     3px     
               3Pdxy   3Pdyz   3Pdz2   3Pdxz   3Pdx2-y2
   3  1.753   0.332   0.192   0.080   0.289   0.150   0.247   0.083   0.155
              0.056   0.015   0.004   0.067   0.083
   5  1.890   0.365   0.173   0.287   0.406   0.029   0.121   0.100   0.268
              0.053   0.014   0.004   0.015   0.055
   7  1.821   0.316   0.182   0.116   0.214   0.122   0.185   0.105   0.193
              0.146   0.070   0.005   0.074   0.092
  12  1.709   0.232   0.182   0.174   0.211   0.043   0.119   0.092   0.231
              0.173   0.041   0.007   0.093   0.109

Species: O                   
Atom  Qatom  Qorb
               2s      2s      2py     2pz     2px     2py     2pz     2px     
               3Pdxy   3Pdyz   3Pdz2   3Pdxz   3Pdx2-y2
  13  3.236   0.871   0.035   0.817   0.769   0.699   0.008   0.000   0.024
              0.004  -0.000   0.001   0.005   0.004

mulliken: Qtot =       21.000

                     ====================================
                        Begin CG opt. move =      1
                     ====================================

outcoor: Atomic coordinates (Ang):                          
    1.09536732    3.71468272   -0.00000001   1       1  H
    0.45768701    2.96549145    0.00000003   2       2  N
   -1.29249312    3.24876980    0.00000000   3       3  Si
   -1.62026270    4.72382369   -0.00000001   1       4  H
   -2.72544518    1.60316525   -0.00000001   3       5  Si
   -4.21756923    1.67240206   -0.00000000   1       6  H
   -1.32996604   -0.14639436    0.00000006   3       7  Si
   -2.01362156   -1.75475021    0.00000001   2       8  N
   -1.42101931   -2.57910813    0.00000001   1       9  H
   -3.02022220   -1.89021777   -0.00000000   1      10  H
    0.35392868   -0.01472904   -0.00000005   2      11  N
    1.38128687    1.37546952   -0.00000003   3      12  Si
    2.95639974    1.22180597   -0.00000000   4      13  O

outcell: Unit cell vectors (Ang):
       14.879181    0.000000    0.000000
        0.000000   15.637803    0.000000
        0.000000    0.000000    9.854683

outcell: Cell vector modules (Ang)   :   14.879181   15.637803    9.854683
outcell: Cell angles (23,13,12) (deg):     90.0000     90.0000     90.0000
outcell: Cell volume (Ang**3)        :   2292.9651
<dSpData1D:S at geom step 1
  <sparsity:sparsity for geom step 1
    nrows_g=129 nrows=5 sparsity=.0380 nnzs=632, refcount: 7>
  <dData1D:(new from dSpData1D) n=632, refcount: 1>
refcount: 1>
new_DM -- step:     2
Re-using DM from previous geometries...
Number of DMs in history: 1
 DM extrapolation coefficients: 
1   1.00000
New DM after history re-use:
<dSpData2D:SpM extrapolated using coords
  <sparsity:sparsity for geom step 1
    nrows_g=129 nrows=5 sparsity=.0380 nnzs=632, refcount: 9>
  <dData2D:(temp array for extrapolation) n=632 m=2, refcount: 1>
refcount: 1>
     spin moment: S , {S} =    0.00000       0.0       0.0   0.00000
Note: For starting DM, Qtot, Tr[D*S] =         42.00000000         42.04201365
No. of atoms with KB's overlaping orbs in proc 0. Max # of overlaps:       9     125
New grid distribution:   1
           1       1:   90    1:   23    1:    8
           2       1:   90    1:   23    9:   16
           3       1:   90    1:   23   17:   24
           4       1:   90    1:   23   25:   32
           5       1:   90    1:   23   33:   39
           6       1:   90    1:   23   40:   46
           7       1:   90    1:   23   47:   53
           8       1:   90    1:   23   54:   60
           9       1:   90   24:   46    1:    8
          10       1:   90   24:   46    9:   16
          11       1:   90   24:   46   17:   24
          12       1:   90   24:   46   25:   32
          13       1:   90   24:   46   33:   39
          14       1:   90   24:   46   40:   46
          15       1:   90   24:   46   47:   53
          16       1:   90   24:   46   54:   60
          17       1:   90   47:   68    1:    8
          18       1:   90   47:   68    9:   16
          19       1:   90   47:   68   17:   24
          20       1:   90   47:   68   25:   32
          21       1:   90   47:   68   33:   39
          22       1:   90   47:   68   40:   46
          23       1:   90   47:   68   47:   53
          24       1:   90   47:   68   54:   60
          25       1:   90   69:   90    1:    8
          26       1:   90   69:   90    9:   16
          27       1:   90   69:   90   17:   24
          28       1:   90   69:   90   25:   32
          29       1:   90   69:   90   33:   39
          30       1:   90   69:   90   40:   46
          31       1:   90   69:   90   47:   53
          32       1:   90   69:   90   54:   60

InitMesh: MESH =   180 x   180 x   120 =     3888000
InitMesh: (bp) =    90 x    90 x    60 =      486000
InitMesh: Mesh cutoff (required, used) =   340.000   366.180 Ry
ExtMesh (bp) on 0 =   202 x   127 x   120 =     3078480
New grid distribution:   2
           1      10:   68    1:    9    1:   20
           2      69:   81    1:    8    1:   23
           3      69:   81    1:    8   24:   60
           4      10:   68    1:    9   21:   60
           5      16:   73   73:   90    1:   20
           6      83:   90   18:   76    1:   20
           7      69:   82    9:   17   24:   60
           8      83:   90    9:   17   24:   60
           9       1:   11   18:   72    1:   20
          10       1:    9    1:    9   21:   60
          11      83:   90   77:   90    1:   20
          12      12:   73   18:   72   21:   60
          13       1:   11   18:   72   21:   60
          14      10:   68   10:   17    1:   20
          15      69:   82    9:   17    1:   23
          16      82:   90    1:    8    1:   23
          17      12:   73   18:   72    1:   20
          18       1:    9   10:   17   21:   60
          19      83:   90    9:   17    1:   23
          20      83:   90   18:   76   21:   60
          21      74:   82   18:   76   21:   60
          22       1:   15   73:   90    1:   20
          23      82:   90    1:    8   24:   60
          24       1:    9    1:    9    1:   20
          25      74:   82   18:   76    1:   20
          26      74:   82   77:   90    1:   20
          27      83:   90   77:   90   21:   60
          28      16:   73   73:   90   21:   60
          29      10:   68   10:   17   21:   60
          30       1:   15   73:   90   21:   60
          31      74:   82   77:   90   21:   60
          32       1:    9   10:   17    1:   20
New grid distribution:   3
           1      17:   55   13:   27    1:   26
           2      56:   73    1:   13   28:   60
           3      56:   73    1:   13    1:   27
           4      18:   55    1:   12   27:   60
           5      17:   55   13:   27   27:   60
           6      19:   55    1:   12    1:   26
           7      56:   74   14:   27   28:   60
           8      80:   90   69:   90    1:   25
           9      14:   67   28:   77    1:   23
          10      68:   79   28:   68    1:   25
          11       1:   16   13:   27    1:   26
          12      75:   90   14:   27   28:   60
          13      68:   79   28:   69   26:   60
          14      80:   90   28:   68    1:   25
          15       1:   16   13:   27   27:   60
          16      75:   90   14:   27    1:   27
          17       1:   13   28:   77    1:   23
          18      74:   90    1:   13   28:   60
          19       1:   20   78:   90    1:   23
          20      14:   67   28:   77   24:   60
          21       1:   13   28:   77   24:   60
          22      68:   79   70:   90   26:   60
          23      56:   74   14:   27    1:   27
          24      74:   90    1:   13    1:   27
          25      21:   67   78:   90    1:   23
          26       1:   17    1:   12   27:   60
          27      68:   79   69:   90    1:   25
          28      20:   67   78:   90   24:   60
          29      80:   90   28:   69   26:   60
          30       1:   19   78:   90   24:   60
          31      80:   90   70:   90   26:   60
          32       1:   18    1:   12    1:   26
Setting up quadratic distribution...
ExtMesh (bp) on 0 =   171 x   113 x   132 =     2550636
PhiOnMesh: Number of (b)points on node 0 =                10620
PhiOnMesh: nlist on node 0 =               184436

        iscf     Eharris(eV)        E_KS(eV)     FreeEng(eV)     dDmax    Ef(eV) dHmax(eV)
   scf:    1    -1749.172795    -1749.919140    -1749.919140  0.065189 -4.477791  2.345707
     spin moment: S , {S} =    0.00000       0.0       0.0   0.00000
   scf:    2    -1746.837061    -1749.018313    -1749.018313  0.089355 -4.150916  7.407070
     spin moment: S , {S} =    0.00000       0.0       0.0   0.00000
   scf:    3    -1750.177562    -1750.017890    -1750.017890  0.074875 -4.100482  0.391720
     spin moment: S , {S} =    0.00000       0.0       0.0   0.00000
   scf:    4    -1750.023419    -1750.021391    -1750.021391  0.003609 -4.029848  0.075526
     spin moment: S , {S} =    0.00000       0.0       0.0   0.00000
   scf:    5    -1750.022108    -1750.021793    -1750.021793  0.000780 -4.011294  0.028474
     spin moment: S , {S} =    0.00000       0.0       0.0   0.00000
   scf:    6    -1750.021892    -1750.021850    -1750.021850  0.000369 -4.010968  0.013066
     spin moment: S , {S} =    0.00000       0.0       0.0   0.00000
   scf:    7    -1750.021871    -1750.021861    -1750.021861  0.000228 -4.009382  0.005612
     spin moment: S , {S} =    0.00000       0.0       0.0   0.00000
   scf:    8    -1750.021865    -1750.021863    -1750.021863  0.000132 -4.008522  0.001050
     spin moment: S , {S} =    0.00000       0.0       0.0   0.00000
   scf:    9    -1750.021864    -1750.021863    -1750.021863  0.000034 -4.008436  0.000396
     spin moment: S , {S} =    0.00000       0.0       0.0   0.00000

SCF Convergence by DM+H criterion
max |DM_out - DM_in|         :     0.0000337920
max |H_out - H_in|      (eV) :     0.0003960143
SCF cycle converged after 9 iterations

Using DM_out to compute the final energy and forces
No. of atoms with KB's overlaping orbs in proc 0. Max # of overlaps:       9     125

siesta: E_KS(eV) =            -1750.0219
     spin moment: S , {S} =    0.00000       0.0       0.0   0.00000

siesta: Atomic forces (eV/Ang):
     1    2.067206    3.129216   -0.000000
     2   -1.593273   -3.029885   -0.000000
     3   -0.109159    0.290166    0.000000
     4    0.076790   -0.081576   -0.000000
     5    0.079255   -0.062992   -0.000000
     6   -0.120291    0.059089    0.000000
     7    0.195499   -0.013605   -0.000000
     8    0.675803    1.589555    0.000000
     9    0.875301   -1.438797   -0.000000
    10   -1.523762   -0.430757    0.000000
    11   -0.358440   -0.030113    0.000000
    12   -0.709906   -0.805603    0.000000
    13    1.965303   -0.413650    0.000000
----------------------------------------
   Tot    1.520326   -1.238953    0.000000
----------------------------------------
   Max    3.129216
   Res    1.007692    sqrt( Sum f_i^2 / 3N )
----------------------------------------
   Max    3.129216    constrained

Stress tensor Voigt[x,y,z,yz,xz,xy] (kbar):       -2.54       -3.28       -0.13       -0.00       -0.00       -1.49
(Free)E + p*V (eV/cell)    -1747.1854
Target enthalpy (eV/cell)    -1750.0219

mulliken: Atomic and Orbital Populations:

mulliken: Spin UP 

Species: H                   
Atom  Qatom  Qorb
               1s      1s      2Ppy    2Ppz    2Ppx    
   1  0.368   0.211   0.112   0.011   0.020   0.013
   4  0.599   0.523   0.042   0.018   0.009   0.006
   6  0.607   0.528   0.038   0.009   0.015   0.017
   9  0.375   0.224   0.107   0.015   0.025   0.003
  10  0.377   0.224   0.107   0.008   0.027   0.010

Species: N                   
Atom  Qatom  Qorb
               2s      2s      2py     2pz     2px     2py     2pz     2px     
               3Pdxy   3Pdyz   3Pdz2   3Pdxz   3Pdx2-y2
   2  2.789   0.693   0.061   0.546   0.765   0.502   0.097   0.004   0.113
              0.003   0.001   0.001   0.002   0.000
   8  2.790   0.635   0.088   0.505   0.780   0.542   0.119   0.015   0.100
              0.001   0.001   0.001   0.000   0.002
  11  2.688   0.710   0.065   0.575   0.642   0.440   0.083   0.025   0.137
              0.003   0.003  -0.000   0.003   0.002

Species: Si                  
Atom  Qatom  Qorb
               3s      3s      3py     3pz     3px     3py     3pz     3px     
               3Pdxy   3Pdyz   3Pdz2   3Pdxz   3Pdx2-y2
   3  1.757   0.333   0.191   0.080   0.294   0.153   0.245   0.084   0.153
              0.053   0.015   0.004   0.066   0.086
   5  1.889   0.365   0.173   0.289   0.402   0.026   0.120   0.100   0.270
              0.052   0.015   0.004   0.015   0.056
   7  1.822   0.317   0.182   0.116   0.213   0.123   0.187   0.105   0.194
              0.146   0.069   0.005   0.074   0.091
  12  1.706   0.230   0.183   0.171   0.210   0.047   0.121   0.093   0.229
              0.175   0.040   0.007   0.094   0.107

Species: O                   
Atom  Qatom  Qorb
               2s      2s      2py     2pz     2px     2py     2pz     2px     
               3Pdxy   3Pdyz   3Pdz2   3Pdxz   3Pdx2-y2
  13  3.235   0.869   0.036   0.805   0.768   0.710   0.010   0.001   0.024
              0.004   0.000   0.001   0.005   0.004

mulliken: Qtot =       21.000

mulliken: Spin DOWN 

Species: H                   
Atom  Qatom  Qorb
               1s      1s      2Ppy    2Ppz    2Ppx    
   1  0.368   0.211   0.112   0.011   0.020   0.013
   4  0.599   0.523   0.042   0.018   0.009   0.006
   6  0.607   0.528   0.038   0.009   0.015   0.017
   9  0.375   0.224   0.107   0.015   0.025   0.003
  10  0.377   0.224   0.107   0.008   0.027   0.010

Species: N                   
Atom  Qatom  Qorb
               2s      2s      2py     2pz     2px     2py     2pz     2px     
               3Pdxy   3Pdyz   3Pdz2   3Pdxz   3Pdx2-y2
   2  2.789   0.693   0.061   0.546   0.765   0.502   0.097   0.004   0.113
              0.003   0.001   0.001   0.002   0.000
   8  2.790   0.635   0.088   0.505   0.780   0.542   0.119   0.015   0.100
              0.001   0.001   0.001   0.000   0.002
  11  2.688   0.710   0.065   0.575   0.642   0.440   0.083   0.025   0.137
              0.003   0.003  -0.000   0.003   0.002

Species: Si                  
Atom  Qatom  Qorb
               3s      3s      3py     3pz     3px     3py     3pz     3px     
               3Pdxy   3Pdyz   3Pdz2   3Pdxz   3Pdx2-y2
   3  1.757   0.333   0.191   0.080   0.294   0.153   0.245   0.084   0.153
              0.053   0.015   0.004   0.066   0.086
   5  1.889   0.365   0.173   0.289   0.402   0.026   0.120   0.100   0.270
              0.052   0.015   0.004   0.015   0.056
   7  1.822   0.317   0.182   0.116   0.213   0.123   0.187   0.105   0.194
              0.146   0.069   0.005   0.074   0.091
  12  1.706   0.230   0.183   0.171   0.210   0.047   0.121   0.093   0.229
              0.175   0.040   0.007   0.094   0.107

Species: O                   
Atom  Qatom  Qorb
               2s      2s      2py     2pz     2px     2py     2pz     2px     
               3Pdxy   3Pdyz   3Pdz2   3Pdxz   3Pdx2-y2
  13  3.235   0.869   0.036   0.805   0.768   0.710   0.010   0.001   0.024
              0.004   0.000   0.001   0.005   0.004

mulliken: Qtot =       21.000

                     ====================================
                        Begin CG opt. move =      2
                     ====================================

outcoor: Atomic coordinates (Ang):                          
    1.08229081    3.79084927   -0.00000000   1       1  H
    0.45846857    2.96536068    0.00000001   2       2  N
   -1.29316317    3.24918178    0.00000000   3       3  Si
   -1.64115214    4.71097758   -0.00000000   1       4  H
   -2.72520582    1.60319712   -0.00000000   3       5  Si
   -4.21713492    1.71836261   -0.00000000   1       6  H
   -1.32999225   -0.14637265    0.00000002   3       7  Si
   -2.01374497   -1.75469305    0.00000000   2       8  N
   -1.41109274   -2.60162859    0.00000000   1       9  H
   -3.04383412   -1.90811243   -0.00000000   1      10  H
    0.35441988   -0.01485674   -0.00000002   2      11  N
    1.38099917    1.37514799   -0.00000001   3      12  Si
    2.96733550    1.39368971   -0.00000000   4      13  O

outcell: Unit cell vectors (Ang):
       14.879181    0.000000    0.000000
        0.000000   15.637803    0.000000
        0.000000    0.000000    9.854683

outcell: Cell vector modules (Ang)   :   14.879181   15.637803    9.854683
outcell: Cell angles (23,13,12) (deg):     90.0000     90.0000     90.0000
outcell: Cell volume (Ang**3)        :   2292.9651
<dSpData1D:S at geom step 2
  <sparsity:sparsity for geom step 2
    nrows_g=129 nrows=5 sparsity=.0379 nnzs=631, refcount: 7>
  <dData1D:(new from dSpData1D) n=631, refcount: 1>
refcount: 1>
new_DM -- step:     3
Re-using DM from previous geometries...
Number of DMs in history: 1
 DM extrapolation coefficients: 
1   1.00000
New DM after history re-use:
<dSpData2D:SpM extrapolated using coords
  <sparsity:sparsity for geom step 2
    nrows_g=129 nrows=5 sparsity=.0379 nnzs=631, refcount: 9>
  <dData2D:(temp array for extrapolation) n=631 m=2, refcount: 1>
refcount: 1>
     spin moment: S , {S} =    0.00000       0.0       0.0   0.00000
Note: For starting DM, Qtot, Tr[D*S] =         42.00000000         41.92057407
No. of atoms with KB's overlaping orbs in proc 0. Max # of overlaps:       9     125
New grid distribution:   1
           1       1:   90    1:   23    1:    8
           2       1:   90    1:   23    9:   16
           3       1:   90    1:   23   17:   24
           4       1:   90    1:   23   25:   32
           5       1:   90    1:   23   33:   39
           6       1:   90    1:   23   40:   46
           7       1:   90    1:   23   47:   53
           8       1:   90    1:   23   54:   60
           9       1:   90   24:   46    1:    8
          10       1:   90   24:   46    9:   16
          11       1:   90   24:   46   17:   24
          12       1:   90   24:   46   25:   32
          13       1:   90   24:   46   33:   39
          14       1:   90   24:   46   40:   46
          15       1:   90   24:   46   47:   53
          16       1:   90   24:   46   54:   60
          17       1:   90   47:   68    1:    8
          18       1:   90   47:   68    9:   16
          19       1:   90   47:   68   17:   24
          20       1:   90   47:   68   25:   32
          21       1:   90   47:   68   33:   39
          22       1:   90   47:   68   40:   46
          23       1:   90   47:   68   47:   53
          24       1:   90   47:   68   54:   60
          25       1:   90   69:   90    1:    8
          26       1:   90   69:   90    9:   16
          27       1:   90   69:   90   17:   24
          28       1:   90   69:   90   25:   32
          29       1:   90   69:   90   33:   39
          30       1:   90   69:   90   40:   46
          31       1:   90   69:   90   47:   53
          32       1:   90   69:   90   54:   60

InitMesh: MESH =   180 x   180 x   120 =     3888000
InitMesh: (bp) =    90 x    90 x    60 =      486000
InitMesh: Mesh cutoff (required, used) =   340.000   366.180 Ry
ExtMesh (bp) on 0 =   202 x   127 x   120 =     3078480
New grid distribution:   2
           1      16:   73   72:   90    1:   20
           2      10:   68    1:    9    1:   20
           3      69:   81    1:    8    1:   23
           4      69:   82    9:   17   24:   60
           5      10:   68    1:    9   21:   60
           6      83:   90   18:   76    1:   20
           7      69:   81    1:    8   24:   60
           8      83:   90    9:   17   24:   60
           9       1:   11   18:   71    1:   20
          10       1:    9    1:    9   21:   60
          11      83:   90   77:   90    1:   20
          12      12:   73   18:   71   21:   60
          13       1:   11   18:   71   21:   60
          14      10:   68   10:   17    1:   20
          15      69:   82    9:   17    1:   23
          16      82:   90    1:    8    1:   23
          17      12:   73   18:   71    1:   20
          18       1:    9   10:   17   21:   60
          19      83:   90    9:   17    1:   23
          20      83:   90   18:   76   21:   60
          21      74:   82   18:   76   21:   60
          22       1:   15   72:   90    1:   20
          23      82:   90    1:    8   24:   60
          24       1:    9    1:    9    1:   20
          25      74:   82   18:   76    1:   20
          26      74:   82   77:   90    1:   20
          27      83:   90   77:   90   21:   60
          28      16:   73   72:   90   21:   60
          29      10:   68   10:   17   21:   60
          30       1:   15   72:   90   21:   60
          31      74:   82   77:   90   21:   60
          32       1:    9   10:   17    1:   20
New grid distribution:   3
           1      17:   55   13:   27    1:   26
           2      56:   73    1:   13   28:   60
           3       1:   20   77:   90    1:   23
           4      18:   55    1:   12   27:   60
           5      17:   55   13:   27   27:   60
           6      19:   55    1:   12    1:   26
           7      56:   74   14:   27   28:   60
           8      56:   73    1:   13    1:   27
           9      14:   67   28:   76    1:   23
          10      68:   79   28:   68    1:   25
          11       1:   16   13:   27    1:   26
          12      75:   90   14:   27   28:   60
          13      68:   79   28:   69   26:   60
          14      80:   90   28:   68    1:   25
          15       1:   16   13:   27   27:   60
          16      80:   90   69:   90    1:   25
          17       1:   13   28:   76    1:   23
          18      74:   90    1:   13   28:   60
          19      75:   90   14:   27    1:   27
          20      14:   67   28:   77   24:   60
          21       1:   13   28:   77   24:   60
          22      68:   79   70:   90   26:   60
          23      56:   74   14:   27    1:   27
          24      74:   90    1:   13    1:   27
          25      21:   67   77:   90    1:   23
          26       1:   17    1:   12   27:   60
          27      68:   79   69:   90    1:   25
          28      20:   67   78:   90   24:   60
          29      80:   90   28:   69   26:   60
          30       1:   19   78:   90   24:   60
          31      80:   90   70:   90   26:   60
          32       1:   18    1:   12    1:   26
Setting up quadratic distribution...
ExtMesh (bp) on 0 =   170 x   123 x   132 =     2760120
PhiOnMesh: Number of (b)points on node 0 =                22040
PhiOnMesh: nlist on node 0 =               208876

        iscf     Eharris(eV)        E_KS(eV)     FreeEng(eV)     dDmax    Ef(eV) dHmax(eV)
   scf:    1    -1750.734848    -1750.295323    -1750.295323  0.043141 -4.266950  0.743379
     spin moment: S , {S} =    0.00000       0.0       0.0   0.00000
   scf:    2    -1749.920099    -1750.192407    -1750.192407  0.031832 -4.152577  2.080688
     spin moment: S , {S} =    0.00000       0.0       0.0   0.00000
   scf:    3    -1750.340686    -1750.316969    -1750.316969  0.024640 -4.243034  0.101329
     spin moment: S , {S} =    0.00000       0.0       0.0   0.00000
   scf:    4    -1750.318367    -1750.317795    -1750.317795  0.000869 -4.237676  0.035448
     spin moment: S , {S} =    0.00000       0.0       0.0   0.00000
   scf:    5    -1750.317945    -1750.317876    -1750.317876  0.000301 -4.237683  0.013637
     spin moment: S , {S} =    0.00000       0.0       0.0   0.00000
   scf:    6    -1750.317912    -1750.317896    -1750.317896  0.000230 -4.236789  0.004578
     spin moment: S , {S} =    0.00000       0.0       0.0   0.00000
   scf:    7    -1750.317900    -1750.317898    -1750.317898  0.000113 -4.236199  0.001876
     spin moment: S , {S} =    0.00000       0.0       0.0   0.00000
   scf:    8    -1750.317899    -1750.317899    -1750.317899  0.000061 -4.235953  0.000500
     spin moment: S , {S} =    0.00000       0.0       0.0   0.00000

SCF Convergence by DM+H criterion
max |DM_out - DM_in|         :     0.0000609142
max |H_out - H_in|      (eV) :     0.0004998478
SCF cycle converged after 8 iterations

Using DM_out to compute the final energy and forces
No. of atoms with KB's overlaping orbs in proc 0. Max # of overlaps:       9     125

siesta: E_KS(eV) =            -1750.3179
     spin moment: S , {S} =    0.00000       0.0       0.0   0.00000

siesta: Atomic forces (eV/Ang):
     1    0.593555    0.926011   -0.000000
     2   -0.384694   -0.927052   -0.000000
     3   -0.038048    0.093723    0.000000
     4    0.037721    0.011260    0.000000
     5    0.031599   -0.021220   -0.000000
     6   -0.072329    0.170884    0.000000
     7    0.069008   -0.005522    0.000000
     8    0.208653    0.502070   -0.000000
     9    0.343202   -0.590172   -0.000000
    10   -0.479880   -0.220519    0.000000
    11   -0.118271   -0.009618    0.000000
    12   -0.407432   -0.280302   -0.000000
    13    1.025774   -0.370725    0.000000
----------------------------------------
   Tot    0.808858   -0.721183    0.000000
----------------------------------------
   Max    1.025774
   Res    0.349307    sqrt( Sum f_i^2 / 3N )
----------------------------------------
   Max    1.025774    constrained

Stress tensor Voigt[x,y,z,yz,xz,xy] (kbar):       -0.58       -1.66       -0.13        0.00        0.00       -0.55
(Free)E + p*V (eV/cell)    -1749.1869
Target enthalpy (eV/cell)    -1750.3179

mulliken: Atomic and Orbital Populations:

mulliken: Spin UP 

Species: H                   
Atom  Qatom  Qorb
               1s      1s      2Ppy    2Ppz    2Ppx    
   1  0.377   0.234   0.100   0.012   0.019   0.013
   4  0.599   0.523   0.043   0.018   0.009   0.006
   6  0.607   0.528   0.038   0.009   0.015   0.017
   9  0.378   0.235   0.101   0.015   0.024   0.003
  10  0.380   0.235   0.101   0.008   0.026   0.010

Species: N                   
Atom  Qatom  Qorb
               2s      2s      2py     2pz     2px     2py     2pz     2px     
               3Pdxy   3Pdyz   3Pdz2   3Pdxz   3Pdx2-y2
   2  2.776   0.698   0.059   0.542   0.763   0.498   0.095   0.003   0.111
              0.003   0.001   0.000   0.002   0.000
   8  2.782   0.641   0.086   0.502   0.781   0.535   0.118   0.014   0.098
              0.002   0.001   0.001   0.000   0.002
  11  2.692   0.708   0.065   0.575   0.646   0.441   0.084   0.025   0.137
              0.003   0.003  -0.000   0.003   0.003

Species: Si                  
Atom  Qatom  Qorb
               3s      3s      3py     3pz     3px     3py     3pz     3px     
               3Pdxy   3Pdyz   3Pdz2   3Pdxz   3Pdx2-y2
   3  1.754   0.332   0.191   0.080   0.291   0.151   0.246   0.083   0.154
              0.055   0.015   0.004   0.066   0.084
   5  1.890   0.365   0.173   0.288   0.405   0.028   0.121   0.100   0.269
              0.052   0.015   0.004   0.015   0.056
   7  1.822   0.316   0.182   0.116   0.214   0.122   0.186   0.105   0.193
              0.146   0.070   0.005   0.074   0.091
  12  1.707   0.229   0.183   0.173   0.210   0.044   0.120   0.093   0.231
              0.175   0.040   0.007   0.094   0.108

Species: O                   
Atom  Qatom  Qorb
               2s      2s      2py     2pz     2px     2py     2pz     2px     
               3Pdxy   3Pdyz   3Pdz2   3Pdxz   3Pdx2-y2
  13  3.237   0.869   0.036   0.815   0.768   0.702   0.008   0.001   0.025
              0.004  -0.000   0.001   0.005   0.004

mulliken: Qtot =       21.000

mulliken: Spin DOWN 

Species: H                   
Atom  Qatom  Qorb
               1s      1s      2Ppy    2Ppz    2Ppx    
   1  0.377   0.234   0.100   0.012   0.019   0.013
   4  0.599   0.523   0.043   0.018   0.009   0.006
   6  0.607   0.528   0.038   0.009   0.015   0.017
   9  0.378   0.235   0.101   0.015   0.024   0.003
  10  0.380   0.235   0.101   0.008   0.026   0.010

Species: N                   
Atom  Qatom  Qorb
               2s      2s      2py     2pz     2px     2py     2pz     2px     
               3Pdxy   3Pdyz   3Pdz2   3Pdxz   3Pdx2-y2
   2  2.776   0.698   0.059   0.542   0.763   0.498   0.095   0.003   0.111
              0.003   0.001   0.000   0.002   0.000
   8  2.782   0.641   0.086   0.502   0.781   0.535   0.118   0.014   0.098
              0.002   0.001   0.001   0.000   0.002
  11  2.692   0.708   0.065   0.575   0.646   0.441   0.084   0.025   0.137
              0.003   0.003  -0.000   0.003   0.003

Species: Si                  
Atom  Qatom  Qorb
               3s      3s      3py     3pz     3px     3py     3pz     3px     
               3Pdxy   3Pdyz   3Pdz2   3Pdxz   3Pdx2-y2
   3  1.754   0.332   0.191   0.080   0.291   0.151   0.246   0.083   0.154
              0.055   0.015   0.004   0.066   0.084
   5  1.890   0.365   0.173   0.288   0.405   0.028   0.121   0.100   0.269
              0.052   0.015   0.004   0.015   0.056
   7  1.822   0.316   0.182   0.116   0.214   0.122   0.186   0.105   0.193
              0.146   0.070   0.005   0.074   0.091
  12  1.707   0.229   0.183   0.173   0.210   0.044   0.120   0.093   0.231
              0.175   0.040   0.007   0.094   0.108

Species: O                   
Atom  Qatom  Qorb
               2s      2s      2py     2pz     2px     2py     2pz     2px     
               3Pdxy   3Pdyz   3Pdz2   3Pdxz   3Pdx2-y2
  13  3.237   0.869   0.036   0.815   0.768   0.702   0.008   0.001   0.025
              0.004  -0.000   0.001   0.005   0.004

mulliken: Qtot =       21.000

cgvc: Finished line minimization    1.  Mean atomic displacement =    0.0526

                     ====================================
                        Begin CG opt. move =      3
                     ====================================

outcoor: Atomic coordinates (Ang):                          
    1.09635979    3.76456228   -0.00000001   1       1  H
    0.45319320    2.95365398    0.00000002   2       2  N
   -1.29331162    3.25016612    0.00000000   3       3  Si
   -1.63023870    4.71753729   -0.00000001   1       4  H
   -2.72492413    1.60291173   -0.00000001   3       5  Si
   -4.21827032    1.69757489    0.00000000   1       6  H
   -1.32910287   -0.14645361    0.00000004   3       7  Si
   -2.01103378   -1.74834615    0.00000001   2       8  N
   -1.41169304   -2.59787365    0.00000000   1       9  H
   -3.03813346   -1.90197413   -0.00000000   1      10  H
    0.35267268   -0.01491508   -0.00000003   2      11  N
    1.37596916    1.37174924   -0.00000002   3      12  Si
    2.97489862    1.30312483    0.00000000   4      13  O

outcell: Unit cell vectors (Ang):
       14.879181    0.000000    0.000000
        0.000000   15.637803    0.000000
        0.000000    0.000000    9.854683

outcell: Cell vector modules (Ang)   :   14.879181   15.637803    9.854683
outcell: Cell angles (23,13,12) (deg):     90.0000     90.0000     90.0000
outcell: Cell volume (Ang**3)        :   2292.9651
<dSpData1D:S at geom step 3
  <sparsity:sparsity for geom step 3
    nrows_g=129 nrows=5 sparsity=.0380 nnzs=632, refcount: 7>
  <dData1D:(new from dSpData1D) n=632, refcount: 1>
refcount: 1>
new_DM -- step:     4
Re-using DM from previous geometries...
Number of DMs in history: 1
 DM extrapolation coefficients: 
1   1.00000
New DM after history re-use:
<dSpData2D:SpM extrapolated using coords
  <sparsity:sparsity for geom step 3
    nrows_g=129 nrows=5 sparsity=.0380 nnzs=632, refcount: 9>
  <dData2D:(temp array for extrapolation) n=632 m=2, refcount: 1>
refcount: 1>
     spin moment: S , {S} =    0.00000       0.0       0.0   0.00000
No. of atoms with KB's overlaping orbs in proc 0. Max # of overlaps:       9     125
New grid distribution:   1
           1       1:   90    1:   23    1:    8
           2       1:   90    1:   23    9:   16
           3       1:   90    1:   23   17:   24
           4       1:   90    1:   23   25:   32
           5       1:   90    1:   23   33:   39
           6       1:   90    1:   23   40:   46
           7       1:   90    1:   23   47:   53
           8       1:   90    1:   23   54:   60
           9       1:   90   24:   46    1:    8
          10       1:   90   24:   46    9:   16
          11       1:   90   24:   46   17:   24
          12       1:   90   24:   46   25:   32
          13       1:   90   24:   46   33:   39
          14       1:   90   24:   46   40:   46
          15       1:   90   24:   46   47:   53
          16       1:   90   24:   46   54:   60
          17       1:   90   47:   68    1:    8
          18       1:   90   47:   68    9:   16
          19       1:   90   47:   68   17:   24
          20       1:   90   47:   68   25:   32
          21       1:   90   47:   68   33:   39
          22       1:   90   47:   68   40:   46
          23       1:   90   47:   68   47:   53
          24       1:   90   47:   68   54:   60
          25       1:   90   69:   90    1:    8
          26       1:   90   69:   90    9:   16
          27       1:   90   69:   90   17:   24
          28       1:   90   69:   90   25:   32
          29       1:   90   69:   90   33:   39
          30       1:   90   69:   90   40:   46
[...]

Species: O                   
Atom  Qatom  Qorb
               2s      2s      2py     2pz     2px     2py     2pz     2px     
               3Pdxy   3Pdyz   3Pdz2   3Pdxz   3Pdx2-y2
  13  3.237   0.870   0.036   0.817   0.768   0.701   0.008   0.000   0.024
              0.004  -0.000   0.001   0.005   0.004

mulliken: Qtot =       21.000

                     ====================================
                        Begin CG opt. move =    122
                     ====================================

outcoor: Atomic coordinates (Ang):                          
    1.15797915    3.73417393   -0.00000000   1       1  H
    0.51814768    2.88633371   -0.00000002   2       2  N
   -1.22494650    3.21794689    0.00000087   3       3  Si
   -1.48813407    4.69368331    0.00000000   1       4  H
   -2.72427138    1.62194558   -0.00000376   3       5  Si
   -4.21498983    1.82461643    0.00000004   1       6  H
   -1.37627357   -0.17191916    0.00000039   3       7  Si
   -2.03134801   -1.78954039    0.00000021   2       8  N
   -1.39816633   -2.62851474    0.00000001   1       9  H
   -3.05955112   -1.99889091    0.00000000   1      10  H
    0.30806108   -0.07702101    0.00000003   2      11  N
    1.38192846    1.26919989    0.00000006   3      12  Si
    2.97362922    1.30372451   -0.00000004   4      13  O

outcell: Unit cell vectors (Ang):
       14.879181    0.000000    0.000000
        0.000000   15.637803    0.000000
        0.000000    0.000000    9.854683

outcell: Cell vector modules (Ang)   :   14.879181   15.637803    9.854683
outcell: Cell angles (23,13,12) (deg):     90.0000     90.0000     90.0000
outcell: Cell volume (Ang**3)        :   2292.9651
<dSpData1D:S at geom step 122
  <sparsity:sparsity for geom step 122
    nrows_g=129 nrows=5 sparsity=.0379 nnzs=631, refcount: 7>
  <dData1D:(new from dSpData1D) n=631, refcount: 1>
refcount: 1>
new_DM -- step:   123
Re-using DM from previous geometries...
Number of DMs in history: 1
 DM extrapolation coefficients: 
1   1.00000
New DM after history re-use:
<dSpData2D:SpM extrapolated using coords
  <sparsity:sparsity for geom step 122
    nrows_g=129 nrows=5 sparsity=.0379 nnzs=631, refcount: 9>
  <dData2D:(temp array for extrapolation) n=631 m=2, refcount: 1>
refcount: 1>
     spin moment: S , {S} =    0.00000       0.0       0.0   0.00000
No. of atoms with KB's overlaping orbs in proc 0. Max # of overlaps:       9     125
New grid distribution:   1
           1       1:   90    1:   23    1:    8
           2       1:   90    1:   23    9:   16
           3       1:   90    1:   23   17:   24
           4       1:   90    1:   23   25:   32
           5       1:   90    1:   23   33:   39
           6       1:   90    1:   23   40:   46
           7       1:   90    1:   23   47:   53
           8       1:   90    1:   23   54:   60
           9       1:   90   24:   46    1:    8
          10       1:   90   24:   46    9:   16
          11       1:   90   24:   46   17:   24
          12       1:   90   24:   46   25:   32
          13       1:   90   24:   46   33:   39
          14       1:   90   24:   46   40:   46
          15       1:   90   24:   46   47:   53
          16       1:   90   24:   46   54:   60
          17       1:   90   47:   68    1:    8
          18       1:   90   47:   68    9:   16
          19       1:   90   47:   68   17:   24
          20       1:   90   47:   68   25:   32
          21       1:   90   47:   68   33:   39
          22       1:   90   47:   68   40:   46
          23       1:   90   47:   68   47:   53
          24       1:   90   47:   68   54:   60
          25       1:   90   69:   90    1:    8
          26       1:   90   69:   90    9:   16
          27       1:   90   69:   90   17:   24
          28       1:   90   69:   90   25:   32
          29       1:   90   69:   90   33:   39
          30       1:   90   69:   90   40:   46
          31       1:   90   69:   90   47:   53
          32       1:   90   69:   90   54:   60

InitMesh: MESH =   180 x   180 x   120 =     3888000
InitMesh: (bp) =    90 x    90 x    60 =      486000
InitMesh: Mesh cutoff (required, used) =   340.000   366.180 Ry
ExtMesh (bp) on 0 =   202 x   127 x   120 =     3078480
New grid distribution:   2
           1      10:   68    1:    9    1:   20
           2      69:   81    1:    8    1:   23
           3      69:   81    1:    8   24:   60
           4      10:   68    1:    9   21:   60
           5      16:   73   73:   90    1:   20
           6      83:   90   18:   76    1:   20
           7      69:   82    9:   17   24:   60
           8      83:   90    9:   17   24:   60
           9       1:   11   18:   72    1:   20
          10       1:    9    1:    9   21:   60
          11      83:   90   77:   90    1:   20
          12      12:   73   18:   72   21:   60
          13       1:   11   18:   72   21:   60
          14      10:   68   10:   17    1:   20
          15      69:   82    9:   17    1:   23
          16      82:   90    1:    8    1:   23
          17      12:   73   18:   72    1:   20
          18       1:    9   10:   17   21:   60
          19      83:   90    9:   17    1:   23
          20      83:   90   18:   76   21:   60
          21      74:   82   18:   76   21:   60
          22       1:   15   73:   90    1:   20
          23      82:   90    1:    8   24:   60
          24       1:    9    1:    9    1:   20
          25      74:   82   18:   76    1:   20
          26      74:   82   77:   90    1:   20
          27      83:   90   77:   90   21:   60
          28      16:   73   73:   90   21:   60
          29      10:   68   10:   17   21:   60
          30       1:   15   73:   90   21:   60
          31      74:   82   77:   90   21:   60
          32       1:    9   10:   17    1:   20
New grid distribution:   3
           1      17:   56   13:   27    1:   26
           2      20:   56    1:   12    1:   26
           3       1:   20   77:   90    1:   23
           4       1:   16   13:   27   27:   60
           5      17:   56   13:   27   27:   60
           6      19:   56    1:   12   27:   60
           7      57:   74   14:   27   28:   60
           8      57:   74    1:   13    1:   27
           9      14:   67   28:   76    1:   23
          10      68:   79   28:   68    1:   25
          11      57:   74    1:   13   28:   60
          12       1:   16   13:   27    1:   26
          13      68:   79   28:   69   26:   60
          14      80:   90   28:   68    1:   25
          15      75:   90   14:   27   28:   60
          16      80:   90   69:   90    1:   25
          17       1:   13   28:   76    1:   23
          18       1:   18    1:   12   27:   60
          19      75:   90   14:   27    1:   27
          20      14:   67   28:   77   24:   60
          21       1:   13   28:   77   24:   60
          22      68:   79   70:   90   26:   60
          23      75:   90    1:   13   28:   60
          24       1:   19    1:   12    1:   26
          25      21:   67   77:   90    1:   23
          26      57:   74   14:   27    1:   27
          27      68:   79   69:   90    1:   25
          28      20:   67   78:   90   24:   60
          29      80:   90   28:   69   26:   60
          30       1:   19   78:   90   24:   60
          31      80:   90   70:   90   26:   60
          32      75:   90    1:   13    1:   27
Setting up quadratic distribution...
ExtMesh (bp) on 0 =   171 x   113 x   132 =     2550636
PhiOnMesh: Number of (b)points on node 0 =                10620
PhiOnMesh: nlist on node 0 =               184117

        iscf     Eharris(eV)        E_KS(eV)     FreeEng(eV)     dDmax    Ef(eV) dHmax(eV)
   scf:    1    -1750.376235    -1750.376638    -1750.376638  0.000053 -4.302021  0.001905
     spin moment: S , {S} =   -0.00000       0.0       0.0  -0.00000
   scf:    2    -1750.376632    -1750.376636    -1750.376636  0.000098 -4.301151  0.005831
     spin moment: S , {S} =   -0.00000       0.0       0.0  -0.00000
   scf:    3    -1750.376639    -1750.376638    -1750.376638  0.000076 -4.301763  0.000408
     spin moment: S , {S} =    0.00000       0.0       0.0   0.00000

SCF Convergence by DM+H criterion
max |DM_out - DM_in|         :     0.0000758667
max |H_out - H_in|      (eV) :     0.0004075993
SCF cycle converged after 3 iterations

Using DM_out to compute the final energy and forces
No. of atoms with KB's overlaping orbs in proc 0. Max # of overlaps:       9     125

siesta: E_KS(eV) =            -1750.3766
     spin moment: S , {S} =    0.00000       0.0       0.0   0.00000

siesta: Atomic forces (eV/Ang):
     1   -0.004440   -0.003816   -0.000000
     2    0.001699    0.000296    0.000000
     3    0.000558    0.001847    0.000001
     4    0.001780   -0.001877   -0.000000
     5   -0.000852    0.000937   -0.000006
     6   -0.000959   -0.003297    0.000000
     7   -0.000295    0.003634    0.000001
     8   -0.003067    0.000318    0.000000
     9    0.001399    0.000526    0.000000
    10    0.002677    0.000753    0.000000
    11    0.001819   -0.001371    0.000000
    12    0.000509   -0.001885    0.000000
    13   -0.000773   -0.002709    0.000005
----------------------------------------
   Tot    0.000052   -0.006644    0.000002
----------------------------------------
   Max    0.004440
   Res    0.001685    sqrt( Sum f_i^2 / 3N )
----------------------------------------
   Max    0.004440    constrained

Stress tensor Voigt[x,y,z,yz,xz,xy] (kbar):        0.06       -0.66       -0.14       -0.00        0.00       -0.15
(Free)E + p*V (eV/cell)    -1750.0266
Target enthalpy (eV/cell)    -1750.3766

mulliken: Atomic and Orbital Populations:

mulliken: Spin UP 

Species: H                   
Atom  Qatom  Qorb
               1s      1s      2Ppy    2Ppz    2Ppx    
   1  0.381   0.245   0.094   0.012   0.018   0.012
   4  0.599   0.523   0.044   0.018   0.009   0.006
   6  0.607   0.529   0.037   0.009   0.015   0.017
   9  0.379   0.238   0.099   0.015   0.024   0.003
  10  0.382   0.239   0.099   0.008   0.026   0.010

Species: N                   
Atom  Qatom  Qorb
               2s      2s      2py     2pz     2px     2py     2pz     2px     
               3Pdxy   3Pdyz   3Pdz2   3Pdxz   3Pdx2-y2
   2  2.769   0.700   0.059   0.537   0.760   0.497   0.095   0.003   0.110
              0.003   0.001   0.000   0.002   0.001
   8  2.778   0.643   0.085   0.500   0.782   0.532   0.118   0.014   0.097
              0.002   0.001   0.001   0.000   0.002
  11  2.693   0.706   0.065   0.581   0.648   0.434   0.082   0.025   0.140
              0.003   0.003  -0.000   0.003   0.003

Species: Si                  
Atom  Qatom  Qorb
               3s      3s      3py     3pz     3px     3py     3pz     3px     
               3Pdxy   3Pdyz   3Pdz2   3Pdxz   3Pdx2-y2
   3  1.752   0.335   0.191   0.072   0.288   0.156   0.249   0.083   0.153
              0.052   0.014   0.004   0.068   0.087
   5  1.892   0.367   0.172   0.284   0.409   0.033   0.121   0.100   0.264
              0.054   0.014   0.005   0.016   0.054
   7  1.821   0.319   0.181   0.115   0.213   0.124   0.187   0.106   0.189
              0.148   0.072   0.005   0.073   0.089
  12  1.710   0.230   0.182   0.176   0.211   0.042   0.118   0.092   0.233
              0.173   0.040   0.007   0.095   0.110

Species: O                   
Atom  Qatom  Qorb
               2s      2s      2py     2pz     2px     2py     2pz     2px     
               3Pdxy   3Pdyz   3Pdz2   3Pdxz   3Pdx2-y2
  13  3.237   0.870   0.036   0.817   0.768   0.701   0.008   0.000   0.024
              0.004  -0.000   0.001   0.005   0.004

mulliken: Qtot =       21.000

mulliken: Spin DOWN 

Species: H                   
Atom  Qatom  Qorb
               1s      1s      2Ppy    2Ppz    2Ppx    
   1  0.381   0.245   0.094   0.012   0.018   0.012
   4  0.599   0.523   0.044   0.018   0.009   0.006
   6  0.607   0.529   0.037   0.009   0.015   0.017
   9  0.379   0.238   0.099   0.015   0.024   0.003
  10  0.382   0.239   0.099   0.008   0.026   0.010

Species: N                   
Atom  Qatom  Qorb
               2s      2s      2py     2pz     2px     2py     2pz     2px     
               3Pdxy   3Pdyz   3Pdz2   3Pdxz   3Pdx2-y2
   2  2.769   0.700   0.059   0.537   0.760   0.497   0.095   0.003   0.110
              0.003   0.001   0.000   0.002   0.001
   8  2.778   0.643   0.085   0.500   0.782   0.532   0.118   0.014   0.097
              0.002   0.001   0.001   0.000   0.002
  11  2.693   0.706   0.065   0.581   0.648   0.434   0.082   0.025   0.140
              0.003   0.003  -0.000   0.003   0.003

Species: Si                  
Atom  Qatom  Qorb
               3s      3s      3py     3pz     3px     3py     3pz     3px     
               3Pdxy   3Pdyz   3Pdz2   3Pdxz   3Pdx2-y2
   3  1.752   0.335   0.191   0.072   0.288   0.156   0.249   0.083   0.153
              0.052   0.014   0.004   0.068   0.087
   5  1.892   0.367   0.172   0.284   0.409   0.033   0.121   0.100   0.264
              0.054   0.014   0.005   0.016   0.054
   7  1.821   0.319   0.181   0.115   0.213   0.124   0.187   0.106   0.189
              0.148   0.072   0.005   0.073   0.089
  12  1.710   0.230   0.182   0.176   0.211   0.042   0.118   0.092   0.233
              0.173   0.040   0.007   0.095   0.110

Species: O                   
Atom  Qatom  Qorb
               2s      2s      2py     2pz     2px     2py     2pz     2px     
               3Pdxy   3Pdyz   3Pdz2   3Pdxz   3Pdx2-y2
  13  3.237   0.870   0.036   0.817   0.768   0.701   0.008   0.000   0.024
              0.004  -0.000   0.001   0.005   0.004

mulliken: Qtot =       21.000

outcoor: Relaxed atomic coordinates (Ang):                  
    1.15797915    3.73417393   -0.00000000   1       1  H
    0.51814768    2.88633371   -0.00000002   2       2  N
   -1.22494650    3.21794689    0.00000087   3       3  Si
   -1.48813407    4.69368331    0.00000000   1       4  H
   -2.72427138    1.62194558   -0.00000376   3       5  Si
   -4.21498983    1.82461643    0.00000004   1       6  H
   -1.37627357   -0.17191916    0.00000039   3       7  Si
   -2.03134801   -1.78954039    0.00000021   2       8  N
   -1.39816633   -2.62851474    0.00000001   1       9  H
   -3.05955112   -1.99889091    0.00000000   1      10  H
    0.30806108   -0.07702101    0.00000003   2      11  N
    1.38192846    1.26919989    0.00000006   3      12  Si
    2.97362922    1.30372451   -0.00000004   4      13  O

coxmol: Writing XMOL coordinates into file C.xyz                                                               

siesta: Eigenvalues (eV):
  ik is       eps
   1  1  -21.9123  -21.5575  -21.0396  -19.4104  -14.6939  -13.2503  -12.8322  -12.4086  -11.9482  -10.7431
         -10.0365   -9.5578   -8.4780   -8.3495   -7.6919   -7.6795   -6.7386   -6.4681   -6.1330   -5.8549
   -5.4306   -3.1184   -2.2563   -1.7489   -1.7131   -1.5811   -0.9719   -0.1770    0.3238    0.7686
    1.2223    1.3913    1.5281    2.0311    2.2426    2.9688    3.2176    3.4830    4.1530    4.3375
    4.4704    4.6387    4.9707    5.5578    5.8742    5.9433    6.2207    6.6492    6.7567    7.1873
    7.8686    7.9754    8.1884    8.3796    8.9702    9.2621    9.7287    9.8146   10.2995   10.9706
   10.9847   11.8830   12.0965   12.7922   12.9045   13.4763   13.9648   14.2120   15.0215   15.2350
   16.9063   17.6888   18.0119   19.2544   20.2764   21.0099   21.6120   22.3938   22.8779   24.1686
   24.7879   25.9535   28.6531   29.4707   30.2586   30.9512   31.3460   31.4749   31.7152   32.4608
   34.5793   35.0294   35.0977   36.1294   37.2243   38.0322   39.2438   39.8663   40.7533   41.3557
   42.7826   43.1185   43.6413   44.2451   44.8770   46.6282   49.1832   50.7974   51.2271   51.7479
   52.7804   54.9819   55.2447   55.3167   55.9016   56.5528   58.9308   60.5994   61.5505   62.1382
   66.7288   67.8935   81.1431   91.1942   98.9583   99.2176  111.6478  126.0963  140.0687
   1  2  -21.9123  -21.5575  -21.0396  -19.4104  -14.6939  -13.2503  -12.8322  -12.4086  -11.9482  -10.7431
         -10.0365   -9.5578   -8.4780   -8.3495   -7.6919   -7.6795   -6.7386   -6.4681   -6.1330   -5.8549
   -5.4306   -3.1184   -2.2563   -1.7489   -1.7131   -1.5811   -0.9719   -0.1770    0.3238    0.7686
    1.2223    1.3913    1.5281    2.0311    2.2426    2.9688    3.2176    3.4830    4.1530    4.3375
    4.4704    4.6387    4.9707    5.5578    5.8742    5.9433    6.2207    6.6492    6.7567    7.1873
    7.8686    7.9754    8.1884    8.3796    8.9702    9.2621    9.7287    9.8146   10.2995   10.9706
   10.9847   11.8830   12.0965   12.7922   12.9045   13.4763   13.9648   14.2120   15.0215   15.2350
   16.9063   17.6888   18.0119   19.2544   20.2764   21.0099   21.6120   22.3938   22.8779   24.1686
   24.7879   25.9535   28.6531   29.4707   30.2586   30.9512   31.3460   31.4749   31.7152   32.4608
   34.5793   35.0294   35.0977   36.1294   37.2243   38.0322   39.2438   39.8663   40.7533   41.3557
   42.7826   43.1185   43.6413   44.2451   44.8770   46.6282   49.1832   50.7974   51.2271   51.7479
   52.7804   54.9819   55.2447   55.3167   55.9016   56.5528   58.9308   60.5994   61.5505   62.1382
   66.7288   67.8935   81.1431   91.1942   98.9583   99.2176  111.6478  126.0963  140.0687
siesta: Fermi energy =      -4.301763 eV

siesta: Program's energy decomposition (eV):
siesta: Ebs     =      -484.427393
siesta: Eions   =      1544.210757
siesta: Ena     =       161.509385
siesta: Ekin    =      1228.152808
siesta: Enl     =     -1143.139156
siesta: Eso     =         0.000000
siesta: Edftu   =         0.000000
siesta: DEna    =        16.776934
siesta: DUscf   =         6.346322
siesta: DUext   =         0.000000
siesta: Exc     =      -475.812174
siesta: eta*DQ  =         0.000000
siesta: Emadel  =         0.000000
siesta: Emeta   =         0.000000
siesta: Emolmec =         0.000000
siesta: Ekinion =         0.000000
siesta: Eharris =     -1750.376639
siesta: Etot    =     -1750.376638
siesta: FreeEng =     -1750.376638

siesta: Final energy (eV):
siesta:  Band Struct. =    -484.427393
siesta:       Kinetic =    1228.152808
siesta:       Hartree =    2740.031677
siesta:       Edftu   =       0.000000
siesta:       Eso     =       0.000000
siesta:    Ext. field =       0.000000
siesta:   Exch.-corr. =    -475.812174
siesta:  Ion-electron =   -6575.146608
siesta:       Ion-ion =    1332.397659
siesta:       Ekinion =       0.000000
siesta:         Total =   -1750.376638
siesta:         Fermi =      -4.301763

siesta: Stress tensor (static) (eV/Ang**3):
siesta:     0.000039   -0.000094   -0.000000
siesta:    -0.000094   -0.000412   -0.000000
siesta:     0.000000   -0.000000   -0.000085

siesta: Cell volume =       2292.965119 Ang**3

siesta: Pressure (static):
siesta:                Solid            Molecule  Units
siesta:           0.00000166          0.00000171  Ry/Bohr**3
siesta:           0.00015265          0.00015690  eV/Ang**3
siesta:           0.24456749          0.25138861  kBar
(Free)E+ p_basis*V_orbitals  =       -1741.515896
(Free)Eharris+ p_basis*V_orbitals  =       -1741.515897
     spin moment: S , {S} =    0.00000       0.0       0.0   0.00000

siesta: Electric dipole (a.u.)  =   -3.107731    0.190776    0.000001
siesta: Electric dipole (Debye) =   -7.899069    0.484904    0.000002

cite: Please see "C.bib" for an exhaustive BiBTeX file.
cite: Please clearly indicate Siesta version in published work: v4.1.5-1-g384057250
cite: This calculation has made use of the following articles
cite: which are encouraged to be cited in a published work.
        Primary SIESTA paper
          DOI: www.doi.org/10.1088/0953-8984/14/11/302


WARNING: alloc-realloc-dealloc name mismatch
         Name: atomlist isa
         Size:               -52. Bytes
         Node:     0
         Subsequent mismatches will not be reported
>> End of run:  19-FEB-2022  20:14:20
Job completed
