Siesta Version  : v4.1.5-1-g384057250
Architecture    : gcc
Compiler version: GNU Fortran (Debian 10.2.1-6) 10.2.1 20210110
Compiler flags  : mpifort -O2 -fPIC -ftree-vectorize -fallow-argument-mismatch
PP flags        : -DFC_HAVE_ABORT -DMPI -DSIESTA__FLOOK -DSIESTA__METIS -DSIESTA__MUMPS -DCDF -DNCDF -DNCDF_4 -DNCDF_PARALLEL -DSIESTA__MRRR -DSIESTA__ELPA
Libraries       : libncdf.a libfdict.a  -lflookall -ldl -lnetcdff -lnetcdf -lhdf5_hl -lhdf5 -lhdf5_fortran -lz -lscalapack-openmpi -lopenblas -lmetis -lzmumps -lcmumps -ldmumps -lmumps_common -lpord -lsmumps -lesmumps -lscotch -lscotcherr -fopenmp -lelpa
PARALLEL version
NetCDF support
NetCDF-4 support
NetCDF-4 MPI-IO support
METIS ordering support
Lua support

* Running on 6 nodes in parallel
>> Start of run:  22-MAY-2023  10:16:14

                           ***********************       
                           *  WELCOME TO SIESTA  *       
                           ***********************       

reinit: Reading from standard input
reinit: Dumped input in INPUT_TMP.77962
************************** Dump of input data file ****************************
SystemLabel      AT
NumberOfAtoms    30
NumberOfSpecies  4
%block ChemicalSpeciesLabel
    1    1  H
    2    7  N
    3   14  Si
    4    8  O
%endblock ChemicalSpeciesLabel
# Single point calculation
MD.TypeOfRun                CG
MD.Steps                    0
SCF.MustConverge            F # In case it does not. There can be 2 very close atoms
AtomicCoordinatesFormat NotScaledCartesianAng
%block AtomicCoordinatesAndAtomicSpecies
2.582377650    -5.776830440   0.000000000       1
1.654759240    -5.269361980   0.000000000       2
0.063128840    -6.101704590   0.000000000       3
0.119223240    -7.596849500   0.000000000       1
-1.376892050   -5.182603740   0.000000000       2
-0.824371900   -3.460866440   0.000000000       3
-1.170571480   -1.270002100   0.000000000       3
-2.706933680   -0.417515780   0.000000000       2
-2.754569660   0.634858620    0.000000000       1
-3.637675640   -0.909967860   0.000000000       1
0.218091790    -0.234193970   0.000000000       2
1.872004100    -0.697162300   0.000000000       3
2.828001130    0.461464770    0.000000000       1
2.648150080    -2.255024470   0.000000000       2
1.391921380    -3.454727220   0.000000000       3
1.859650211    7.080582871    0.000000000       2
0.532278691    8.290787171    0.000000000       3
1.172279961    9.652105411    0.000000000       1
-1.553467249   7.620255821    0.000000000       3
-3.583029849   8.750372011    0.000000000       3
-3.428794079   9.910602221    0.940305280       1
-4.568964569   7.728451391    0.512613700       1
-3.999244809   9.226597861    -1.366678340      1
-1.486971829   5.346279201    0.000000000       3
-2.526020559   4.153219701    0.000000000       4
0.170019751    4.712304011    0.000000000       2
0.152002381    3.649859181    0.000000000       1
1.793622821    5.309374221    0.000000000       3
2.988638991    4.294949021    0.000000000       4
2.859687581    7.426089971    0.000000000       1
%endblock AtomicCoordinatesAndAtomicSpecies
%include ../../../Defaults.fdf
************************** End of input data file *****************************

reinit: -----------------------------------------------------------------------
reinit: System Name: 
reinit: -----------------------------------------------------------------------
reinit: System Label: AT
reinit: -----------------------------------------------------------------------

initatom: Reading input for the pseudopotentials and atomic orbitals ----------
Species number:   1 Atomic number:    1 Label: H
Species number:   2 Atomic number:    7 Label: N
Species number:   3 Atomic number:   14 Label: Si
Species number:   4 Atomic number:    8 Label: O

Ground state valence configuration:   1s01
Reading pseudopotential information in formatted form from H.psf

Pseudopotential generated from a relativistic atomic calculation

Valence configuration for pseudopotential generation:
1s( 1.00) rc: 0.01
2p( 0.00) rc: 0.60
3d( 0.00) rc: 1.99
4f( 0.00) rc: 2.49
Ground state valence configuration:   2s02  2p03
Reading pseudopotential information in formatted form from N.psf

Pseudopotential generated from a relativistic atomic calculation

Valence configuration for pseudopotential generation:
2s( 2.00) rc: 0.94
2p( 3.00) rc: 0.59
3d( 0.00) rc: 3.46
4f( 0.00) rc: 2.47
Ground state valence configuration:   3s02  3p02
Reading pseudopotential information in formatted form from Si.psf

Pseudopotential generated from a relativistic atomic calculation

Valence configuration for pseudopotential generation:
3s( 2.00) rc: 1.67
3p( 2.00) rc: 2.04
3d( 0.00) rc: 2.89
4f( 0.00) rc: 2.49
Ground state valence configuration:   2s02  2p04
Reading pseudopotential information in formatted form from O.psf

Pseudopotential generated from a relativistic atomic calculation

Valence configuration for pseudopotential generation:
2s( 2.00) rc: 0.45
2p( 4.00) rc: 0.92
3d( 0.00) rc: 2.24
4f( 0.00) rc: 0.25
For H, standard SIESTA heuristics set lmxkb to 2
 (one more than the basis l, including polarization orbitals).
Use PS.lmax or PS.KBprojectors blocks to override.
For N, standard SIESTA heuristics set lmxkb to 3
 (one more than the basis l, including polarization orbitals).
Use PS.lmax or PS.KBprojectors blocks to override.
For Si, standard SIESTA heuristics set lmxkb to 3
 (one more than the basis l, including polarization orbitals).
Use PS.lmax or PS.KBprojectors blocks to override.
For O, standard SIESTA heuristics set lmxkb to 3
 (one more than the basis l, including polarization orbitals).
Use PS.lmax or PS.KBprojectors blocks to override.

<basis_specs>
===============================================================================
H                    Z=   1    Mass=  1.0100        Charge= 0.17977+309
Lmxo=0 Lmxkb= 2    BasisType=split      Semic=F
L=0  Nsemic=0  Cnfigmx=1
          i=1  nzeta=2  polorb=1  (1s)
            splnorm:   0.62000    
               vcte:    0.0000    
               rinn:    0.0000    
               qcoe:    0.0000    
               qyuk:    0.0000    
               qwid:   0.10000E-01
                rcs:    0.0000      0.0000    
            lambdas:    1.0000      1.0000    
-------------------------------------------------------------------------------
L=0  Nkbl=1  erefs: 0.17977+309
L=1  Nkbl=1  erefs: 0.17977+309
L=2  Nkbl=1  erefs: 0.17977+309
===============================================================================
</basis_specs>

atom: Called for H                     (Z =   1)

read_vps: Pseudopotential generation method:
read_vps: ATM4.2.7  Troullier-Martins                       
Valence charge for ps generation:    1.00000

xc_check: Exchange-correlation functional:
xc_check: GGA Perdew, Burke & Ernzerhof 1996
V l=0 = -2*Zval/r beyond r=  0.0098
V l=1 = -2*Zval/r beyond r=  0.5817
V l=2 = -2*Zval/r beyond r=  1.9372
All V_l potentials equal beyond r=  1.9372
This should be close to max(r_c) in ps generation
All pots = -2*Zval/r beyond r=  1.9372

VLOCAL1: 99.0% of the norm of Vloc inside     11.567 Ry
VLOCAL1: 99.9% of the norm of Vloc inside     26.362 Ry
atom: Maximum radius for 4*pi*r*r*local-pseudopot. charge    2.25106
atom: Maximum radius for r*vlocal+2*Zval:    1.91306
GHOST: No ghost state for L =  0
GHOST: No ghost state for L =  1
GHOST: No ghost state for L =  2

KBgen: Kleinman-Bylander projectors: 
   l= 0   rc=  2.036604   el= -0.477180   Ekb= -6.081590   kbcos= -0.277285
   l= 1   rc=  2.195416   el=  0.001076   Ekb= -0.926943   kbcos= -0.034643
   l= 2   rc=  2.251056   el=  0.002010   Ekb= -0.130941   kbcos= -0.009788

KBgen: Total number of Kleinman-Bylander projectors:    9
atom: -------------------------------------------------------------------------

atom: SANKEY-TYPE ORBITALS:
atom: Selected multiple-zeta basis: split     

SPLIT: Orbitals with angular momentum L= 0

SPLIT: Basis orbitals for state 1s

SPLIT: PAO cut-off radius determined from an
SPLIT: energy shift=  0.002000 Ry

   izeta = 1
                 lambda =    1.000000
                     rc =    6.518340
                 energy =   -0.475305
                kinetic =    0.912139
    potential(screened) =   -1.387444
       potential(ionic) =   -1.907295

   izeta = 2
                 rmatch =    2.141150
              splitnorm =    0.620000
                 energy =    0.566467
                kinetic =    3.772856
    potential(screened) =   -3.206389
       potential(ionic) =   -3.759093

POLgen: Perturbative polarization orbital with L=  1

POLgen: Polarization orbital for state 1s

   izeta = 1
                     rc =    6.518340
                 energy =    0.533861
                kinetic =    1.121086
    potential(screened) =   -0.587225
       potential(ionic) =   -1.053027
atom: Total number of Sankey-type orbitals:  5

atm_pop: Valence configuration (for local Pseudopot. screening):
 1s( 1.00)                                                            
Vna: chval, zval:    1.00000   1.00000

Vna:  Cut-off radius for the neutral-atom potential:   6.518340

atom: _________________________________________________________________________

<basis_specs>
===============================================================================
N                    Z=   7    Mass=  14.010        Charge= 0.17977+309
Lmxo=1 Lmxkb= 3    BasisType=split      Semic=F
L=0  Nsemic=0  Cnfigmx=2
          i=1  nzeta=2  polorb=0  (2s)
            splnorm:   0.28000    
               vcte:    0.0000    
               rinn:    0.0000    
               qcoe:    0.0000    
               qyuk:    0.0000    
               qwid:   0.10000E-01
                rcs:    0.0000      0.0000    
            lambdas:    1.0000      1.0000    
L=1  Nsemic=0  Cnfigmx=2
          i=1  nzeta=2  polorb=1  (2p)
            splnorm:   0.28000    
               vcte:    0.0000    
               rinn:    0.0000    
               qcoe:    0.0000    
               qyuk:    0.0000    
               qwid:   0.10000E-01
                rcs:    0.0000      0.0000    
            lambdas:    1.0000      1.0000    
-------------------------------------------------------------------------------
L=0  Nkbl=1  erefs: 0.17977+309
L=1  Nkbl=1  erefs: 0.17977+309
L=2  Nkbl=1  erefs: 0.17977+309
L=3  Nkbl=1  erefs: 0.17977+309
===============================================================================
</basis_specs>

atom: Called for N                     (Z =   7)

read_vps: Pseudopotential generation method:
read_vps: ATM4.2.7  Troullier-Martins                       
Valence charge for ps generation:    5.00000

xc_check: Exchange-correlation functional:
xc_check: GGA Perdew, Burke & Ernzerhof 1996
V l=0 = -2*Zval/r beyond r=  1.2889
V l=1 = -2*Zval/r beyond r=  1.2889
V l=2 = -2*Zval/r beyond r=  3.4178
V l=3 = -2*Zval/r beyond r=  2.4084
All V_l potentials equal beyond r=  3.3753
This should be close to max(r_c) in ps generation
All pots = -2*Zval/r beyond r=  3.4178

VLOCAL1: 99.0% of the norm of Vloc inside      3.810 Ry
VLOCAL1: 99.9% of the norm of Vloc inside      8.683 Ry
atom: Maximum radius for 4*pi*r*r*local-pseudopot. charge    4.02088
atom: Maximum radius for r*vlocal+2*Zval:    3.54838
GHOST: No ghost state for L =  0
GHOST: No ghost state for L =  1
GHOST: No ghost state for L =  2
GHOST: No ghost state for L =  3

KBgen: Kleinman-Bylander projectors: 
   l= 0   rc=  3.417763   el= -1.365098   Ekb= -4.433130   kbcos= -0.707855
   l= 1   rc=  3.375302   el= -0.521201   Ekb=-13.264039   kbcos= -0.535594
   l= 2   rc=  3.872880   el=  0.001991   Ekb= -0.641094   kbcos= -0.062456
   l= 3   rc=  3.970931   el=  0.003093   Ekb= -0.474517   kbcos= -0.018236

KBgen: Total number of Kleinman-Bylander projectors:   16
atom: -------------------------------------------------------------------------

atom: SANKEY-TYPE ORBITALS:
atom: Selected multiple-zeta basis: split     

SPLIT: Orbitals with angular momentum L= 0

SPLIT: Basis orbitals for state 2s

SPLIT: PAO cut-off radius determined from an
SPLIT: energy shift=  0.002000 Ry

   izeta = 1
                 lambda =    1.000000
                     rc =    4.730425
                 energy =   -1.363399
                kinetic =    1.245246
    potential(screened) =   -2.608645
       potential(ionic) =   -8.121105

   izeta = 2
                 rmatch =    2.531849
              splitnorm =    0.280000
                 energy =   -0.959908
                kinetic =    2.409435
    potential(screened) =   -3.369343
       potential(ionic) =   -9.427975

SPLIT: Orbitals with angular momentum L= 1

SPLIT: Basis orbitals for state 2p

SPLIT: PAO cut-off radius determined from an
SPLIT: energy shift=  0.002000 Ry

   izeta = 1
                 lambda =    1.000000
                     rc =    5.924108
                 energy =   -0.519262
                kinetic =    3.672940
    potential(screened) =   -4.192202
       potential(ionic) =   -9.518354

   izeta = 2
                 rmatch =    2.531849
              splitnorm =    0.280000
                 energy =   -0.104258
                kinetic =    6.807538
    potential(screened) =   -6.911796
       potential(ionic) =  -13.149920

POLgen: Perturbative polarization orbital with L=  2

POLgen: Polarization orbital for state 2p

   izeta = 1
                     rc =    5.924108
                 energy =    1.427508
                kinetic =    2.872379
    potential(screened) =   -1.444871
       potential(ionic) =   -5.563644
atom: Total number of Sankey-type orbitals: 13

atm_pop: Valence configuration (for local Pseudopot. screening):
 2s( 2.00)                                                            
 2p( 3.00)                                                            
Vna: chval, zval:    5.00000   5.00000

Vna:  Cut-off radius for the neutral-atom potential:   5.924108

atom: _________________________________________________________________________

<basis_specs>
===============================================================================
Si                   Z=  14    Mass=  28.090        Charge= 0.17977+309
Lmxo=1 Lmxkb= 3    BasisType=split      Semic=F
L=0  Nsemic=0  Cnfigmx=3
          i=1  nzeta=2  polorb=0  (3s)
            splnorm:   0.28000    
               vcte:    0.0000    
               rinn:    0.0000    
               qcoe:    0.0000    
               qyuk:    0.0000    
               qwid:   0.10000E-01
                rcs:    0.0000      0.0000    
            lambdas:    1.0000      1.0000    
L=1  Nsemic=0  Cnfigmx=3
          i=1  nzeta=2  polorb=1  (3p)
            splnorm:   0.28000    
               vcte:    0.0000    
               rinn:    0.0000    
               qcoe:    0.0000    
               qyuk:    0.0000    
               qwid:   0.10000E-01
                rcs:    0.0000      0.0000    
            lambdas:    1.0000      1.0000    
-------------------------------------------------------------------------------
L=0  Nkbl=1  erefs: 0.17977+309
L=1  Nkbl=1  erefs: 0.17977+309
L=2  Nkbl=1  erefs: 0.17977+309
L=3  Nkbl=1  erefs: 0.17977+309
===============================================================================
</basis_specs>

atom: Called for Si                    (Z =  14)

read_vps: Pseudopotential generation method:
read_vps: ATM4.2.7  Troullier-Martins                       
Valence charge for ps generation:    4.00000

xc_check: Exchange-correlation functional:
xc_check: GGA Perdew, Burke & Ernzerhof 1996
V l=0 = -2*Zval/r beyond r=  2.7826
V l=1 = -2*Zval/r beyond r=  2.7826
V l=2 = -2*Zval/r beyond r=  2.9253
V l=3 = -2*Zval/r beyond r=  2.7826
All V_l potentials equal beyond r=  2.8530
This should be close to max(r_c) in ps generation
All pots = -2*Zval/r beyond r=  2.9253

VLOCAL1: 99.0% of the norm of Vloc inside      5.333 Ry
VLOCAL1: 99.9% of the norm of Vloc inside     12.154 Ry
atom: Maximum radius for 4*pi*r*r*local-pseudopot. charge    3.39869
atom: Maximum radius for r*vlocal+2*Zval:    2.96205
GHOST: No ghost state for L =  0
GHOST: No ghost state for L =  1
GHOST: No ghost state for L =  2
GHOST: No ghost state for L =  3

KBgen: Kleinman-Bylander projectors: 
   l= 0   rc=  3.075247   el= -0.794092   Ekb=  5.879390   kbcos=  0.167461
   l= 1   rc=  3.153101   el= -0.300068   Ekb=  2.642817   kbcos=  0.058301
   l= 2   rc=  3.273594   el=  0.001958   Ekb= -1.185135   kbcos= -0.104411
   l= 3   rc=  3.232927   el=  0.003046   Ekb= -0.497174   kbcos= -0.015889

KBgen: Total number of Kleinman-Bylander projectors:   16
atom: -------------------------------------------------------------------------

atom: SANKEY-TYPE ORBITALS:
atom: Selected multiple-zeta basis: split     

SPLIT: Orbitals with angular momentum L= 0

SPLIT: Basis orbitals for state 3s

SPLIT: PAO cut-off radius determined from an
SPLIT: energy shift=  0.002000 Ry

   izeta = 1
                 lambda =    1.000000
                     rc =    6.429618
                 energy =   -0.792283
                kinetic =    0.525293
    potential(screened) =   -1.317576
       potential(ionic) =   -3.744923

   izeta = 2
                 rmatch =    3.998416
              splitnorm =    0.280000
                 energy =   -0.583081
                kinetic =    1.069570
    potential(screened) =   -1.652651
       potential(ionic) =   -4.235185

SPLIT: Orbitals with angular momentum L= 1

SPLIT: Basis orbitals for state 3p

SPLIT: PAO cut-off radius determined from an
SPLIT: energy shift=  0.002000 Ry

   izeta = 1
                 lambda =    1.000000
                     rc =    8.464845
                 energy =   -0.298236
                kinetic =    0.785360
    potential(screened) =   -1.083596
       potential(ionic) =   -3.273779

   izeta = 2
                 rmatch =    4.587816
              splitnorm =    0.280000
                 energy =   -0.131871
                kinetic =    1.403687
    potential(screened) =   -1.535557
       potential(ionic) =   -4.015310

POLgen: Perturbative polarization orbital with L=  2

POLgen: Polarization orbital for state 3p

   izeta = 1
                     rc =    8.464845
                 energy =    0.321949
                kinetic =    1.055677
    potential(screened) =   -0.733728
       potential(ionic) =   -2.672950
atom: Total number of Sankey-type orbitals: 13

atm_pop: Valence configuration (for local Pseudopot. screening):
 3s( 2.00)                                                            
 3p( 2.00)                                                            
Vna: chval, zval:    4.00000   4.00000

Vna:  Cut-off radius for the neutral-atom potential:   8.464845

atom: _________________________________________________________________________

<basis_specs>
===============================================================================
O                    Z=   8    Mass=  16.000        Charge= 0.17977+309
Lmxo=1 Lmxkb= 3    BasisType=split      Semic=F
L=0  Nsemic=0  Cnfigmx=2
          i=1  nzeta=2  polorb=0  (2s)
            splnorm:   0.28000    
               vcte:    0.0000    
               rinn:    0.0000    
               qcoe:    0.0000    
               qyuk:    0.0000    
               qwid:   0.10000E-01
                rcs:    0.0000      0.0000    
            lambdas:    1.0000      1.0000    
L=1  Nsemic=0  Cnfigmx=2
          i=1  nzeta=2  polorb=1  (2p)
            splnorm:   0.28000    
               vcte:    0.0000    
               rinn:    0.0000    
               qcoe:    0.0000    
               qyuk:    0.0000    
               qwid:   0.10000E-01
                rcs:    0.0000      0.0000    
            lambdas:    1.0000      1.0000    
-------------------------------------------------------------------------------
L=0  Nkbl=1  erefs: 0.17977+309
L=1  Nkbl=1  erefs: 0.17977+309
L=2  Nkbl=1  erefs: 0.17977+309
L=3  Nkbl=1  erefs: 0.17977+309
===============================================================================
</basis_specs>

atom: Called for O                     (Z =   8)

read_vps: Pseudopotential generation method:
read_vps: ATM4.2.7  Troullier-Martins                       
Valence charge for ps generation:    6.00000

xc_check: Exchange-correlation functional:
xc_check: GGA Perdew, Burke & Ernzerhof 1996
V l=0 = -2*Zval/r beyond r=  1.1000
V l=1 = -2*Zval/r beyond r=  1.1000
V l=2 = -2*Zval/r beyond r=  2.2154
V l=3 = -2*Zval/r beyond r=  1.1000
All V_l potentials equal beyond r=  2.2154
This should be close to max(r_c) in ps generation
All pots = -2*Zval/r beyond r=  2.2154

VLOCAL1: 99.0% of the norm of Vloc inside      8.845 Ry
VLOCAL1: 99.9% of the norm of Vloc inside     20.157 Ry
atom: Maximum radius for 4*pi*r*r*local-pseudopot. charge    2.67231
atom: Maximum radius for r*vlocal+2*Zval:    2.32897
GHOST: No ghost state for L =  0
GHOST: No ghost state for L =  1
GHOST: No ghost state for L =  2
GHOST: No ghost state for L =  3

KBgen: Kleinman-Bylander projectors: 
   l= 0   rc=  2.243238   el= -1.759686   Ekb=**********   kbcos= -0.171774
   l= 1   rc=  2.328968   el= -0.663873   Ekb=-14.506792   kbcos= -0.519897
   l= 2   rc=  2.573941   el=  0.002031   Ekb= -1.137373   kbcos= -0.019581
   l= 3   rc=  2.606321   el=  0.003153   Ekb= -1.013546   kbcos= -0.003122

KBgen: Total number of Kleinman-Bylander projectors:   16
atom: -------------------------------------------------------------------------

atom: SANKEY-TYPE ORBITALS:
atom: Selected multiple-zeta basis: split     

SPLIT: Orbitals with angular momentum L= 0

SPLIT: Basis orbitals for state 2s

SPLIT: PAO cut-off radius determined from an
SPLIT: energy shift=  0.002000 Ry

   izeta = 1
                 lambda =    1.000000
                     rc =    4.243912
                 energy =   -1.758270
                kinetic =    3.286084
    potential(screened) =   -5.044353
       potential(ionic) =  -12.921184

   izeta = 2
                 rmatch =    2.187845
              splitnorm =    0.280000
                 energy =   -0.885018
                kinetic =    8.134434
    potential(screened) =   -9.019452
       potential(ionic) =  -17.710645

SPLIT: Orbitals with angular momentum L= 1

SPLIT: Basis orbitals for state 2p

SPLIT: PAO cut-off radius determined from an
SPLIT: energy shift=  0.002000 Ry

   izeta = 1
                 lambda =    1.000000
                     rc =    5.314825
                 energy =   -0.661986
                kinetic =    4.917472
    potential(screened) =   -5.579458
       potential(ionic) =  -13.236259

   izeta = 2
                 rmatch =    2.160663
              splitnorm =    0.280000
                 energy =   -0.068760
                kinetic =    9.183374
    potential(screened) =   -9.252135
       potential(ionic) =  -18.274251

POLgen: Perturbative polarization orbital with L=  2

POLgen: Polarization orbital for state 2p

   izeta = 1
                     rc =    5.314825
                 energy =    1.970580
                kinetic =    3.886128
    potential(screened) =   -1.915547
       potential(ionic) =   -7.749584
atom: Total number of Sankey-type orbitals: 13

atm_pop: Valence configuration (for local Pseudopot. screening):
 2s( 2.00)                                                            
 2p( 4.00)                                                            
Vna: chval, zval:    6.00000   6.00000

Vna:  Cut-off radius for the neutral-atom potential:   5.314825

atom: _________________________________________________________________________

prinput: Basis input ----------------------------------------------------------

PAO.BasisType split     

%block ChemicalSpeciesLabel
    1    1 H                       # Species index, atomic number, species label
    2    7 N                       # Species index, atomic number, species label
    3   14 Si                      # Species index, atomic number, species label
    4    8 O                       # Species index, atomic number, species label
%endblock ChemicalSpeciesLabel

%block PAO.Basis                 # Define Basis set
H                     1                    # Species label, number of l-shells
 n=1   0   2 P   1                   # n, l, Nzeta, Polarization, NzetaPol
   6.518      2.141   
   1.000      1.000   
N                     2                    # Species label, number of l-shells
 n=2   0   2                         # n, l, Nzeta 
   4.730      2.532   
   1.000      1.000   
 n=2   1   2 P   1                   # n, l, Nzeta, Polarization, NzetaPol
   5.924      2.532   
   1.000      1.000   
Si                    2                    # Species label, number of l-shells
 n=3   0   2                         # n, l, Nzeta 
   6.430      3.998   
   1.000      1.000   
 n=3   1   2 P   1                   # n, l, Nzeta, Polarization, NzetaPol
   8.465      4.588   
   1.000      1.000   
O                     2                    # Species label, number of l-shells
 n=2   0   2                         # n, l, Nzeta 
   4.244      2.188   
   1.000      1.000   
 n=2   1   2 P   1                   # n, l, Nzeta, Polarization, NzetaPol
   5.315      2.161   
   1.000      1.000   
%endblock PAO.Basis

prinput: ----------------------------------------------------------------------

Dumping basis to NetCDF file H.ion.nc
Dumping basis to NetCDF file N.ion.nc
Dumping basis to NetCDF file Si.ion.nc
Dumping basis to NetCDF file O.ion.nc
coor:   Atomic-coordinates input format  =     Cartesian coordinates
coor:                                          (in Angstroms)

siesta: Atomic coordinates (Bohr) and species
siesta:      4.87999 -10.91663   0.00000  1        1
siesta:      3.12704  -9.95765   0.00000  2        2
siesta:      0.11930 -11.53056   0.00000  3        3
siesta:      0.22530 -14.35597   0.00000  1        4
siesta:     -2.60195  -9.79371   0.00000  2        5
siesta:     -1.55784  -6.54009   0.00000  3        6
siesta:     -2.21206  -2.39996   0.00000  3        7
siesta:     -5.11537  -0.78899   0.00000  2        8
siesta:     -5.20538   1.19971   0.00000  1        9
siesta:     -6.87421  -1.71959   0.00000  1       10
siesta:      0.41213  -0.44256   0.00000  2       11
siesta:      3.53758  -1.31745   0.00000  3       12
siesta:      5.34415   0.87204   0.00000  1       13
siesta:      5.00428  -4.26138   0.00000  2       14
siesta:      2.63035  -6.52849   0.00000  3       15
siesta:      3.51423  13.38037   0.00000  2       16
siesta:      1.00586  15.66732   0.00000  3       17
siesta:      2.21529  18.23984   0.00000  1       18
siesta:     -2.93563  14.40020   0.00000  3       19
siesta:     -6.77095  16.53581   0.00000  3       20
siesta:     -6.47948  18.72833   1.77692  1       21
siesta:     -8.63410  14.60466   0.96870  1       22
siesta:     -7.55748  17.43575  -2.58265  1       23
siesta:     -2.80997  10.10301   0.00000  3       24
siesta:     -4.77349   7.84845   0.00000  4       25
siesta:      0.32129   8.90497   0.00000  2       26
siesta:      0.28724   6.89724   0.00000  1       27
siesta:      3.38946  10.03327   0.00000  3       28
siesta:      5.64771   8.11628   0.00000  4       29
siesta:      5.40403  14.03328   0.00000  1       30

siesta: Automatic unit cell vectors (Ang):
siesta:   15.855221    0.000000    0.000000
siesta:    0.000000   26.846780    0.000000
siesta:    0.000000    0.000000   10.224979

siesta: System type = molecule  

initatomlists: Number of atoms, orbitals, and projectors:     30   302   403

siesta: ******************** Simulation parameters ****************************
siesta:
siesta: The following are some of the parameters of the simulation.
siesta: A complete list of the parameters used, including default values,
siesta: can be found in file out.fdf
siesta:
redata: Spin configuration                          = spin-orbit
redata: Number of spin components                   = 8
redata: Time-Reversal Symmetry                      = F
redata: Spin spiral                                 = F
############################################################
This spin-orbit implementation uses a local approximation.
From 4.2 and onwards the full non-local approximation is implemented
You are strongly advised to use >=4.2 versions!
############################################################
redata: Long output                                 =   F
redata: Number of Atomic Species                    =        4
redata: Charge density info will appear in .RHO file
redata: Write Mulliken Pop.                         = Atomic and Orbital charges
redata: Matel table size (NRTAB)                    =     1024
redata: Mesh Cutoff                                 =   340.0000 Ry
redata: Net charge of the system                    =     0.0000 |e|
redata: Min. number of SCF Iter                     =        1
redata: Max. number of SCF Iter                     =      200
redata: SCF mix quantity                            = Hamiltonian
redata: Mix DM or H after convergence               =   F
redata: Recompute H after scf cycle                 =   F
redata: Mix DM in first SCF step                    =   T
redata: Write Pulay info on disk                    =   F
redata: New DM Occupancy tolerance                  = 0.000000000001
redata: No kicks to SCF
redata: DM Mixing Weight for Kicks                  =     0.5000
redata: Require Harris convergence for SCF          =   F
redata: Harris energy tolerance for SCF             =     0.000100 eV
redata: Require DM convergence for SCF              =   T
redata: DM tolerance for SCF                        =     0.000008
redata: Require EDM convergence for SCF             =   F
redata: EDM tolerance for SCF                       =     0.001000 eV
redata: Require H convergence for SCF               =   T
redata: Hamiltonian tolerance for SCF               =     0.000001 eV
redata: Require (free) Energy convergence for SCF   =   F
redata: (free) Energy tolerance for SCF             =     0.000100 eV
redata: Using Saved Data (generic)                  =   F
redata: Use continuation files for DM               =   F
redata: Neglect nonoverlap interactions             =   F
redata: Method of Calculation                       = Diagonalization
redata: Electronic Temperature                      =   299.9978 K
redata: Fix the spin of the system                  =   F
redata: Dynamics option                             = Single-point calculation
mix.SCF: Pulay mixing                            = Pulay
mix.SCF:    Variant                              = stable
mix.SCF:    History steps                        = 6
mix.SCF:    Linear mixing weight                 =     0.250000
mix.SCF:    Mixing weight                        =     0.250000
mix.SCF:    SVD condition                        = 0.1000E-07
mix.SCF:    Restart steps                        = 24
mix.SCF:    Restart save steps                   = 3
mix.SCF: Spin-component mixing                   all
redata: Save all siesta data in one NC              =   F
redata: ***********************************************************************

%block SCF.Mixers
  Pulay
%endblock SCF.Mixers

%block SCF.Mixer.Pulay
  # Mixing method
  method pulay
  variant stable

  # Mixing options
  weight 0.2500
  weight.linear 0.2500
  history 6
  restart 24
  restart.save 3
%endblock SCF.Mixer.Pulay

DM_history_depth set to one: no extrapolation allowed by default for geometry relaxation
Size of DM history Fstack: 1
Total number of electrons:    98.000000
Total ionic charge:    98.000000

* ProcessorY, Blocksize:    2  24


* Orbital distribution balance (max,min):    62    48


Time-reversal symmetry not used.

siesta: k-grid: Number of k-points =     1
siesta: k-grid: Cutoff (effective) =     5.112 Ang
siesta: k-grid: Supercell and displacements
siesta: k-grid:    1   0   0      0.000
siesta: k-grid:    0   1   0      0.000
siesta: k-grid:    0   0   1      0.000

diag: Algorithm                                     = ELPA-1stage
diag: Parallel over k                               =   F
diag: Use parallel 2D distribution                  =   T
diag: Parallel block-size                           = 24
diag: Parallel distribution                         =     2 x     3
diag: Used triangular part                          = Lower
diag: Absolute tolerance                            =  0.100E-15
diag: Orthogonalization factor                      =  0.100E-05
diag: Memory factor                                 =  1.0000


ts: **************************************************************
ts: Save H and S matrices                           =    F
ts: Save DM and EDM matrices                        =    F
ts: Only save the overlap matrix S                  =    F
ts: **************************************************************

************************ Begin: TS CHECKS AND WARNINGS ************************
************************ End: TS CHECKS AND WARNINGS **************************


                     ====================================
                        Single-point calculation
                     ====================================

outcoor: Atomic coordinates (Ang):                          
    2.58237765   -5.77683044    0.00000000   1       1  H
    1.65475924   -5.26936198    0.00000000   2       2  N
    0.06312884   -6.10170459    0.00000000   3       3  Si
    0.11922324   -7.59684950    0.00000000   1       4  H
   -1.37689205   -5.18260374    0.00000000   2       5  N
   -0.82437190   -3.46086644    0.00000000   3       6  Si
   -1.17057148   -1.27000210    0.00000000   3       7  Si
   -2.70693368   -0.41751578    0.00000000   2       8  N
   -2.75456966    0.63485862    0.00000000   1       9  H
   -3.63767564   -0.90996786    0.00000000   1      10  H
    0.21809179   -0.23419397    0.00000000   2      11  N
    1.87200410   -0.69716230    0.00000000   3      12  Si
    2.82800113    0.46146477    0.00000000   1      13  H
    2.64815008   -2.25502447    0.00000000   2      14  N
    1.39192138   -3.45472722    0.00000000   3      15  Si
    1.85965021    7.08058287    0.00000000   2      16  N
    0.53227869    8.29078717    0.00000000   3      17  Si
    1.17227996    9.65210541    0.00000000   1      18  H
   -1.55346725    7.62025582    0.00000000   3      19  Si
   -3.58302985    8.75037201    0.00000000   3      20  Si
   -3.42879408    9.91060222    0.94030528   1      21  H
   -4.56896457    7.72845139    0.51261370   1      22  H
   -3.99924481    9.22659786   -1.36667834   1      23  H
   -1.48697183    5.34627920    0.00000000   3      24  Si
   -2.52602056    4.15321970    0.00000000   4      25  O
    0.17001975    4.71230401    0.00000000   2      26  N
    0.15200238    3.64985918    0.00000000   1      27  H
    1.79362282    5.30937422    0.00000000   3      28  Si
    2.98863899    4.29494902    0.00000000   4      29  O
    2.85968758    7.42608997    0.00000000   1      30  H

outcell: Unit cell vectors (Ang):
       15.855221    0.000000    0.000000
        0.000000   26.846780    0.000000
        0.000000    0.000000   10.224979

outcell: Cell vector modules (Ang)   :   15.855221   26.846780   10.224979
outcell: Cell angles (23,13,12) (deg):     90.0000     90.0000     90.0000
outcell: Cell volume (Ang**3)        :   4352.3812
<dSpData1D:S at geom step 0
  <sparsity:sparsity for geom step 0
    nrows_g=302 nrows=62 sparsity=.1196 nnzs=10906, refcount: 8>
  <dData1D:(new from dSpData1D) n=10906, refcount: 1>
refcount: 1>
new_DM -- step:     1
Initializing Density Matrix...
DM filled with atomic data:
<dSpData2D:DM initialized from atoms
  <sparsity:sparsity for geom step 0
    nrows_g=302 nrows=62 sparsity=.1196 nnzs=10906, refcount: 9>
  <dData2D:DM n=10906 m=8, refcount: 1>
refcount: 1>
     spin moment: S , {S} =   56.00000   0.00000   0.00000  56.00000
No. of atoms with KB's overlaping orbs in proc 0. Max # of overlaps:      24     157

Initializing spin-orbit part of the Hamiltonian
  Adding spin-orbit effects for H 
  Adding spin-orbit effects for N 
  Adding spin-orbit effects for Si
  Adding spin-orbit effects for O 


New grid distribution:   1
           1       1:   90    1:   75    1:   20
           2       1:   90    1:   75   21:   40
           3       1:   90    1:   75   41:   60
           4       1:   90   76:  150    1:   20
           5       1:   90   76:  150   21:   40
           6       1:   90   76:  150   41:   60

InitMesh: MESH =   180 x   300 x   120 =     6480000
InitMesh: (bp) =    90 x   150 x    60 =      810000
InitMesh: Mesh cutoff (required, used) =   340.000   345.112 Ry
ExtMesh (bp) on 0 =   194 x   179 x   128 =     4444928
New grid distribution:   2
           1      14:   90   34:   52    1:   60
           2       1:   11   53:  150    1:   60
           3       1:   13    1:   52    1:   60
           4      12:   90   53:  130    1:   60
           5      14:   90    1:   33    1:   60
           6      12:   90  131:  150    1:   60
New grid distribution:   3
           1       1:   19   58:  150    1:   60
           2      23:   90   34:   57    1:   60
           3       1:   22    1:   57    1:   60
           4      20:   90   58:  122    1:   60
           5      23:   90    1:   33    1:   60
           6      20:   90  123:  150    1:   60
Setting up quadratic distribution...
ExtMesh (bp) on 0 =   181 x   123 x   168 =     3740184
PhiOnMesh: Number of (b)points on node 0 =                87780
PhiOnMesh: nlist on node 0 =              1650797

stepf: Fermi-Dirac step function

siesta: Program's energy decomposition (eV):
siesta: Ebs     =      -626.508657
siesta: Eions   =      3553.971015
siesta: Ena     =       377.803293
siesta: Ekin    =      3182.708573
siesta: Enl     =     -2997.736507
siesta: Eso     =        -0.003905
siesta: Edftu   =         0.000000
siesta: DEna    =       130.346378
siesta: DUscf   =        76.442060
siesta: DUext   =         0.000000
siesta: Exc     =     -1171.226907
siesta: eta*DQ  =         0.000000
siesta: Emadel  =         0.000000
siesta: Emeta   =         0.000000
siesta: Emolmec =         0.000000
siesta: Ekinion =         0.000000
siesta: Eharris =     -3883.228452
siesta: Etot    =     -3955.638029
siesta: FreeEng =     -3955.642231

        iscf     Eharris(eV)        E_KS(eV)     FreeEng(eV)     dDmax    Ef(eV) dHmax(eV)
   scf:    1    -3883.228452    -3955.638029    -3955.642231  0.971510 -4.940635 21.483707
     spin moment: S , {S} =    2.03172   0.00003   0.00001   2.03172
timer: Routine,Calls,Time,% = IterSCF        1       5.438  21.39
   scf:    2    -3998.717977    -3989.737429    -3989.737430  0.457050 -4.355124 10.566002
     spin moment: S , {S} =    2.00011  -0.00001   0.00004   2.00011
   scf:    3    -3984.984987    -3993.230178    -3993.265454  0.416226 -4.252221  8.427487
     spin moment: S , {S} =    0.76765   0.00002   0.00000   0.76765
   scf:    4    -4000.402808    -3997.564910    -3997.564910  0.127674 -3.949083  5.285273
     spin moment: S , {S} =    0.00010   0.00001  -0.00000   0.00010
   scf:    5    -3998.940633    -3998.309425    -3998.309425  0.033132 -3.879314  2.827617
     spin moment: S , {S} =    0.00005   0.00000  -0.00000   0.00005
   scf:    6    -3998.909834    -3998.618704    -3998.618704  0.023378 -3.890888  1.631440
     spin moment: S , {S} =    0.00003   0.00000  -0.00000   0.00003
   scf:    7    -3998.947163    -3998.776137    -3998.776137  0.022080 -3.940782  0.666156
     spin moment: S , {S} =    0.00001   0.00000  -0.00000   0.00001
   scf:    8    -3998.870779    -3998.821617    -3998.821618  0.010258 -3.973810  0.359422
     spin moment: S , {S} =    0.00000   0.00000  -0.00000   0.00000
   scf:    9    -3998.862600    -3998.841067    -3998.841071  0.007159 -3.988201  0.238436
     spin moment: S , {S} =    0.00001   0.00000  -0.00000  -0.00001
   scf:   10    -3998.879815    -3998.857119    -3998.857167  0.014374 -4.001426  0.121957
     spin moment: S , {S} =    0.00011   0.00000   0.00000  -0.00011
   scf:   11    -3998.860313    -3998.858641    -3998.858694  0.004363 -3.994767  0.036160
     spin moment: S , {S} =    0.00002   0.00000   0.00000  -0.00002
   scf:   12    -3998.859457    -3998.859033    -3998.859090  0.001830 -3.993797  0.028993
     spin moment: S , {S} =    0.00001   0.00000   0.00000  -0.00001
   scf:   13    -3998.859539    -3998.859273    -3998.859331  0.001559 -3.992773  0.023240
     spin moment: S , {S} =    0.00000   0.00000   0.00000  -0.00000
   scf:   14    -3998.859784    -3998.859502    -3998.859561  0.002113 -3.992008  0.016160
     spin moment: S , {S} =    0.00000   0.00000   0.00000  -0.00000
   scf:   15    -3998.859754    -3998.859611    -3998.859670  0.001727 -3.991629  0.009771
     spin moment: S , {S} =    0.00000   0.00000   0.00000  -0.00000
   scf:   16    -3998.859699    -3998.859649    -3998.859707  0.001062 -3.991722  0.005119
     spin moment: S , {S} =    0.00000   0.00000   0.00000  -0.00000
   scf:   17    -3998.859683    -3998.859663    -3998.859721  0.000816 -3.991850  0.002870
     spin moment: S , {S} =    0.00000   0.00000   0.00000  -0.00000
   scf:   18    -3998.859668    -3998.859665    -3998.859723  0.000324 -3.991952  0.001412
     spin moment: S , {S} =    0.00000   0.00000   0.00000  -0.00000
   scf:   19    -3998.859666    -3998.859666    -3998.859723  0.000139 -3.991956  0.000788
     spin moment: S , {S} =    0.00000   0.00000   0.00000  -0.00000
   scf:   20    -3998.859666    -3998.859666    -3998.859723  0.000063 -3.991959  0.000533
     spin moment: S , {S} =    0.00000   0.00000   0.00000  -0.00000
   scf:   21    -3998.859666    -3998.859666    -3998.859724  0.000064 -3.991962  0.000313
     spin moment: S , {S} =    0.00000   0.00000   0.00000  -0.00000
   scf:   22    -3998.859666    -3998.859666    -3998.859724  0.000045 -3.991973  0.000194
     spin moment: S , {S} =    0.00000   0.00000   0.00000  -0.00000
   scf:   23    -3998.859666    -3998.859666    -3998.859724  0.000010 -3.991979  0.000145
     spin moment: S , {S} =    0.00000   0.00000   0.00000  -0.00000
   scf:   24    -3998.859666    -3998.859666    -3998.859724  0.000008 -3.991980  0.000109
     spin moment: S , {S} =    0.00000   0.00000   0.00000  -0.00000
mix: Pulay -- resetting history
   scf:   25    -3998.859666    -3998.859666    -3998.859724  0.000013 -3.991978  0.000042
     spin moment: S , {S} =    0.00000   0.00000   0.00000  -0.00000
   scf:   26    -3998.859666    -3998.859666    -3998.859724  0.000004 -3.991976  0.000014
     spin moment: S , {S} =    0.00000   0.00000   0.00000  -0.00000
   scf:   27    -3998.859666    -3998.859666    -3998.859724  0.000001 -3.991976  0.000008
     spin moment: S , {S} =    0.00000   0.00000   0.00000  -0.00000
   scf:   28    -3998.859666    -3998.859666    -3998.859724  0.000001 -3.991976  0.000006
     spin moment: S , {S} =    0.00000   0.00000  -0.00000  -0.00000
   scf:   29    -3998.859666    -3998.859666    -3998.859724  0.000001 -3.991976  0.000005
     spin moment: S , {S} =    0.00000   0.00000  -0.00000  -0.00000
   scf:   30    -3998.859666    -3998.859666    -3998.859724  0.000000 -3.991976  0.000003
     spin moment: S , {S} =    0.00000   0.00000  -0.00000  -0.00000
   scf:   31    -3998.859666    -3998.859666    -3998.859724  0.000000 -3.991976  0.000002
     spin moment: S , {S} =    0.00000   0.00000  -0.00000  -0.00000
   scf:   32    -3998.859666    -3998.859666    -3998.859724  0.000000 -3.991976  0.000001
     spin moment: S , {S} =    0.00000   0.00000  -0.00000  -0.00000
   scf:   33    -3998.859666    -3998.859666    -3998.859724  0.000000 -3.991976  0.000001
     spin moment: S , {S} =    0.00000   0.00000  -0.00000  -0.00000

SCF Convergence by DM+H criterion
max |DM_out - DM_in|         :     0.0000001380
max |H_out - H_in|      (eV) :     0.0000007142
SCF cycle converged after 33 iterations

Using DM_out to compute the final energy and forces
No. of atoms with KB's overlaping orbs in proc 0. Max # of overlaps:      24     157

siesta: E_KS(eV) =            -3998.8597

siesta: E_KS - E_eggbox =     -3998.8597
     spin moment: S , {S} =    0.00000   0.00000  -0.00000  -0.00000

siesta: Atomic forces (eV/Ang):
     1   -0.022361    0.010243    0.000002
     2   -0.017541   -0.039059   -0.000002
     3   -0.001222    0.042836    0.000004
     4   -0.052704   -0.040397    0.000001
     5    0.011875   -0.037853   -0.000003
     6    0.036177    0.005142    0.000000
     7   -0.142028    0.125994    0.000013
     8    0.089751   -0.072208   -0.000052
     9    0.064006    0.018022    0.000085
    10    0.125194    0.094127    0.000010
    11   -0.029580    0.003155   -0.000016
    12    0.092964    0.077323   -0.000001
    13   -0.139458   -0.167159   -0.000001
    14   -0.018871   -0.095131    0.000001
    15   -0.000781    0.064847   -0.000001
    16    0.025627    0.118697    0.008105
    17    0.002632   -0.052594   -0.039834
    18   -0.152013    0.104066    0.008291
    19   -0.007636    0.026239   -0.041159
    20    0.043269   -0.050197    0.025896
    21   -0.137857    0.241917    0.062535
    22   -0.043407    0.006234    0.027183
    23    0.055192    0.012606   -0.051937
    24    0.088975   -0.118339   -0.026599
    25   -4.679274   -2.624712    0.003011
    26   -0.055980    0.079859    0.006549
    27    0.066816   -0.087456    0.002800
    28   -0.021255   -0.133332   -0.000870
    29    1.989161    0.285810   -0.001133
    30    0.023377    0.159261    0.008265
----------------------------------------
   Tot   -2.806952   -2.042060   -0.008858
----------------------------------------
   Max    4.679274
   Res    0.607625    sqrt( Sum f_i^2 / 3N )
----------------------------------------
   Max    4.679274    constrained

Stress tensor Voigt[x,y,z,yz,xz,xy] (kbar):       -1.80       -0.33       -0.23       -0.04        0.05        0.30
(Free)E + p*V (eV/cell)    -3996.7186
Target enthalpy (eV/cell)    -3998.8597

mulliken: Atomic and Orbital Populations:

Species: H                   

Atom      Orb        Charge      Spin       Svec
----------------------------------------------------------------
    1  1 1s         0.50870   0.00000     -0.000   0.000  -0.000
    1  2 1s         0.18801   0.00000      0.000  -0.000   0.000
    1  3 2Ppy       0.02796   0.00000      0.000   0.000   0.000
    1  4 2Ppz       0.04001   0.00000      0.000   0.000  -0.000
    1  5 2Ppx       0.02507   0.00000     -0.000   0.000   0.000
    1     Total     0.78975   0.00000     -0.000   0.000   0.000

    4  1 1s         1.02408   0.00000      0.000  -0.000  -0.000
    4  2 1s         0.09512   0.00000      0.000   0.000   0.000
    4  3 2Ppy       0.03901   0.00000      0.000  -0.000   0.000
    4  4 2Ppz       0.01994   0.00000     -0.000  -0.000   0.000
    4  5 2Ppx       0.01357   0.00000     -0.000   0.000  -0.000
    4     Total     1.19171   0.00000      0.000  -0.000  -0.000

    9  1 1s         0.47389   0.00000      0.000  -0.000   0.000
    9  2 1s         0.19585   0.00000     -0.000   0.000   0.000
    9  3 2Ppy       0.02564   0.00000      0.000   0.000   0.000
    9  4 2Ppz       0.04748   0.00000      0.000  -0.000  -0.000
    9  5 2Ppx       0.01179   0.00000      0.000  -0.000  -0.000
    9     Total     0.75465   0.00000      0.000  -0.000   0.000

   10  1 1s         0.48282   0.00000      0.000   0.000   0.000
   10  2 1s         0.19597   0.00000     -0.000  -0.000   0.000
   10  3 2Ppy       0.00694   0.00000      0.000  -0.000  -0.000
   10  4 2Ppz       0.05298   0.00000     -0.000  -0.000   0.000
   10  5 2Ppx       0.02912   0.00000     -0.000  -0.000  -0.000
   10     Total     0.76784   0.00000      0.000   0.000   0.000

   13  1 1s         1.00626   0.00000      0.000  -0.000   0.000
   13  2 1s         0.10030   0.00000     -0.000   0.000   0.000
   13  3 2Ppy       0.02630   0.00000     -0.000  -0.000   0.000
   13  4 2Ppz       0.01420   0.00000      0.000   0.000  -0.000
   13  5 2Ppx       0.01771   0.00000     -0.000   0.000   0.000
   13     Total     1.16476   0.00000      0.000  -0.000   0.000

   18  1 1s         1.05004   0.00000      0.000  -0.000  -0.000
   18  2 1s         0.08384   0.00000     -0.000   0.000   0.000
   18  3 2Ppy       0.02782   0.00000     -0.000  -0.000   0.000
   18  4 2Ppz       0.01890   0.00000     -0.000  -0.000  -0.000
   18  5 2Ppx       0.01766   0.00000     -0.000   0.000   0.000
   18     Total     1.19826   0.00000      0.000  -0.000  -0.000

   21  1 1s         1.06642   0.00000     -0.000  -0.000   0.000
   21  2 1s         0.08268   0.00000      0.000   0.000   0.000
   21  3 2Ppy       0.02230   0.00000     -0.000  -0.000  -0.000
   21  4 2Ppz       0.02109   0.00000     -0.000   0.000   0.000
   21  5 2Ppx       0.01158   0.00000     -0.000  -0.000  -0.000
   21     Total     1.20407   0.00000     -0.000  -0.000   0.000

   22  1 1s         1.05240   0.00000     -0.000   0.000  -0.000
   22  2 1s         0.08343   0.00000      0.000  -0.000   0.000
   22  3 2Ppy       0.02010   0.00000      0.000  -0.000   0.000
   22  4 2Ppz       0.01769   0.00000     -0.000  -0.000  -0.000
   22  5 2Ppx       0.01710   0.00000      0.000   0.000   0.000
   22     Total     1.19072   0.00000     -0.000   0.000   0.000

   23  1 1s         1.06492   0.00000      0.000   0.000   0.000
   23  2 1s         0.08212   0.00000     -0.000  -0.000   0.000
   23  3 2Ppy       0.01685   0.00000     -0.000   0.000  -0.000
   23  4 2Ppz       0.02462   0.00000     -0.000   0.000   0.000
   23  5 2Ppx       0.01348   0.00000      0.000  -0.000   0.000
   23     Total     1.20199   0.00000      0.000   0.000   0.000

   27  1 1s         0.46182   0.00000     -0.000   0.000   0.000
   27  2 1s         0.19068   0.00000     -0.000  -0.000  -0.000
   27  3 2Ppy       0.02184   0.00000     -0.000   0.000  -0.000
   27  4 2Ppz       0.02478   0.00000     -0.000  -0.000   0.000
   27  5 2Ppx       0.02889   0.00000      0.000   0.000   0.000
   27     Total     0.72801   0.00000     -0.000   0.000   0.000

   30  1 1s         0.48357   0.00000     -0.000  -0.000  -0.000
   30  2 1s         0.18902   0.00000     -0.000  -0.000   0.000
   30  3 2Ppy       0.02661   0.00000      0.000  -0.000  -0.000
   30  4 2Ppz       0.03450   0.00000      0.000  -0.000   0.000
   30  5 2Ppx       0.02319   0.00000      0.000  -0.000  -0.000
   30     Total     0.75689   0.00000     -0.000  -0.000   0.000

----------------------------------------------------------------
Total              10.94865   0.00000      0.000  -0.000   0.000


Species: N                   

Atom      Orb        Charge      Spin       Svec
----------------------------------------------------------------
    2  1 2s         1.38102   0.00000      0.000  -0.000  -0.000
    2  2 2s         0.12664   0.00000     -0.000   0.000   0.000
    2  3 2py        1.06849   0.00000      0.000   0.000  -0.000
    2  4 2pz        1.49528   0.00000      0.000   0.000  -0.000
    2  5 2px        1.01737   0.00000      0.000  -0.000  -0.000
    2  6 2py        0.19589   0.00000     -0.000  -0.000   0.000
    2  7 2pz        0.01432   0.00000     -0.000  -0.000   0.000
    2  8 2px        0.20995   0.00000     -0.000   0.000   0.000
    2  9 3Pdxy      0.00675   0.00000     -0.000   0.000   0.000
    2 10 3Pdyz      0.00607   0.00000     -0.000   0.000   0.000
    2 11 3Pdz2      0.00151   0.00000      0.000   0.000   0.000
    2 12 3Pdxz      0.00304   0.00000     -0.000  -0.000   0.000
    2 13 3Pdx2-y2   0.00297   0.00000     -0.000  -0.000  -0.000
    2     Total     5.52932   0.00000      0.000   0.000  -0.000

    5  1 2s         1.55802   0.00000     -0.000  -0.000  -0.000
    5  2 2s         0.08120   0.00000      0.000   0.000   0.000
    5  3 2py        0.90447   0.00000      0.000   0.000  -0.000
    5  4 2pz        1.22243   0.00000      0.000  -0.000  -0.000
    5  5 2px        1.14216   0.00000      0.000   0.000  -0.000
    5  6 2py        0.23010   0.00000      0.000  -0.000   0.000
    5  7 2pz        0.05523   0.00000     -0.000   0.000   0.000
    5  8 2px        0.14622   0.00000     -0.000   0.000   0.000
    5  9 3Pdxy      0.00854   0.00000     -0.000  -0.000  -0.000
    5 10 3Pdyz      0.00702   0.00000     -0.000   0.000   0.000
    5 11 3Pdz2      0.00189   0.00000      0.000  -0.000   0.000
    5 12 3Pdxz      0.01128   0.00000     -0.000   0.000   0.000
    5 13 3Pdx2-y2   0.00920   0.00000     -0.000   0.000   0.000
    5     Total     5.37774   0.00000      0.000   0.000  -0.000

    8  1 2s         1.28366   0.00000      0.000  -0.000  -0.000
    8  2 2s         0.17214   0.00000     -0.000   0.000   0.000
    8  3 2py        1.06645   0.00000     -0.000  -0.000  -0.000
    8  4 2pz        1.56897   0.00000      0.000  -0.000  -0.000
    8  5 2px        1.00333   0.00000     -0.000  -0.000  -0.000
    8  6 2py        0.19419   0.00000     -0.000   0.000   0.000
    8  7 2pz        0.02725   0.00000     -0.000  -0.000   0.000
    8  8 2px        0.22876   0.00000      0.000  -0.000   0.000
    8  9 3Pdxy      0.00272   0.00000     -0.000  -0.000   0.000
    8 10 3Pdyz      0.00083   0.00000     -0.000   0.000  -0.000
    8 11 3Pdz2      0.00269   0.00000     -0.000  -0.000   0.000
    8 12 3Pdxz      0.00242   0.00000     -0.000   0.000  -0.000
    8 13 3Pdx2-y2   0.00422   0.00000      0.000  -0.000  -0.000
    8     Total     5.55763   0.00000     -0.000  -0.000  -0.000

   11  1 2s         1.45798   0.00000      0.000  -0.000   0.000
   11  2 2s         0.11398   0.00000     -0.000   0.000   0.000
   11  3 2py        1.22978   0.00000      0.000  -0.000   0.000
   11  4 2pz        1.29079   0.00000     -0.000  -0.000   0.000
   11  5 2px        0.80134   0.00000     -0.000  -0.000   0.000
   11  6 2py        0.10815   0.00000     -0.000   0.000   0.000
   11  7 2pz        0.04543   0.00000      0.000   0.000  -0.000
   11  8 2px        0.31712   0.00000     -0.000   0.000  -0.000
   11  9 3Pdxy      0.00737   0.00000      0.000  -0.000   0.000
   11 10 3Pdyz      0.00599   0.00000      0.000   0.000  -0.000
   11 11 3Pdz2      0.00051   0.00000      0.000   0.000  -0.000
   11 12 3Pdxz      0.00496   0.00000      0.000  -0.000  -0.000
   11 13 3Pdx2-y2   0.00510   0.00000     -0.000   0.000   0.000
   11     Total     5.38850   0.00000      0.000  -0.000   0.000

   14  1 2s         1.50589   0.00000     -0.000  -0.000   0.000
   14  2 2s         0.10262   0.00000      0.000   0.000   0.000
   14  3 2py        0.84479   0.00000      0.000  -0.000   0.000
   14  4 2pz        1.23741   0.00000      0.000  -0.000   0.000
   14  5 2px        1.17620   0.00000      0.000   0.000   0.000
   14  6 2py        0.27714   0.00000     -0.000  -0.000  -0.000
   14  7 2pz        0.05442   0.00000     -0.000   0.000   0.000
   14  8 2px        0.13224   0.00000     -0.000  -0.000   0.000
   14  9 3Pdxy      0.00949   0.00000      0.000  -0.000   0.000
   14 10 3Pdyz      0.00489   0.00000      0.000  -0.000  -0.000
   14 11 3Pdz2      0.00147   0.00000      0.000   0.000   0.000
   14 12 3Pdxz      0.01067   0.00000     -0.000  -0.000  -0.000
   14 13 3Pdx2-y2   0.00792   0.00000     -0.000  -0.000   0.000
   14     Total     5.36515   0.00000      0.000  -0.000   0.000

   16  1 2s         1.37824   0.00000     -0.000   0.000  -0.000
   16  2 2s         0.12609   0.00000      0.000  -0.000   0.000
   16  3 2py        0.99154   0.00000      0.000  -0.000   0.000
   16  4 2pz        1.54737   0.00000     -0.000   0.000  -0.000
   16  5 2px        1.08046   0.00000     -0.000   0.000   0.000
   16  6 2py        0.23938   0.00000     -0.000   0.000  -0.000
   16  7 2pz        0.00322   0.00000     -0.000  -0.000   0.000
   16  8 2px        0.18042   0.00000     -0.000  -0.000  -0.000
   16  9 3Pdxy      0.00155   0.00000     -0.000  -0.000   0.000
   16 10 3Pdyz      0.00476   0.00000      0.000  -0.000  -0.000
   16 11 3Pdz2      0.00088   0.00000     -0.000  -0.000   0.000
   16 12 3Pdxz      0.00237   0.00000      0.000  -0.000  -0.000
   16 13 3Pdx2-y2   0.00609   0.00000      0.000  -0.000  -0.000
   16     Total     5.56235   0.00000     -0.000   0.000   0.000

   26  1 2s         1.37056   0.00000      0.000   0.000   0.000
   26  2 2s         0.12658   0.00000     -0.000  -0.000  -0.000
   26  3 2py        1.11497   0.00000     -0.000  -0.000  -0.000
   26  4 2pz        1.52949   0.00000      0.000  -0.000  -0.000
   26  5 2px        0.94468   0.00000     -0.000   0.000   0.000
   26  6 2py        0.16915   0.00000      0.000   0.000   0.000
   26  7 2pz        0.00493   0.00000     -0.000   0.000   0.000
   26  8 2px        0.26576   0.00000      0.000  -0.000  -0.000
   26  9 3Pdxy      0.00067   0.00000     -0.000  -0.000  -0.000
   26 10 3Pdyz      0.00081   0.00000      0.000   0.000  -0.000
   26 11 3Pdz2     -0.00129   0.00000     -0.000  -0.000  -0.000
   26 12 3Pdxz      0.00466   0.00000      0.000   0.000  -0.000
   26 13 3Pdx2-y2   0.00210   0.00000      0.000   0.000   0.000
   26     Total     5.53308   0.00000     -0.000  -0.000   0.000

----------------------------------------------------------------
Total              49.26241   0.00000      0.000  -0.000   0.000


Species: Si                  

Atom      Orb        Charge      Spin       Svec
----------------------------------------------------------------
    3  1 3s         0.55104   0.00000      0.000  -0.000   0.000
    3  2 3s         0.38739   0.00000     -0.000   0.000   0.000
    3  3 3py        0.08226   0.00000     -0.000   0.000   0.000
    3  4 3pz        0.53677   0.00000     -0.000   0.000   0.000
    3  5 3px        0.36857   0.00000      0.000   0.000   0.000
    3  6 3py        0.49861   0.00000      0.000  -0.000   0.000
    3  7 3pz        0.17576   0.00000      0.000   0.000   0.000
    3  8 3px        0.23714   0.00000     -0.000  -0.000   0.000
    3  9 3Pdxy      0.10822   0.00000     -0.000   0.000   0.000
    3 10 3Pdyz      0.05216   0.00000     -0.000   0.000   0.000
    3 11 3Pdz2      0.01016   0.00000      0.000  -0.000  -0.000
    3 12 3Pdxz      0.13306   0.00000     -0.000   0.000   0.000
    3 13 3Pdx2-y2   0.32447   0.00000      0.000   0.000   0.000
    3     Total     3.46562   0.00000     -0.000   0.000   0.000

    6  1 3s         0.66176   0.00000     -0.000   0.000   0.000
    6  2 3s         0.37031   0.00000      0.000   0.000  -0.000
    6  3 3py        0.13066   0.00000     -0.000  -0.000  -0.000
    6  4 3pz        0.69548   0.00000     -0.000  -0.000   0.000
    6  5 3px        0.49078   0.00000     -0.000  -0.000   0.000
    6  6 3py        0.46557   0.00000      0.000   0.000   0.000
    6  7 3pz        0.24288   0.00000      0.000   0.000   0.000
    6  8 3px        0.24552   0.00000      0.000  -0.000  -0.000
    6  9 3Pdxy      0.18479   0.00000     -0.000  -0.000  -0.000
    6 10 3Pdyz      0.14703   0.00000     -0.000   0.000  -0.000
    6 11 3Pdz2      0.01167   0.00000     -0.000   0.000  -0.000
    6 12 3Pdxz      0.03656   0.00000      0.000   0.000   0.000
    6 13 3Pdx2-y2   0.18851   0.00000     -0.000   0.000  -0.000
    6     Total     3.87152   0.00000     -0.000  -0.000   0.000

    7  1 3s         0.62637   0.00000      0.000  -0.000  -0.000
    7  2 3s         0.36974   0.00000     -0.000   0.000  -0.000
    7  3 3py        0.37332   0.00000      0.000   0.000  -0.000
    7  4 3pz        0.49309   0.00000      0.000   0.000  -0.000
    7  5 3px        0.07971   0.00000     -0.000   0.000  -0.000
    7  6 3py        0.30300   0.00000      0.000   0.000   0.000
    7  7 3pz        0.20821   0.00000     -0.000   0.000  -0.000
    7  8 3px        0.42209   0.00000      0.000   0.000  -0.000
    7  9 3Pdxy      0.20443   0.00000     -0.000  -0.000  -0.000
    7 10 3Pdyz      0.14280   0.00000     -0.000   0.000  -0.000
    7 11 3Pdz2      0.01067   0.00000     -0.000   0.000  -0.000
    7 12 3Pdxz      0.15085   0.00000      0.000   0.000  -0.000
    7 13 3Pdx2-y2   0.24136   0.00000     -0.000  -0.000  -0.000
    7     Total     3.62564   0.00000      0.000   0.000  -0.000

   12  1 3s         0.53064   0.00000      0.000   0.000  -0.000
   12  2 3s         0.40129   0.00000     -0.000  -0.000  -0.000
   12  3 3py        0.22758   0.00000     -0.000  -0.000  -0.000
   12  4 3pz        0.43766   0.00000     -0.000   0.000  -0.000
   12  5 3px        0.29105   0.00000     -0.000   0.000  -0.000
   12  6 3py        0.39708   0.00000      0.000  -0.000   0.000
   12  7 3pz        0.16962   0.00000      0.000  -0.000  -0.000
   12  8 3px        0.34349   0.00000      0.000  -0.000  -0.000
   12  9 3Pdxy      0.38681   0.00000     -0.000  -0.000  -0.000
   12 10 3Pdyz      0.08045   0.00000     -0.000   0.000  -0.000
   12 11 3Pdz2      0.01037   0.00000      0.000  -0.000   0.000
   12 12 3Pdxz      0.09267   0.00000      0.000   0.000  -0.000
   12 13 3Pdx2-y2   0.16495   0.00000      0.000  -0.000  -0.000
   12     Total     3.53365   0.00000     -0.000   0.000  -0.000

   15  1 3s         0.66139   0.00000      0.000  -0.000  -0.000
   15  2 3s         0.36705   0.00000     -0.000   0.000  -0.000
   15  3 3py       -0.03214   0.00000     -0.000  -0.000  -0.000
   15  4 3pz        0.51089   0.00000      0.000   0.000   0.000
   15  5 3px        0.38928   0.00000     -0.000   0.000  -0.000
   15  6 3py        0.47425   0.00000     -0.000  -0.000   0.000
   15  7 3pz        0.20003   0.00000     -0.000  -0.000  -0.000
   15  8 3px        0.34005   0.00000      0.000  -0.000  -0.000
   15  9 3Pdxy      0.14149   0.00000      0.000  -0.000   0.000
   15 10 3Pdyz      0.12586   0.00000     -0.000  -0.000  -0.000
   15 11 3Pdz2      0.01390   0.00000     -0.000   0.000   0.000
   15 12 3Pdxz      0.12476   0.00000     -0.000   0.000   0.000
   15 13 3Pdx2-y2   0.30218   0.00000     -0.000  -0.000  -0.000
   15     Total     3.61900   0.00000     -0.000   0.000   0.000

   17  1 3s         0.73158   0.00000      0.000  -0.000  -0.000
   17  2 3s         0.35636   0.00000     -0.000   0.000   0.000
   17  3 3py        0.09584   0.00000      0.000   0.000  -0.000
   17  4 3pz        0.62606   0.00000     -0.000  -0.000  -0.000
   17  5 3px        0.35552   0.00000      0.000   0.000  -0.000
   17  6 3py        0.45329   0.00000     -0.000  -0.000   0.000
   17  7 3pz        0.15116   0.00000      0.000   0.000  -0.000
   17  8 3px        0.33527   0.00000     -0.000  -0.000   0.000
   17  9 3Pdxy      0.15093   0.00000      0.000  -0.000   0.000
   17 10 3Pdyz      0.02343   0.00000     -0.000  -0.000  -0.000
   17 11 3Pdz2      0.00913   0.00000     -0.000  -0.000   0.000
   17 12 3Pdxz      0.12876   0.00000     -0.000   0.000  -0.000
   17 13 3Pdx2-y2   0.12696   0.00000     -0.000   0.000  -0.000
   17     Total     3.54429   0.00000      0.000  -0.000  -0.000

   19  1 3s         0.86239   0.00000      0.000   0.000   0.000
   19  2 3s         0.31297   0.00000     -0.000  -0.000  -0.000
   19  3 3py        0.44513   0.00000      0.000  -0.000   0.000
   19  4 3pz        0.66012   0.00000      0.000   0.000   0.000
   19  5 3px        0.35333   0.00000     -0.000   0.000   0.000
   19  6 3py        0.32233   0.00000     -0.000   0.000  -0.000
   19  7 3pz        0.26843   0.00000      0.000  -0.000   0.000
   19  8 3px        0.35650   0.00000      0.000  -0.000   0.000
   19  9 3Pdxy      0.09331   0.00000     -0.000   0.000  -0.000
   19 10 3Pdyz      0.02935   0.00000      0.000  -0.000  -0.000
   19 11 3Pdz2      0.01452   0.00000     -0.000  -0.000  -0.000
   19 12 3Pdxz      0.05651   0.00000      0.000  -0.000  -0.000
   19 13 3Pdx2-y2   0.13132   0.00000      0.000   0.000  -0.000
   19     Total     3.90620   0.00000      0.000   0.000   0.000

   20  1 3s         0.54053   0.00000      0.000  -0.000   0.000
   20  2 3s         0.44401   0.00000     -0.000   0.000   0.000
   20  3 3py        0.31052   0.00000     -0.000   0.000  -0.000
   20  4 3pz        0.25484   0.00000     -0.000   0.000  -0.000
   20  5 3px        0.45504   0.00000      0.000   0.000  -0.000
   20  6 3py        0.38748   0.00000      0.000  -0.000   0.000
   20  7 3pz        0.42320   0.00000      0.000  -0.000   0.000
   20  8 3px        0.27759   0.00000     -0.000  -0.000   0.000
   20  9 3Pdxy      0.06999   0.00000      0.000  -0.000  -0.000
   20 10 3Pdyz      0.08424   0.00000     -0.000   0.000   0.000
   20 11 3Pdz2      0.05094   0.00000     -0.000  -0.000  -0.000
   20 12 3Pdxz      0.07242   0.00000      0.000   0.000   0.000
   20 13 3Pdx2-y2   0.04581   0.00000      0.000   0.000   0.000
   20     Total     3.41660   0.00000     -0.000   0.000  -0.000

   24  1 3s         0.60434   0.00000     -0.000   0.000  -0.000
   24  2 3s         0.37000   0.00000      0.000  -0.000  -0.000
   24  3 3py        0.27054   0.00000     -0.000   0.000  -0.000
   24  4 3pz        0.40952   0.00000      0.000  -0.000  -0.000
   24  5 3px        0.16869   0.00000      0.000  -0.000  -0.000
   24  6 3py        0.39750   0.00000      0.000  -0.000  -0.000
   24  7 3pz        0.19311   0.00000     -0.000  -0.000  -0.000
   24  8 3px        0.35966   0.00000     -0.000   0.000  -0.000
   24  9 3Pdxy      0.14251   0.00000      0.000  -0.000   0.000
   24 10 3Pdyz      0.14043   0.00000      0.000   0.000   0.000
   24 11 3Pdz2      0.01511   0.00000     -0.000  -0.000  -0.000
   24 12 3Pdxz      0.12147   0.00000     -0.000   0.000  -0.000
   24 13 3Pdx2-y2   0.34812   0.00000     -0.000  -0.000  -0.000
   24     Total     3.54099   0.00000      0.000  -0.000  -0.000

   28  1 3s         0.43347   0.00000      0.000  -0.000  -0.000
   28  2 3s         0.37788   0.00000     -0.000   0.000  -0.000
   28  3 3py        0.15945   0.00000     -0.000   0.000  -0.000
   28  4 3pz        0.39903   0.00000      0.000  -0.000  -0.000
   28  5 3px        0.16836   0.00000      0.000   0.000  -0.000
   28  6 3py        0.36927   0.00000      0.000  -0.000  -0.000
   28  7 3pz        0.20475   0.00000     -0.000  -0.000  -0.000
   28  8 3px        0.38494   0.00000     -0.000  -0.000  -0.000
   28  9 3Pdxy      0.14390   0.00000     -0.000  -0.000  -0.000
   28 10 3Pdyz      0.12351   0.00000     -0.000  -0.000  -0.000
   28 11 3Pdz2      0.01557   0.00000      0.000   0.000  -0.000
   28 12 3Pdxz      0.15667   0.00000      0.000   0.000  -0.000
   28 13 3Pdx2-y2   0.35141   0.00000     -0.000  -0.000  -0.000
   28     Total     3.28820   0.00000      0.000  -0.000  -0.000

----------------------------------------------------------------
Total              85.07411   0.00000      0.000  -0.000  -0.000


Species: O                   

Atom      Orb        Charge      Spin       Svec
----------------------------------------------------------------
   25  1 2s         1.74447   0.00000     -0.000  -0.000   0.000
   25  2 2s         0.06457   0.00000      0.000   0.000   0.000
   25  3 2py        1.46924   0.00000      0.000  -0.000   0.000
   25  4 2pz        1.51328   0.00000     -0.000   0.000   0.000
   25  5 2px        1.59331   0.00000     -0.000   0.000   0.000
   25  6 2py        0.03328   0.00000      0.000   0.000   0.000
   25  7 2pz       -0.00135   0.00000      0.000  -0.000   0.000
   25  8 2px        0.02318   0.00000      0.000   0.000   0.000
   25  9 3Pdxy      0.00718   0.00000     -0.000   0.000  -0.000
   25 10 3Pdyz      0.00613   0.00000     -0.000  -0.000  -0.000
   25 11 3Pdz2      0.00133   0.00000     -0.000   0.000  -0.000
   25 12 3Pdxz      0.00439   0.00000     -0.000  -0.000  -0.000
   25 13 3Pdx2-y2   0.00733   0.00000     -0.000   0.000   0.000
   25     Total     6.46635   0.00000     -0.000   0.000   0.000

   29  1 2s         1.73323   0.00000     -0.000   0.000   0.000
   29  2 2s         0.07504   0.00000      0.000  -0.000   0.000
   29  3 2py        1.48327   0.00000      0.000  -0.000   0.000
   29  4 2pz        1.52842   0.00000     -0.000   0.000   0.000
   29  5 2px        1.52506   0.00000      0.000   0.000   0.000
   29  6 2py        0.04190   0.00000     -0.000   0.000   0.000
   29  7 2pz        0.00617   0.00000      0.000  -0.000   0.000
   29  8 2px        0.03797   0.00000     -0.000   0.000   0.000
   29  9 3Pdxy      0.00815   0.00000     -0.000   0.000  -0.000
   29 10 3Pdyz      0.00485   0.00000     -0.000  -0.000  -0.000
   29 11 3Pdz2      0.00137   0.00000     -0.000   0.000  -0.000
   29 12 3Pdxz      0.00625   0.00000      0.000   0.000  -0.000
   29 13 3Pdx2-y2   0.00786   0.00000      0.000   0.000  -0.000
   29     Total     6.45954   0.00000      0.000   0.000   0.000

----------------------------------------------------------------
Total              98.00000   0.00000      0.000  -0.000  -0.000


siesta: Eigenvalues (eV):
ik =     1
  -22.9382  -22.9382  -22.5414  -22.5414  -21.9847  -21.9847  -21.2476  -21.2476  -21.0383  -21.0383
  -20.7237  -20.7237  -19.4446  -19.4446  -19.2593  -19.2593  -18.6555  -18.6555  -15.3226  -15.3226
  -14.3838  -14.3838  -13.6809  -13.6809  -13.6369  -13.6369  -13.3073  -13.3073  -12.9299  -12.9299
  -12.5086  -12.5086  -12.0340  -12.0340  -11.9896  -11.9896  -11.5299  -11.5299  -11.4904  -11.4904
  -10.9291  -10.9291  -10.7668  -10.7668  -10.2198  -10.2198   -9.8463   -9.8463   -9.5824   -9.5824
   -9.3498   -9.3498   -9.1843   -9.1843   -9.1430   -9.1430   -8.8534   -8.8534   -8.7335   -8.7335
   -8.4067   -8.4067   -8.1855   -8.1855   -8.1610   -8.1610   -8.1325   -8.1325   -7.9645   -7.9645
   -7.9458   -7.9458   -7.3570   -7.3570   -7.3551   -7.3551   -7.3271   -7.3271   -6.8332   -6.8332
   -6.7613   -6.7613   -6.6569   -6.6569   -6.4002   -6.4002   -6.3984   -6.3984   -6.1551   -6.1551
   -5.9564   -5.9564   -5.7641   -5.7641   -5.5804   -5.5804   -4.2474   -4.2474   -3.7365   -3.7365
   -2.8571   -2.8571   -2.4841   -2.4841   -2.2401   -2.2401   -2.1908   -2.1908   -2.0757   -2.0757
   -1.9683   -1.9683   -1.6762   -1.6762   -1.6003   -1.6003   -1.5976   -1.5976   -1.3715   -1.3715
   -1.0966   -1.0966   -0.6367   -0.6367   -0.4025   -0.4025   -0.2588   -0.2588   -0.2130   -0.2130
   -0.1866   -0.1866   -0.0778   -0.0778    0.2479    0.2479    0.3947    0.3947    0.5548    0.5548
    0.6019    0.6019    0.7229    0.7229    1.0540    1.0540    1.2118    1.2118    1.2971    1.2971
    1.3562    1.3562    1.5681    1.5681    1.8590    1.8590    2.0260    2.0260    2.2165    2.2165
    2.5035    2.5035    2.6174    2.6174    2.6497    2.6497    2.8541    2.8541    2.9681    2.9681
    3.0259    3.0259    3.1002    3.1002    3.1195    3.1195    3.3643    3.3643    3.5573    3.5573
    3.7871    3.7871    3.9112    3.9112    4.2045    4.2045    4.3106    4.3106    4.3793    4.3793
    4.4345    4.4345    4.6113    4.6113    4.7062    4.7062    4.9332    4.9332    4.9968    4.9968
    5.1086    5.1086    5.3141    5.3141    5.4923    5.4923    5.5767    5.5767    5.8661    5.8661
    5.8945    5.8945    6.0304    6.0304    6.1180    6.1180    6.3571    6.3571    6.4916    6.4916
    6.5238    6.5238    6.7125    6.7125    6.7948    6.7948    6.9856    6.9856    7.2178    7.2178
    7.2339    7.2339    7.5575    7.5575    7.7058    7.7058    7.7851    7.7851    7.8841    7.8841
    8.0599    8.0599    8.2837    8.2837    8.3474    8.3474    8.4462    8.4462    8.5012    8.5012
    8.5423    8.5423    8.9833    8.9833    8.9898    8.9898    9.3764    9.3764    9.6629    9.6629
    9.6671    9.6671    9.8892    9.8892    9.8945    9.8945    9.9544    9.9544    9.9965    9.9965
   10.0174   10.0174   10.4972   10.4972   10.6651   10.6651   10.9795   10.9795   11.1065   11.1065
   11.3586   11.3586   11.4510   11.4510   11.5315   11.5315   11.7836   11.7836   11.8377   11.8377
   12.0192   12.0192   12.2950   12.2950   12.5090   12.5090   12.6676   12.6676   12.7327   12.7327
   12.8873   12.8873   13.1623   13.1623   13.3292   13.3292   13.3567   13.3567   13.4542   13.4542
   13.7057   13.7057   13.9935   13.9935   14.3712   14.3712   14.5651   14.5651   14.8175   14.8175
   14.8594   14.8594   15.2869   15.2869   15.5566   15.5566   16.0598   16.0598   16.3002   16.3002
   16.4650   16.4650   16.8580   16.8580   16.9019   16.9019   17.1613   17.1613   17.4249   17.4249
   17.9784   17.9784   18.0523   18.0523   18.3780   18.3780   18.6338   18.6338   18.7943   18.7943
   18.8305   18.8305   19.7703   19.7703   19.9622   19.9622   20.2863   20.2863   20.3874   20.3874
   20.9031   20.9031   21.1211   21.1211   21.3063   21.3063   21.9537   21.9537   22.2799   22.2799
   22.5276   22.5276   22.8664   22.8664   23.0214   23.0214   23.0751   23.0751   23.0884   23.0884
   24.4140   24.4140   24.7289   24.7289   25.1331   25.1331   25.6579   25.6579   25.8874   25.8874
   26.1711   26.1711   26.6319   26.6319   27.0093   27.0093   27.9766   27.9766   28.1561   28.1561
   28.5085   28.5085   28.6007   28.6007   29.7275   29.7275   30.3207   30.3207   30.7431   30.7431
   30.8194   30.8194   30.9520   30.9520   31.3467   31.3467   31.4780   31.4780   31.7666   31.7666
   31.9877   31.9877   32.3767   32.3767   32.7628   32.7628   33.4685   33.4685   33.8989   33.8989
   34.2573   34.2573   34.4045   34.4045   34.4543   34.4543   35.0182   35.0182   35.4751   35.4751
   36.0098   36.0098   36.3808   36.3808   36.7813   36.7813   37.2249   37.2249   37.4714   37.4714
   37.8193   37.8193   38.3725   38.3725   38.6267   38.6267   38.9472   38.9472   38.9569   38.9569
   39.8795   39.8795   40.6056   40.6056   40.8994   40.8994   41.4487   41.4487   41.5252   41.5252
   42.0233   42.0233   42.1098   42.1098   42.8810   42.8810   42.9887   42.9887   43.4661   43.4661
   44.0554   44.0554   44.6653   44.6653   44.8054   44.8054   45.1315   45.1315   45.2977   45.2977
   45.6122   45.6122   45.9215   45.9215   46.5605   46.5605   46.6131   46.6131   47.1809   47.1809
   47.8572   47.8572   48.0542   48.0542   48.8632   48.8632   49.1217   49.1217   49.3614   49.3614
   50.0270   50.0270   50.3535   50.3535   50.4079   50.4079   50.6791   50.6791   51.2414   51.2414
   52.2100   52.2100   52.2651   52.2651   54.0490   54.0490   54.5037   54.5037   54.9235   54.9235
   55.1341   55.1341   55.7206   55.7206   56.2869   56.2869   56.5466   56.5466   56.9632   56.9632
   57.6092   57.6092   58.1618   58.1618   58.9823   58.9823   59.3872   59.3872   59.8228   59.8228
   60.6480   60.6480   61.6615   61.6615   61.7642   61.7642   62.3588   62.3588   63.0999   63.0999
   65.7301   65.7301   66.3589   66.3589   67.2303   67.2303   67.5556   67.5556   68.2483   68.2483
   69.1470   69.1470   71.4564   71.4564   73.8133   73.8133   80.0864   80.0864   92.0112   92.0112
   92.5482   92.5482   93.0608   93.0608   95.6792   95.6792   98.0642   98.0642  100.4837  100.4837
  101.3000  101.3000  103.0922  103.0922  113.7705  113.7705  120.6433  120.6433  123.2024  123.2024
  136.0386  136.0386  140.6258  140.6258
siesta: Fermi energy =      -3.991976 eV

siesta: Program's energy decomposition (eV):
siesta: Ebs     =     -1117.687436
siesta: Eions   =      3553.971015
siesta: Ena     =       377.803293
siesta: Ekin    =      2751.336629
siesta: Enl     =     -2532.232986
siesta: Eso     =        -0.004697
siesta: Edftu   =         0.000000
siesta: DEna    =        37.176668
siesta: DUscf   =        14.099799
siesta: DUext   =         0.000000
siesta: Exc     =     -1093.067358
siesta: eta*DQ  =         0.000000
siesta: Emadel  =         0.000000
siesta: Emeta   =         0.000000
siesta: Emolmec =         0.000000
siesta: Ekinion =         0.000000
siesta: Eharris =     -3998.859666
siesta: Etot    =     -3998.859666
siesta: FreeEng =     -3998.859724

siesta: Final energy (eV):
siesta:  Band Struct. =   -1117.687436
siesta:       Kinetic =    2751.336629
siesta:       Hartree =    7308.836214
siesta:       Edftu   =       0.000000
siesta:       Eso     =      -0.004697
siesta:    Ext. field =       0.000000
siesta:   Exch.-corr. =   -1093.067358
siesta:  Ion-electron =  -17068.065825
siesta:       Ion-ion =    4102.105371
siesta:       Ekinion =       0.000000
siesta:         Total =   -3998.859666
siesta:         Fermi =      -3.991976

siesta: Atomic forces (eV/Ang):
siesta:      1   -0.022361    0.010243    0.000002
siesta:      2   -0.017541   -0.039059   -0.000002
siesta:      3   -0.001222    0.042836    0.000004
siesta:      4   -0.052704   -0.040397    0.000001
siesta:      5    0.011875   -0.037853   -0.000003
siesta:      6    0.036177    0.005142    0.000000
siesta:      7   -0.142028    0.125994    0.000013
siesta:      8    0.089751   -0.072208   -0.000052
siesta:      9    0.064006    0.018022    0.000085
siesta:     10    0.125194    0.094127    0.000010
siesta:     11   -0.029580    0.003155   -0.000016
siesta:     12    0.092964    0.077323   -0.000001
siesta:     13   -0.139458   -0.167159   -0.000001
siesta:     14   -0.018871   -0.095131    0.000001
siesta:     15   -0.000781    0.064847   -0.000001
siesta:     16    0.025627    0.118697    0.008105
siesta:     17    0.002632   -0.052594   -0.039834
siesta:     18   -0.152013    0.104066    0.008291
siesta:     19   -0.007636    0.026239   -0.041159
siesta:     20    0.043269   -0.050197    0.025896
siesta:     21   -0.137857    0.241917    0.062535
siesta:     22   -0.043407    0.006234    0.027183
siesta:     23    0.055192    0.012606   -0.051937
siesta:     24    0.088975   -0.118339   -0.026599
siesta:     25   -4.679274   -2.624712    0.003011
siesta:     26   -0.055980    0.079859    0.006549
siesta:     27    0.066816   -0.087456    0.002800
siesta:     28   -0.021255   -0.133332   -0.000870
siesta:     29    1.989161    0.285810   -0.001133
siesta:     30    0.023377    0.159261    0.008265
siesta: ----------------------------------------
siesta:    Tot   -2.806952   -2.042060   -0.008858

siesta: Stress tensor (static) (eV/Ang**3):
siesta:    -0.001126    0.000189    0.000031
siesta:     0.000189   -0.000208   -0.000028
siesta:     0.000031   -0.000028   -0.000142

siesta: Cell volume =       4352.381167 Ang**3

siesta: Pressure (static):
siesta:                Solid            Molecule  Units
siesta:           0.00000536         -0.00000650  Ry/Bohr**3
siesta:           0.00049193         -0.00059712  eV/Ang**3
siesta:           0.78817003         -0.95670395  kBar
(Free)E+ p_basis*V_orbitals  =       -3977.731639
(Free)Eharris+ p_basis*V_orbitals  =       -3977.731639
     spin moment: S , {S} =    0.00000   0.00000  -0.00000  -0.00000

siesta: Electric dipole (a.u.)  =   -0.293940    2.619581   -0.012948
siesta: Electric dipole (Debye) =   -0.747123    6.658314   -0.032909

cite: Please see "AT.bib" for an exhaustive BiBTeX file.
cite: Please clearly indicate Siesta version in published work: v4.1.5-1-g384057250
cite: This calculation has made use of the following articles
cite: which are encouraged to be cited in a published work.
        Primary SIESTA paper
          DOI: www.doi.org/10.1088/0953-8984/14/11/302
        Spin-orbit coupling (on-site approximation)
          DOI: www.doi.org/10.1088/0953-8984/19/19/489001


WARNING: alloc-realloc-dealloc name mismatch
         Name: atomlist isa
         Size:              -120. Bytes
         Node:     0
         Subsequent mismatches will not be reported
>> End of run:  22-MAY-2023  10:18:15
Job completed
