Siesta Version  : v4.1.5-1-g384057250
Architecture    : gcc
Compiler version: GNU Fortran (Ubuntu 11.4.0-1ubuntu1~22.04) 11.4.0
Compiler flags  : mpifort -O2 -fPIC -ftree-vectorize -fallow-argument-mismatch
PP flags        : -DFC_HAVE_ABORT -DMPI -DSIESTA__FLOOK -DSIESTA__METIS -DSIESTA__MUMPS -DCDF -DNCDF -DNCDF_4 -DNCDF_PARALLEL -DSIESTA__MRRR -DSIESTA__ELPA
Libraries       : libncdf.a libfdict.a  -lflookall -ldl -lnetcdff -lnetcdf -lhdf5_hl -lhdf5 -lhdf5_fortran -lz -lscalapack-openmpi -lopenblas -lmetis -lzmumps -lcmumps -ldmumps -lmumps_common -lpord -lsmumps -lesmumps -lscotch -lscotcherr -fopenmp -lelpa
PARALLEL version
NetCDF support
NetCDF-4 support
NetCDF-4 MPI-IO support
METIS ordering support
Lua support

* Running on 8 nodes in parallel
>> Start of run:   1-FEB-2024  22:16:45

                           ***********************       
                           *  WELCOME TO SIESTA  *       
                           ***********************       

reinit: Reading from standard input
reinit: Dumped input in INPUT_TMP.76173
************************** Dump of input data file ****************************
# mpirun -np 4 siesta-4.1.5 < GC.fdf > GC.out &
SystemLabel      GC
NumberOfAtoms    29
NumberOfSpecies  4
%block ChemicalSpeciesLabel
    1    1  H
    2    7  N
    3   14  Si
    4    8  O
%endblock ChemicalSpeciesLabel
############################################
# This overrides Defaults.fdf configuration
############################################
MD.TypeOfRun                Verlet # CG, Verlet
MD.Steps                    0
MaxSCFIterations            200
SCF.MustConverge            F
AtomicCoordinatesFormat NotScaledCartesianAng
%block AtomicCoordinatesAndAtomicSpecies
    -0.006654578545151724 5.146895587814042 0.0  1  1  H
    -0.7131413085451517 4.356859407814041 0.0  2  2  N
    -2.4434282185451517 4.798223317814041 0.0  3  3  Si
    -2.599207898545152 6.288215577814041 0.0  1  4  H
    -3.9667498385451516 3.239315797814041 0.0  3  5  Si
    -5.449937468545152 3.482146157814041 0.0  1  6  H
    -2.7683589785451517 1.3260396378140413 0.0  3  7  Si
    -3.5343844385451515 -0.2066771021859588 0.0  2  8  N
    -2.9441378885451517 -1.1638901321859587 0.0  1  9  H
    -4.586006758545151 -0.2871373321859587 0.0  1  10  H
    -1.0521589185451516 1.3812139478140413 0.0  2  11  N
    0.022863701454848284 2.7115527878140413 0.0  3  12  Si
    1.6315370214548481 2.6927425278140413 0.0  4  13  O
    5.6164483 -7.44953905 0.0  1  14  H
    4.58206954 -7.2320376 0.0  2  15  N
    3.29666389 -8.492636 0.0  3  16  Si
    3.80117524 -9.90371886 -0.0  1  17  H
    1.65934232 -8.01362137 0.0  2  18  N
    1.68097912 -6.20463398 -0.0  3  19  Si
    0.54543521 -4.28636135 0.0  3  20  Si
    -1.03431493 -3.94450034 0.0  4  21  O
    1.73226934 -2.87719605 0.0  2  22  N
    1.20957366 -1.92961761 -0.0  1  23  H
    3.50853448 -2.77677601 0.0  3  24  Si
    4.13684451 -1.17938608 0.0  2  25  N
    3.54296161 -0.26248101 0.0  1  26  H
    5.18364407 -1.05231197 -0.0  1  27  H
    4.63288658 -4.07521596 -0.0  2  28  N
    3.79410501 -5.58634043 0.0  3  29  Si
%endblock AtomicCoordinatesAndAtomicSpecies
#############
# Unit Cell
#############
LatticeConstant 1.0 Ang
%block LatticeVectors
    30.00000    0.000000    0.000000
    0.000000    45.00000    0.000000
    0.000000    0.000000    10.00000
%endblock LatticeVectors
%include ../../../../Defaults.fdf
************************** End of input data file *****************************

reinit: -----------------------------------------------------------------------
reinit: System Name: 
reinit: -----------------------------------------------------------------------
reinit: System Label: GC
reinit: -----------------------------------------------------------------------

initatom: Reading input for the pseudopotentials and atomic orbitals ----------
Species number:   1 Atomic number:    1 Label: H
Species number:   2 Atomic number:    7 Label: N
Species number:   3 Atomic number:   14 Label: Si
Species number:   4 Atomic number:    8 Label: O

Ground state valence configuration:   1s01
Reading pseudopotential information in formatted form from H.psf

Pseudopotential generated from a relativistic atomic calculation

Valence configuration for pseudopotential generation:
1s( 1.00) rc: 0.01
2p( 0.00) rc: 0.60
3d( 0.00) rc: 1.99
4f( 0.00) rc: 2.49
Ground state valence configuration:   2s02  2p03
Reading pseudopotential information in formatted form from N.psf

Pseudopotential generated from a relativistic atomic calculation

Valence configuration for pseudopotential generation:
2s( 2.00) rc: 0.94
2p( 3.00) rc: 0.59
3d( 0.00) rc: 3.46
4f( 0.00) rc: 2.47
Ground state valence configuration:   3s02  3p02
Reading pseudopotential information in formatted form from Si.psf

Pseudopotential generated from a relativistic atomic calculation

Valence configuration for pseudopotential generation:
3s( 2.00) rc: 1.67
3p( 2.00) rc: 2.04
3d( 0.00) rc: 2.89
4f( 0.00) rc: 2.49
Ground state valence configuration:   2s02  2p04
Reading pseudopotential information in formatted form from O.psf

Pseudopotential generated from a relativistic atomic calculation

Valence configuration for pseudopotential generation:
2s( 2.00) rc: 0.45
2p( 4.00) rc: 0.92
3d( 0.00) rc: 2.24
4f( 0.00) rc: 0.25
For H, standard SIESTA heuristics set lmxkb to 2
 (one more than the basis l, including polarization orbitals).
Use PS.lmax or PS.KBprojectors blocks to override.
For N, standard SIESTA heuristics set lmxkb to 3
 (one more than the basis l, including polarization orbitals).
Use PS.lmax or PS.KBprojectors blocks to override.
For Si, standard SIESTA heuristics set lmxkb to 3
 (one more than the basis l, including polarization orbitals).
Use PS.lmax or PS.KBprojectors blocks to override.
For O, standard SIESTA heuristics set lmxkb to 3
 (one more than the basis l, including polarization orbitals).
Use PS.lmax or PS.KBprojectors blocks to override.

<basis_specs>
===============================================================================
H                    Z=   1    Mass=  1.0100        Charge= 0.17977+309
Lmxo=0 Lmxkb= 2    BasisType=split      Semic=F
L=0  Nsemic=0  Cnfigmx=1
          i=1  nzeta=2  polorb=1  (1s)
            splnorm:   0.62000    
               vcte:    0.0000    
               rinn:    0.0000    
               qcoe:    0.0000    
               qyuk:    0.0000    
               qwid:   0.10000E-01
                rcs:    0.0000      0.0000    
            lambdas:    1.0000      1.0000    
-------------------------------------------------------------------------------
L=0  Nkbl=1  erefs: 0.17977+309
L=1  Nkbl=1  erefs: 0.17977+309
L=2  Nkbl=1  erefs: 0.17977+309
===============================================================================
</basis_specs>

atom: Called for H                     (Z =   1)

read_vps: Pseudopotential generation method:
read_vps: ATM4.2.7  Troullier-Martins                       
Valence charge for ps generation:    1.00000

xc_check: Exchange-correlation functional:
xc_check: GGA Perdew, Burke & Ernzerhof 1996
V l=0 = -2*Zval/r beyond r=  0.0098
V l=1 = -2*Zval/r beyond r=  0.5817
V l=2 = -2*Zval/r beyond r=  1.9372
All V_l potentials equal beyond r=  1.9372
This should be close to max(r_c) in ps generation
All pots = -2*Zval/r beyond r=  1.9372

VLOCAL1: 99.0% of the norm of Vloc inside     11.567 Ry
VLOCAL1: 99.9% of the norm of Vloc inside     26.362 Ry
atom: Maximum radius for 4*pi*r*r*local-pseudopot. charge    2.25106
atom: Maximum radius for r*vlocal+2*Zval:    1.91306
GHOST: No ghost state for L =  0
GHOST: No ghost state for L =  1
GHOST: No ghost state for L =  2

KBgen: Kleinman-Bylander projectors: 
   l= 0   rc=  2.036604   el= -0.477180   Ekb= -6.081590   kbcos= -0.277285
   l= 1   rc=  2.195416   el=  0.001076   Ekb= -0.926943   kbcos= -0.034643
   l= 2   rc=  2.251056   el=  0.002010   Ekb= -0.130941   kbcos= -0.009788

KBgen: Total number of Kleinman-Bylander projectors:    9
atom: -------------------------------------------------------------------------

atom: SANKEY-TYPE ORBITALS:
atom: Selected multiple-zeta basis: split     

SPLIT: Orbitals with angular momentum L= 0

SPLIT: Basis orbitals for state 1s

SPLIT: PAO cut-off radius determined from an
SPLIT: energy shift=  0.002000 Ry

   izeta = 1
                 lambda =    1.000000
                     rc =    6.518340
                 energy =   -0.475305
                kinetic =    0.912139
    potential(screened) =   -1.387444
       potential(ionic) =   -1.907295

   izeta = 2
                 rmatch =    2.141150
              splitnorm =    0.620000
                 energy =    0.566467
                kinetic =    3.772856
    potential(screened) =   -3.206389
       potential(ionic) =   -3.759093

POLgen: Perturbative polarization orbital with L=  1

POLgen: Polarization orbital for state 1s

   izeta = 1
                     rc =    6.518340
                 energy =    0.533861
                kinetic =    1.121086
    potential(screened) =   -0.587225
       potential(ionic) =   -1.053027
atom: Total number of Sankey-type orbitals:  5

atm_pop: Valence configuration (for local Pseudopot. screening):
 1s( 1.00)                                                            
Vna: chval, zval:    1.00000   1.00000

Vna:  Cut-off radius for the neutral-atom potential:   6.518340

atom: _________________________________________________________________________

<basis_specs>
===============================================================================
N                    Z=   7    Mass=  14.010        Charge= 0.17977+309
Lmxo=1 Lmxkb= 3    BasisType=split      Semic=F
L=0  Nsemic=0  Cnfigmx=2
          i=1  nzeta=2  polorb=0  (2s)
            splnorm:   0.28000    
               vcte:    0.0000    
               rinn:    0.0000    
               qcoe:    0.0000    
               qyuk:    0.0000    
               qwid:   0.10000E-01
                rcs:    0.0000      0.0000    
            lambdas:    1.0000      1.0000    
L=1  Nsemic=0  Cnfigmx=2
          i=1  nzeta=2  polorb=1  (2p)
            splnorm:   0.28000    
               vcte:    0.0000    
               rinn:    0.0000    
               qcoe:    0.0000    
               qyuk:    0.0000    
               qwid:   0.10000E-01
                rcs:    0.0000      0.0000    
            lambdas:    1.0000      1.0000    
-------------------------------------------------------------------------------
L=0  Nkbl=1  erefs: 0.17977+309
L=1  Nkbl=1  erefs: 0.17977+309
L=2  Nkbl=1  erefs: 0.17977+309
L=3  Nkbl=1  erefs: 0.17977+309
===============================================================================
</basis_specs>

atom: Called for N                     (Z =   7)

read_vps: Pseudopotential generation method:
read_vps: ATM4.2.7  Troullier-Martins                       
Valence charge for ps generation:    5.00000

xc_check: Exchange-correlation functional:
xc_check: GGA Perdew, Burke & Ernzerhof 1996
V l=0 = -2*Zval/r beyond r=  1.2889
V l=1 = -2*Zval/r beyond r=  1.2889
V l=2 = -2*Zval/r beyond r=  3.4178
V l=3 = -2*Zval/r beyond r=  2.4084
All V_l potentials equal beyond r=  3.3753
This should be close to max(r_c) in ps generation
All pots = -2*Zval/r beyond r=  3.4178

VLOCAL1: 99.0% of the norm of Vloc inside      3.810 Ry
VLOCAL1: 99.9% of the norm of Vloc inside      8.683 Ry
atom: Maximum radius for 4*pi*r*r*local-pseudopot. charge    4.02088
atom: Maximum radius for r*vlocal+2*Zval:    3.54838
GHOST: No ghost state for L =  0
GHOST: No ghost state for L =  1
GHOST: No ghost state for L =  2
GHOST: No ghost state for L =  3

KBgen: Kleinman-Bylander projectors: 
   l= 0   rc=  3.417763   el= -1.365098   Ekb= -4.433130   kbcos= -0.707855
   l= 1   rc=  3.375302   el= -0.521201   Ekb=-13.264039   kbcos= -0.535594
   l= 2   rc=  3.872880   el=  0.001991   Ekb= -0.641094   kbcos= -0.062456
   l= 3   rc=  3.970931   el=  0.003093   Ekb= -0.474517   kbcos= -0.018236

KBgen: Total number of Kleinman-Bylander projectors:   16
atom: -------------------------------------------------------------------------

atom: SANKEY-TYPE ORBITALS:
atom: Selected multiple-zeta basis: split     

SPLIT: Orbitals with angular momentum L= 0

SPLIT: Basis orbitals for state 2s

SPLIT: PAO cut-off radius determined from an
SPLIT: energy shift=  0.002000 Ry

   izeta = 1
                 lambda =    1.000000
                     rc =    4.730425
                 energy =   -1.363399
                kinetic =    1.245246
    potential(screened) =   -2.608645
       potential(ionic) =   -8.121105

   izeta = 2
                 rmatch =    2.531849
              splitnorm =    0.280000
                 energy =   -0.959908
                kinetic =    2.409435
    potential(screened) =   -3.369343
       potential(ionic) =   -9.427975

SPLIT: Orbitals with angular momentum L= 1

SPLIT: Basis orbitals for state 2p

SPLIT: PAO cut-off radius determined from an
SPLIT: energy shift=  0.002000 Ry

   izeta = 1
                 lambda =    1.000000
                     rc =    5.924108
                 energy =   -0.519262
                kinetic =    3.672940
    potential(screened) =   -4.192202
       potential(ionic) =   -9.518354

   izeta = 2
                 rmatch =    2.531849
              splitnorm =    0.280000
                 energy =   -0.104258
                kinetic =    6.807538
    potential(screened) =   -6.911796
       potential(ionic) =  -13.149920

POLgen: Perturbative polarization orbital with L=  2

POLgen: Polarization orbital for state 2p

   izeta = 1
                     rc =    5.924108
                 energy =    1.427508
                kinetic =    2.872379
    potential(screened) =   -1.444871
       potential(ionic) =   -5.563644
atom: Total number of Sankey-type orbitals: 13

atm_pop: Valence configuration (for local Pseudopot. screening):
 2s( 2.00)                                                            
 2p( 3.00)                                                            
Vna: chval, zval:    5.00000   5.00000

Vna:  Cut-off radius for the neutral-atom potential:   5.924108

atom: _________________________________________________________________________

<basis_specs>
===============================================================================
Si                   Z=  14    Mass=  28.090        Charge= 0.17977+309
Lmxo=1 Lmxkb= 3    BasisType=split      Semic=F
L=0  Nsemic=0  Cnfigmx=3
          i=1  nzeta=2  polorb=0  (3s)
            splnorm:   0.28000    
               vcte:    0.0000    
               rinn:    0.0000    
               qcoe:    0.0000    
               qyuk:    0.0000    
               qwid:   0.10000E-01
                rcs:    0.0000      0.0000    
            lambdas:    1.0000      1.0000    
L=1  Nsemic=0  Cnfigmx=3
          i=1  nzeta=2  polorb=1  (3p)
            splnorm:   0.28000    
               vcte:    0.0000    
               rinn:    0.0000    
               qcoe:    0.0000    
               qyuk:    0.0000    
               qwid:   0.10000E-01
                rcs:    0.0000      0.0000    
            lambdas:    1.0000      1.0000    
-------------------------------------------------------------------------------
L=0  Nkbl=1  erefs: 0.17977+309
L=1  Nkbl=1  erefs: 0.17977+309
L=2  Nkbl=1  erefs: 0.17977+309
L=3  Nkbl=1  erefs: 0.17977+309
===============================================================================
</basis_specs>

atom: Called for Si                    (Z =  14)

read_vps: Pseudopotential generation method:
read_vps: ATM4.2.7  Troullier-Martins                       
Valence charge for ps generation:    4.00000

xc_check: Exchange-correlation functional:
xc_check: GGA Perdew, Burke & Ernzerhof 1996
V l=0 = -2*Zval/r beyond r=  2.7826
V l=1 = -2*Zval/r beyond r=  2.7826
V l=2 = -2*Zval/r beyond r=  2.9253
V l=3 = -2*Zval/r beyond r=  2.7826
All V_l potentials equal beyond r=  2.8530
This should be close to max(r_c) in ps generation
All pots = -2*Zval/r beyond r=  2.9253

VLOCAL1: 99.0% of the norm of Vloc inside      5.333 Ry
VLOCAL1: 99.9% of the norm of Vloc inside     12.154 Ry
atom: Maximum radius for 4*pi*r*r*local-pseudopot. charge    3.39869
atom: Maximum radius for r*vlocal+2*Zval:    2.96205
GHOST: No ghost state for L =  0
GHOST: No ghost state for L =  1
GHOST: No ghost state for L =  2
GHOST: No ghost state for L =  3

KBgen: Kleinman-Bylander projectors: 
   l= 0   rc=  3.075247   el= -0.794092   Ekb=  5.879390   kbcos=  0.167461
   l= 1   rc=  3.153101   el= -0.300068   Ekb=  2.642817   kbcos=  0.058301
   l= 2   rc=  3.273594   el=  0.001958   Ekb= -1.185135   kbcos= -0.104411
   l= 3   rc=  3.232927   el=  0.003046   Ekb= -0.497174   kbcos= -0.015889

KBgen: Total number of Kleinman-Bylander projectors:   16
atom: -------------------------------------------------------------------------

atom: SANKEY-TYPE ORBITALS:
atom: Selected multiple-zeta basis: split     

SPLIT: Orbitals with angular momentum L= 0

SPLIT: Basis orbitals for state 3s

SPLIT: PAO cut-off radius determined from an
SPLIT: energy shift=  0.002000 Ry

   izeta = 1
                 lambda =    1.000000
                     rc =    6.429618
                 energy =   -0.792283
                kinetic =    0.525293
    potential(screened) =   -1.317576
       potential(ionic) =   -3.744923

   izeta = 2
                 rmatch =    3.998416
              splitnorm =    0.280000
                 energy =   -0.583081
                kinetic =    1.069570
    potential(screened) =   -1.652651
       potential(ionic) =   -4.235185

SPLIT: Orbitals with angular momentum L= 1

SPLIT: Basis orbitals for state 3p

SPLIT: PAO cut-off radius determined from an
SPLIT: energy shift=  0.002000 Ry

   izeta = 1
                 lambda =    1.000000
                     rc =    8.464845
                 energy =   -0.298236
                kinetic =    0.785360
    potential(screened) =   -1.083596
       potential(ionic) =   -3.273779

   izeta = 2
                 rmatch =    4.587816
              splitnorm =    0.280000
                 energy =   -0.131871
                kinetic =    1.403687
    potential(screened) =   -1.535557
       potential(ionic) =   -4.015310

POLgen: Perturbative polarization orbital with L=  2

POLgen: Polarization orbital for state 3p

   izeta = 1
                     rc =    8.464845
                 energy =    0.321949
                kinetic =    1.055677
    potential(screened) =   -0.733728
       potential(ionic) =   -2.672950
atom: Total number of Sankey-type orbitals: 13

atm_pop: Valence configuration (for local Pseudopot. screening):
 3s( 2.00)                                                            
 3p( 2.00)                                                            
Vna: chval, zval:    4.00000   4.00000

Vna:  Cut-off radius for the neutral-atom potential:   8.464845

atom: _________________________________________________________________________

<basis_specs>
===============================================================================
O                    Z=   8    Mass=  16.000        Charge= 0.17977+309
Lmxo=1 Lmxkb= 3    BasisType=split      Semic=F
L=0  Nsemic=0  Cnfigmx=2
          i=1  nzeta=2  polorb=0  (2s)
            splnorm:   0.28000    
               vcte:    0.0000    
               rinn:    0.0000    
               qcoe:    0.0000    
               qyuk:    0.0000    
               qwid:   0.10000E-01
                rcs:    0.0000      0.0000    
            lambdas:    1.0000      1.0000    
L=1  Nsemic=0  Cnfigmx=2
          i=1  nzeta=2  polorb=1  (2p)
            splnorm:   0.28000    
               vcte:    0.0000    
               rinn:    0.0000    
               qcoe:    0.0000    
               qyuk:    0.0000    
               qwid:   0.10000E-01
                rcs:    0.0000      0.0000    
            lambdas:    1.0000      1.0000    
-------------------------------------------------------------------------------
L=0  Nkbl=1  erefs: 0.17977+309
L=1  Nkbl=1  erefs: 0.17977+309
L=2  Nkbl=1  erefs: 0.17977+309
L=3  Nkbl=1  erefs: 0.17977+309
===============================================================================
</basis_specs>

atom: Called for O                     (Z =   8)

read_vps: Pseudopotential generation method:
read_vps: ATM4.2.7  Troullier-Martins                       
Valence charge for ps generation:    6.00000

xc_check: Exchange-correlation functional:
xc_check: GGA Perdew, Burke & Ernzerhof 1996
V l=0 = -2*Zval/r beyond r=  1.1000
V l=1 = -2*Zval/r beyond r=  1.1000
V l=2 = -2*Zval/r beyond r=  2.2154
V l=3 = -2*Zval/r beyond r=  1.1000
All V_l potentials equal beyond r=  2.2154
This should be close to max(r_c) in ps generation
All pots = -2*Zval/r beyond r=  2.2154

VLOCAL1: 99.0% of the norm of Vloc inside      8.845 Ry
VLOCAL1: 99.9% of the norm of Vloc inside     20.157 Ry
atom: Maximum radius for 4*pi*r*r*local-pseudopot. charge    2.67231
atom: Maximum radius for r*vlocal+2*Zval:    2.32897
GHOST: No ghost state for L =  0
GHOST: No ghost state for L =  1
GHOST: No ghost state for L =  2
GHOST: No ghost state for L =  3

KBgen: Kleinman-Bylander projectors: 
   l= 0   rc=  2.243238   el= -1.759686   Ekb=**********   kbcos= -0.171774
   l= 1   rc=  2.328968   el= -0.663873   Ekb=-14.506792   kbcos= -0.519897
   l= 2   rc=  2.573941   el=  0.002031   Ekb= -1.137373   kbcos= -0.019581
   l= 3   rc=  2.606321   el=  0.003153   Ekb= -1.013546   kbcos= -0.003122

KBgen: Total number of Kleinman-Bylander projectors:   16
atom: -------------------------------------------------------------------------

atom: SANKEY-TYPE ORBITALS:
atom: Selected multiple-zeta basis: split     

SPLIT: Orbitals with angular momentum L= 0

SPLIT: Basis orbitals for state 2s

SPLIT: PAO cut-off radius determined from an
SPLIT: energy shift=  0.002000 Ry

   izeta = 1
                 lambda =    1.000000
                     rc =    4.243912
                 energy =   -1.758270
                kinetic =    3.286084
    potential(screened) =   -5.044353
       potential(ionic) =  -12.921184

   izeta = 2
                 rmatch =    2.187845
              splitnorm =    0.280000
                 energy =   -0.885018
                kinetic =    8.134434
    potential(screened) =   -9.019452
       potential(ionic) =  -17.710645

SPLIT: Orbitals with angular momentum L= 1

SPLIT: Basis orbitals for state 2p

SPLIT: PAO cut-off radius determined from an
SPLIT: energy shift=  0.002000 Ry

   izeta = 1
                 lambda =    1.000000
                     rc =    5.314825
                 energy =   -0.661986
                kinetic =    4.917472
    potential(screened) =   -5.579458
       potential(ionic) =  -13.236259

   izeta = 2
                 rmatch =    2.160663
              splitnorm =    0.280000
                 energy =   -0.068760
                kinetic =    9.183374
    potential(screened) =   -9.252135
       potential(ionic) =  -18.274251

POLgen: Perturbative polarization orbital with L=  2

POLgen: Polarization orbital for state 2p

   izeta = 1
                     rc =    5.314825
                 energy =    1.970580
                kinetic =    3.886128
    potential(screened) =   -1.915547
       potential(ionic) =   -7.749584
atom: Total number of Sankey-type orbitals: 13

atm_pop: Valence configuration (for local Pseudopot. screening):
 2s( 2.00)                                                            
 2p( 4.00)                                                            
Vna: chval, zval:    6.00000   6.00000

Vna:  Cut-off radius for the neutral-atom potential:   5.314825

atom: _________________________________________________________________________

prinput: Basis input ----------------------------------------------------------

PAO.BasisType split     

%block ChemicalSpeciesLabel
    1    1 H                       # Species index, atomic number, species label
    2    7 N                       # Species index, atomic number, species label
    3   14 Si                      # Species index, atomic number, species label
    4    8 O                       # Species index, atomic number, species label
%endblock ChemicalSpeciesLabel

%block PAO.Basis                 # Define Basis set
H                     1                    # Species label, number of l-shells
 n=1   0   2 P   1                   # n, l, Nzeta, Polarization, NzetaPol
   6.518      2.141   
   1.000      1.000   
N                     2                    # Species label, number of l-shells
 n=2   0   2                         # n, l, Nzeta 
   4.730      2.532   
   1.000      1.000   
 n=2   1   2 P   1                   # n, l, Nzeta, Polarization, NzetaPol
   5.924      2.532   
   1.000      1.000   
Si                    2                    # Species label, number of l-shells
 n=3   0   2                         # n, l, Nzeta 
   6.430      3.998   
   1.000      1.000   
 n=3   1   2 P   1                   # n, l, Nzeta, Polarization, NzetaPol
   8.465      4.588   
   1.000      1.000   
O                     2                    # Species label, number of l-shells
 n=2   0   2                         # n, l, Nzeta 
   4.244      2.188   
   1.000      1.000   
 n=2   1   2 P   1                   # n, l, Nzeta, Polarization, NzetaPol
   5.315      2.161   
   1.000      1.000   
%endblock PAO.Basis

prinput: ----------------------------------------------------------------------

Dumping basis to NetCDF file H.ion.nc
Dumping basis to NetCDF file N.ion.nc
Dumping basis to NetCDF file Si.ion.nc
Dumping basis to NetCDF file O.ion.nc
coor:   Atomic-coordinates input format  =     Cartesian coordinates
coor:                                          (in Angstroms)

siesta: Atomic coordinates (Bohr) and species
siesta:     -0.01258   9.72623   0.00000  1        1
siesta:     -1.34764   8.23327   0.00000  2        2
siesta:     -4.61741   9.06733   0.00000  3        3
siesta:     -4.91179  11.88301   0.00000  1        4
siesta:     -7.49607   6.12142   0.00000  3        5
siesta:    -10.29889   6.58031   0.00000  1        6
siesta:     -5.23144   2.50585   0.00000  3        7
siesta:     -6.67902  -0.39056   0.00000  2        8
siesta:     -5.56362  -2.19943   0.00000  1        9
siesta:     -8.66630  -0.54261   0.00000  1       10
siesta:     -1.98829   2.61012   0.00000  2       11
siesta:      0.04321   5.12409   0.00000  3       12
siesta:      3.08316   5.08855   0.00000  4       13
siesta:     10.61355 -14.07759   0.00000  1       14
siesta:      8.65886 -13.66658   0.00000  2       15
siesta:      6.22979 -16.04876   0.00000  3       16
siesta:      7.18318 -18.71532  -0.00000  1       17
siesta:      3.13570 -15.14356   0.00000  2       18
siesta:      3.17659 -11.72506  -0.00000  3       19
siesta:      1.03072  -8.10005   0.00000  3       20
siesta:     -1.95457  -7.45403   0.00000  4       21
siesta:      3.27352  -5.43711   0.00000  2       22
siesta:      2.28576  -3.64645  -0.00000  1       23
siesta:      6.63017  -5.24735   0.00000  3       24
siesta:      7.81751  -2.22872   0.00000  2       25
siesta:      6.69523  -0.49602   0.00000  1       26
siesta:      9.79567  -1.98858  -0.00000  1       27
siesta:      8.75489  -7.70105  -0.00000  2       28
siesta:      7.16982 -10.55666   0.00000  3       29

siesta: System type = molecule  

initatomlists: Number of atoms, orbitals, and projectors:     29   297   394

siesta: ******************** Simulation parameters ****************************
siesta:
siesta: The following are some of the parameters of the simulation.
siesta: A complete list of the parameters used, including default values,
siesta: can be found in file out.fdf
siesta:
redata: Spin configuration                          = spin-orbit
redata: Number of spin components                   = 8
redata: Time-Reversal Symmetry                      = F
redata: Spin spiral                                 = F
############################################################
This spin-orbit implementation uses a local approximation.
From 4.2 and onwards the full non-local approximation is implemented
You are strongly advised to use >=4.2 versions!
############################################################
redata: Long output                                 =   F
redata: Number of Atomic Species                    =        4
redata: Charge density info will appear in .RHO file
redata: Write Mulliken Pop.                         = NO
redata: Matel table size (NRTAB)                    =     1024
redata: Mesh Cutoff                                 =   340.0000 Ry
redata: Net charge of the system                    =     0.0000 |e|
redata: Min. number of SCF Iter                     =        1
redata: Max. number of SCF Iter                     =      200
redata: SCF mix quantity                            = Hamiltonian
redata: Mix DM or H after convergence               =   F
redata: Recompute H after scf cycle                 =   F
redata: Mix DM in first SCF step                    =   T
redata: Write Pulay info on disk                    =   F
redata: New DM Occupancy tolerance                  = 0.000000000001
redata: No kicks to SCF
redata: DM Mixing Weight for Kicks                  =     0.5000
redata: Require Harris convergence for SCF          =   F
redata: Harris energy tolerance for SCF             =     0.000100 eV
redata: Require DM convergence for SCF              =   T
redata: DM tolerance for SCF                        =     0.000008
redata: Require EDM convergence for SCF             =   F
redata: EDM tolerance for SCF                       =     0.001000 eV
redata: Require H convergence for SCF               =   T
redata: Hamiltonian tolerance for SCF               =     0.000001 eV
redata: Require (free) Energy convergence for SCF   =   F
redata: (free) Energy tolerance for SCF             =     0.000100 eV
redata: Using Saved Data (generic)                  =   F
redata: Use continuation files for DM               =   T
redata: Neglect nonoverlap interactions             =   F
redata: Method of Calculation                       = Diagonalization
redata: Electronic Temperature                      =   299.9978 K
redata: Fix the spin of the system                  =   F
redata: Dynamics option                             = Verlet MD run
redata: Initial MD time step                        =        1
redata:   Final MD time step                        =        1
redata: Length of MD time step                      =     0.5000 fs
redata: Initial Temperature of MD run               =     0.0000 K
redata: Perform a MD quench                         =   F
mix.SCF: Pulay mixing                            = Pulay
mix.SCF:    Variant                              = stable
mix.SCF:    History steps                        = 6
mix.SCF:    Linear mixing weight                 =     0.250000
mix.SCF:    Mixing weight                        =     0.250000
mix.SCF:    SVD condition                        = 0.1000E-07
mix.SCF:    Restart steps                        = 24
mix.SCF:    Restart save steps                   = 3
mix.SCF: Spin-component mixing                   all
redata: Save all siesta data in one NC              =   F
redata: ***********************************************************************

%block SCF.Mixers
  Pulay
%endblock SCF.Mixers

%block SCF.Mixer.Pulay
  # Mixing method
  method pulay
  variant stable

  # Mixing options
  weight 0.2500
  weight.linear 0.2500
  history 6
  restart 24
  restart.save 3
%endblock SCF.Mixer.Pulay

Size of DM history Fstack: 3
Total number of electrons:    98.000000
Total ionic charge:    98.000000

* ProcessorY, Blocksize:    2  24


* Orbital distribution balance (max,min):    48    24


Time-reversal symmetry not used.

siesta: k-grid: Number of k-points =     1
siesta: k-grid: Cutoff (effective) =     5.000 Ang
siesta: k-grid: Supercell and displacements
siesta: k-grid:    1   0   0      0.000
siesta: k-grid:    0   1   0      0.000
siesta: k-grid:    0   0   1      0.000

diag: Algorithm                                     = ELPA-1stage
diag: Parallel over k                               =   F
diag: Use parallel 2D distribution                  =   T
diag: Parallel block-size                           = 24
diag: Parallel distribution                         =     2 x     4
diag: Used triangular part                          = Lower
diag: Absolute tolerance                            =  0.100E-15
diag: Orthogonalization factor                      =  0.100E-05
diag: Memory factor                                 =  1.0000


ts: **************************************************************
ts: Save H and S matrices                           =    F
ts: Save DM and EDM matrices                        =    F
ts: Only save the overlap matrix S                  =    F
ts: **************************************************************

************************ Begin: TS CHECKS AND WARNINGS ************************
************************ End: TS CHECKS AND WARNINGS **************************


                     ====================================
                        Begin MD step =      1
                     ====================================

outcoor: Atomic coordinates (Ang):                          
   -0.00665458    5.14689559    0.00000000   1       1  H
   -0.71314131    4.35685941    0.00000000   2       2  N
   -2.44342822    4.79822332    0.00000000   3       3  Si
   -2.59920790    6.28821558    0.00000000   1       4  H
   -3.96674984    3.23931580    0.00000000   3       5  Si
   -5.44993747    3.48214616    0.00000000   1       6  H
   -2.76835898    1.32603964    0.00000000   3       7  Si
   -3.53438444   -0.20667710    0.00000000   2       8  N
   -2.94413789   -1.16389013    0.00000000   1       9  H
   -4.58600676   -0.28713733    0.00000000   1      10  H
   -1.05215892    1.38121395    0.00000000   2      11  N
    0.02286370    2.71155279    0.00000000   3      12  Si
    1.63153702    2.69274253    0.00000000   4      13  O
    5.61644830   -7.44953905    0.00000000   1      14  H
    4.58206954   -7.23203760    0.00000000   2      15  N
    3.29666389   -8.49263600    0.00000000   3      16  Si
    3.80117524   -9.90371886    0.00000000   1      17  H
    1.65934232   -8.01362137    0.00000000   2      18  N
    1.68097912   -6.20463398    0.00000000   3      19  Si
    0.54543521   -4.28636135    0.00000000   3      20  Si
   -1.03431493   -3.94450034    0.00000000   4      21  O
    1.73226934   -2.87719605    0.00000000   2      22  N
    1.20957366   -1.92961761    0.00000000   1      23  H
    3.50853448   -2.77677601    0.00000000   3      24  Si
    4.13684451   -1.17938608    0.00000000   2      25  N
    3.54296161   -0.26248101    0.00000000   1      26  H
    5.18364407   -1.05231197    0.00000000   1      27  H
    4.63288658   -4.07521596    0.00000000   2      28  N
    3.79410501   -5.58634043    0.00000000   3      29  Si

outcell: Unit cell vectors (Ang):
       30.000000    0.000000    0.000000
        0.000000   45.000000    0.000000
        0.000000    0.000000   10.000000

outcell: Cell vector modules (Ang)   :   30.000000   45.000000   10.000000
outcell: Cell angles (23,13,12) (deg):     90.0000     90.0000     90.0000
outcell: Cell volume (Ang**3)        :  13500.0000
<dSpData1D:S at geom step 1
  <sparsity:sparsity for geom step 1
    nrows_g=297 nrows=48 sparsity=.1101 nnzs=9713, refcount: 8>
  <dData1D:(new from dSpData1D) n=9713, refcount: 1>
refcount: 1>
new_DM -- step:     1
Initializing Density Matrix...

Attempting to read DM from file... Failed...
DM filled with atomic data:
<dSpData2D:DM initialized from atoms
  <sparsity:sparsity for geom step 1
    nrows_g=297 nrows=48 sparsity=.1101 nnzs=9713, refcount: 9>
  <dData2D:DM n=9713 m=8, refcount: 1>
refcount: 1>
     spin moment: S , {S} =   56.00000   0.00000   0.00000  56.00000
No. of atoms with KB's overlaping orbs in proc 0. Max # of overlaps:      27     170

Initializing spin-orbit part of the Hamiltonian
  Adding spin-orbit effects for H 
  Adding spin-orbit effects for N 
  Adding spin-orbit effects for Si
  Adding spin-orbit effects for O 


New grid distribution:   1
           1       1:  180    1:  125    1:   15
           2       1:  180    1:  125   16:   30
           3       1:  180    1:  125   31:   45
           4       1:  180    1:  125   46:   60
           5       1:  180  126:  250    1:   15
           6       1:  180  126:  250   16:   30
           7       1:  180  126:  250   31:   45
           8       1:  180  126:  250   46:   60

InitMesh: MESH =   360 x   500 x   120 =    21600000
InitMesh: (bp) =   180 x   250 x    60 =     2700000
InitMesh: Mesh cutoff (required, used) =   340.000   341.206 Ry
ExtMesh (bp) on 0 =   288 x   225 x   123 =     7970400
New grid distribution:   2
           1       1:  154   33:  210    1:   60
           2       1:  154    1:   32    1:   60
           3       1:   22  228:  250    1:   60
           4     155:  180    1:   17    1:   60
           5     155:  180   18:  210    1:   60
           6      23:  180  211:  231    1:   60
           7      23:  180  232:  250    1:   60
           8       1:   22  211:  227    1:   60
New grid distribution:   3
           1       1:  141   25:  196    1:   60
           2       1:  141    1:   24    1:   60
           3     142:  180    1:   23    1:   60
           4       1:   33  224:  250    1:   60
           5     142:  180   24:  196    1:   60
           6      34:  180  197:  230    1:   60
           7      34:  180  231:  250    1:   60
           8       1:   33  197:  223    1:   60
Setting up quadratic distribution...
ExtMesh (bp) on 0 =   262 x   278 x   168 =    12236448
PhiOnMesh: Number of (b)points on node 0 =              1644720
PhiOnMesh: nlist on node 0 =              1543896

stepf: Fermi-Dirac step function

siesta: Program's energy decomposition (eV):
siesta: Ebs     =      -591.525448
siesta: Eions   =      3585.165840
siesta: Ena     =       381.825172
siesta: Ekin    =      3367.366444
siesta: Enl     =     -3295.905193
siesta: Eso     =        -0.003413
siesta: Edftu   =         0.000000
siesta: DEna    =       153.288199
siesta: DUscf   =        80.941853
siesta: DUext   =         0.000000
siesta: Exc     =     -1203.663823
siesta: eta*DQ  =         0.000000
siesta: Emadel  =         0.000000
siesta: Emeta   =         0.000000
siesta: Emolmec =         0.000000
siesta: Ekinion =         0.000000
siesta: Eharris =     -4023.242587
siesta: Etot    =     -4101.316602
siesta: FreeEng =     -4101.317632

        iscf     Eharris(eV)        E_KS(eV)     FreeEng(eV)     dDmax    Ef(eV) dHmax(eV)
   scf:    1    -4023.242587    -4101.316602    -4101.317632  0.965166 -4.903779 22.074520
     spin moment: S , {S} =    2.00580   0.00000  -0.00000   2.00580
timer: Routine,Calls,Time,% = IterSCF        1      11.318  29.92
   scf:    2    -4146.643238    -4136.243211    -4136.244178  0.457524 -4.144129 11.888970
     spin moment: S , {S} =    1.99528  -0.00000  -0.00000   1.99528
   scf:    3    -4105.115827    -4133.154687    -4133.171068  0.431018 -4.312731 12.732704
     spin moment: S , {S} =    2.08230   0.00000   0.00000   2.08230
   scf:    4    -4150.284796    -4145.299916    -4145.299916  0.320402 -3.824979  6.290240
     spin moment: S , {S} =    0.00010  -0.00000  -0.00000   0.00010
   scf:    5    -4146.571815    -4146.032805    -4146.032805  0.037463 -3.603432  4.263803
     spin moment: S , {S} =    0.00006   0.00000   0.00000   0.00006
   scf:    6    -4146.756100    -4146.401878    -4146.401878  0.023557 -3.513059  2.196233
     spin moment: S , {S} =    0.00003   0.00000  -0.00000   0.00003
   scf:    7    -4146.748572    -4146.571603    -4146.571603  0.021431 -3.516700  0.946011
     spin moment: S , {S} =    0.00001   0.00000  -0.00000   0.00001
   scf:    8    -4146.694002    -4146.630740    -4146.630740  0.012603 -3.581674  0.544630
     spin moment: S , {S} =    0.00000  -0.00000   0.00000   0.00000
   scf:    9    -4146.670147    -4146.649780    -4146.649780  0.006834 -3.621307  0.413102
     spin moment: S , {S} =    0.00000  -0.00000  -0.00000   0.00000
   scf:   10    -4146.704121    -4146.670064    -4146.670064  0.022600 -3.678338  0.237131
     spin moment: S , {S} =    0.00000   0.00000  -0.00000  -0.00000
   scf:   11    -4146.673692    -4146.671902    -4146.671902  0.005343 -3.667671  0.070484
     spin moment: S , {S} =    0.00000  -0.00000  -0.00000  -0.00000
   scf:   12    -4146.673301    -4146.672610    -4146.672610  0.001318 -3.661339  0.029413
     spin moment: S , {S} =    0.00000  -0.00000  -0.00000  -0.00000
   scf:   13    -4146.673070    -4146.672836    -4146.672836  0.001164 -3.658891  0.018114
     spin moment: S , {S} =    0.00000  -0.00000  -0.00000  -0.00000
   scf:   14    -4146.673094    -4146.672958    -4146.672958  0.001005 -3.657486  0.011383
     spin moment: S , {S} =    0.00000  -0.00000  -0.00000  -0.00000
   scf:   15    -4146.673070    -4146.673010    -4146.673010  0.000953 -3.657319  0.008286
     spin moment: S , {S} =    0.00000   0.00000  -0.00000   0.00000
   scf:   16    -4146.673073    -4146.673038    -4146.673038  0.000854 -3.657342  0.005753
     spin moment: S , {S} =    0.00000   0.00000  -0.00000   0.00000
   scf:   17    -4146.673058    -4146.673047    -4146.673047  0.000476 -3.657445  0.004336
     spin moment: S , {S} =    0.00000   0.00000  -0.00000   0.00000
   scf:   18    -4146.673057    -4146.673052    -4146.673052  0.000336 -3.657404  0.002730
     spin moment: S , {S} =    0.00000   0.00000  -0.00000   0.00000
   scf:   19    -4146.673057    -4146.673054    -4146.673054  0.000270 -3.657447  0.001656
     spin moment: S , {S} =    0.00000   0.00000  -0.00000   0.00000
   scf:   20    -4146.673056    -4146.673055    -4146.673055  0.000152 -3.657458  0.001086
     spin moment: S , {S} =    0.00000   0.00000  -0.00000   0.00000
   scf:   21    -4146.673056    -4146.673055    -4146.673055  0.000161 -3.657466  0.000518
     spin moment: S , {S} =    0.00000   0.00000  -0.00000   0.00000
   scf:   22    -4146.673055    -4146.673055    -4146.673055  0.000090 -3.657479  0.000224
     spin moment: S , {S} =    0.00000   0.00000  -0.00000   0.00000
   scf:   23    -4146.673055    -4146.673055    -4146.673055  0.000033 -3.657492  0.000161
     spin moment: S , {S} =    0.00000   0.00000  -0.00000   0.00000
   scf:   24    -4146.673055    -4146.673055    -4146.673055  0.000008 -3.657497  0.000087
     spin moment: S , {S} =    0.00000   0.00000  -0.00000   0.00000
mix: Pulay -- resetting history
   scf:   25    -4146.673055    -4146.673055    -4146.673055  0.000005 -3.657494  0.000046
     spin moment: S , {S} =    0.00000   0.00000  -0.00000   0.00000
   scf:   26    -4146.673055    -4146.673055    -4146.673055  0.000003 -3.657489  0.000033
     spin moment: S , {S} =    0.00000   0.00000  -0.00000   0.00000
   scf:   27    -4146.673055    -4146.673055    -4146.673055  0.000002 -3.657486  0.000020
     spin moment: S , {S} =    0.00000   0.00000  -0.00000   0.00000
   scf:   28    -4146.673055    -4146.673055    -4146.673055  0.000002 -3.657482  0.000012
     spin moment: S , {S} =    0.00000   0.00000  -0.00000   0.00000
   scf:   29    -4146.673055    -4146.673055    -4146.673055  0.000001 -3.657482  0.000008
     spin moment: S , {S} =    0.00000   0.00000  -0.00000   0.00000
   scf:   30    -4146.673055    -4146.673055    -4146.673055  0.000001 -3.657481  0.000003
     spin moment: S , {S} =    0.00000   0.00000  -0.00000   0.00000
   scf:   31    -4146.673055    -4146.673055    -4146.673055  0.000001 -3.657481  0.000002
     spin moment: S , {S} =    0.00000   0.00000  -0.00000   0.00000
   scf:   32    -4146.673055    -4146.673055    -4146.673055  0.000000 -3.657481  0.000001
     spin moment: S , {S} =    0.00000   0.00000  -0.00000   0.00000
   scf:   33    -4146.673055    -4146.673055    -4146.673055  0.000000 -3.657481  0.000001
     spin moment: S , {S} =    0.00000   0.00000  -0.00000   0.00000

SCF Convergence by DM+H criterion
max |DM_out - DM_in|         :     0.0000000902
max |H_out - H_in|      (eV) :     0.0000005782
SCF cycle converged after 33 iterations

Using DM_out to compute the final energy and forces
No. of atoms with KB's overlaping orbs in proc 0. Max # of overlaps:      27     170

siesta: E_KS(eV) =            -4146.6731

siesta: E_KS - E_eggbox =     -4146.6731
     spin moment: S , {S} =    0.00000   0.00000  -0.00000   0.00000

siesta: Atomic forces (eV/Ang):
     1    0.079572   -0.131539    0.000000
     2   -0.446482    0.271870   -0.000000
     3    0.365564   -0.036399   -0.000000
     4   -0.001983    0.184762    0.000000
     5   -0.184342   -0.186196    0.000000
     6    0.033779    0.084738   -0.000000
     7    1.068294    0.857682    0.000000
     8    0.826460   -2.198476   -0.000000
     9   -1.159978    1.660180   -0.000000
    10    0.153696   -0.163705   -0.000000
    11   -0.863769   -0.270145   -0.000000
    12    1.033963   -0.229305    0.000000
    13    0.053363    2.020961    0.000000
    14   -0.015545   -0.029323    0.000000
    15    0.099068    0.028717   -0.000000
    16    0.010277   -0.017690    0.000000
    17   -0.002775    0.046123   -0.000000
    18   -0.040167    0.037418   -0.000000
    19    0.230877    0.024317    0.000000
    20   -1.210528   -0.135307   -0.000000
    21    1.111091   -3.763587    0.000000
    22    0.266584    0.691340    0.000000
    23    0.218470   -0.540018   -0.000000
    24   -0.300086   -0.804872   -0.000000
    25   -0.494514    1.468608    0.000000
    26    0.769602   -1.101881    0.000000
    27   -0.144923    0.088264    0.000000
    28    0.038111    0.618544   -0.000000
    29   -0.272122   -0.353465    0.000000
----------------------------------------
   Tot    1.221556   -1.878387    0.000000
----------------------------------------
   Max    3.763587
   Res    0.690794    sqrt( Sum f_i^2 / 3N )
----------------------------------------
   Max    3.763587    constrained

Stress tensor Voigt[x,y,z,yz,xz,xy] (kbar):        0.56        0.23       -0.04        0.00       -0.00       -0.51
(Free)E + p*V (eV/cell)    -4148.7577
Target enthalpy (eV/cell)    -4146.6731

siesta: Stress tensor (static) (eV/Ang**3):
         0.000349   -0.000318   -0.000000
        -0.000318    0.000141   -0.000000
        -0.000000    0.000000   -0.000027

siesta: Pressure (static):         -0.24740230  kBar

siesta: Stress tensor (total) (eV/Ang**3):
         0.000349   -0.000318   -0.000000
        -0.000318    0.000141   -0.000000
        -0.000000    0.000000   -0.000027

siesta: Pressure (total):         -0.24740230  kBar

siesta: Temp_ion =       0.000 K

siesta: Eigenvalues (eV):
ik =     1
  -21.8669  -21.8669  -21.6265  -21.6265  -21.4249  -21.4249  -21.3969  -21.3969  -21.0749  -21.0749
  -21.0392  -21.0392  -20.6277  -20.6277  -19.6242  -19.6242  -19.3399  -19.3399  -19.2023  -19.2023
  -14.6943  -14.6943  -13.7157  -13.7157  -13.2429  -13.2429  -12.9567  -12.9567  -12.9061  -12.9061
  -12.7679  -12.7679  -12.6028  -12.6028  -12.2778  -12.2778  -12.2458  -12.2458  -11.9602  -11.9602
  -11.2075  -11.2075  -10.7451  -10.7451  -10.5880  -10.5880  -10.5413  -10.5413  -10.0335  -10.0335
   -9.5066   -9.5066   -9.0821   -9.0821   -8.6917   -8.6917   -8.6086   -8.6086   -8.5541   -8.5541
   -8.4327   -8.4327   -8.3613   -8.3613   -8.0043   -8.0043   -7.7196   -7.7196   -7.6569   -7.6569
   -7.4728   -7.4728   -7.1642   -7.1642   -7.1130   -7.1130   -6.7141   -6.7141   -6.6728   -6.6728
   -6.4619   -6.4619   -6.3482   -6.3482   -6.0826   -6.0826   -5.9850   -5.9850   -5.9617   -5.9617
   -5.8069   -5.8069   -5.5230   -5.5230   -5.4250   -5.4250   -4.1484   -4.1484   -3.1667   -3.1667
   -2.2356   -2.2356   -2.1619   -2.1619   -2.1220   -2.1220   -1.7863   -1.7863   -1.7315   -1.7315
   -1.7181   -1.7181   -1.6892   -1.6892   -1.5281   -1.5281   -1.3536   -1.3536   -0.9464   -0.9464
   -0.7746   -0.7746   -0.6239   -0.6239   -0.2425   -0.2425   -0.1385   -0.1385    0.1776    0.1776
    0.5728    0.5728    0.6017    0.6017    0.6951    0.6951    0.8193    0.8193    0.9681    0.9681
    1.1256    1.1256    1.3542    1.3542    1.4695    1.4695    1.4904    1.4904    1.5770    1.5770
    1.8869    1.8869    1.9591    1.9591    2.0686    2.0686    2.4800    2.4800    2.8808    2.8808
    2.8827    2.8827    2.9021    2.9021    3.0452    3.0452    3.3338    3.3338    3.5129    3.5129
    3.5550    3.5550    3.9294    3.9294    4.0092    4.0092    4.1585    4.1585    4.4810    4.4810
    4.4881    4.4881    4.5636    4.5636    4.6448    4.6448    4.7708    4.7708    4.9518    4.9518
    5.0131    5.0131    5.1689    5.1689    5.4050    5.4050    5.5907    5.5907    5.7709    5.7709
    5.9213    5.9213    5.9288    5.9288    6.1205    6.1205    6.1276    6.1276    6.2630    6.2630
    6.3336    6.3336    6.5215    6.5215    6.6704    6.6704    6.8419    6.8419    6.9305    6.9305
    7.1123    7.1123    7.3352    7.3352    7.5951    7.5951    7.7126    7.7126    7.8608    7.8608
    7.9849    7.9849    8.0736    8.0736    8.1569    8.1569    8.4369    8.4369    8.4612    8.4612
    8.7175    8.7175    8.8858    8.8858    8.9973    8.9973    9.0407    9.0407    9.2898    9.2898
    9.3556    9.3556    9.4451    9.4451    9.8730    9.8730    9.9172    9.9172   10.0061   10.0061
   10.2122   10.2122   10.2725   10.2725   10.6061   10.6061   10.9220   10.9220   11.1167   11.1167
   11.1467   11.1467   11.2115   11.2115   11.2772   11.2772   11.8106   11.8106   11.8587   11.8587
   11.9604   11.9604   12.1071   12.1071   12.3829   12.3829   12.5705   12.5705   12.7678   12.7678
   12.7999   12.7999   12.9504   12.9504   13.5035   13.5035   13.5531   13.5531   13.8533   13.8533
   13.8633   13.8633   14.1790   14.1790   14.4671   14.4671   14.8595   14.8595   14.9063   14.9063
   15.0286   15.0286   15.4108   15.4108   16.1524   16.1524   16.6225   16.6225   16.7654   16.7654
   17.0756   17.0756   17.4592   17.4592   17.6723   17.6723   18.4049   18.4049   18.6604   18.6604
   18.7492   18.7492   19.2401   19.2401   19.5131   19.5131   20.0483   20.0483   20.3370   20.3370
   21.1001   21.1001   21.3583   21.3583   22.1013   22.1013   22.2240   22.2240   22.5969   22.5969
   22.9780   22.9780   23.5211   23.5211   23.8709   23.8709   23.9617   23.9617   24.1158   24.1158
   25.0488   25.0488   25.4977   25.4977   26.1219   26.1219   26.8951   26.8951   27.8499   27.8499
   28.9421   28.9421   29.0751   29.0751   29.2187   29.2187   29.6031   29.6031   29.9904   29.9904
   30.2649   30.2649   30.3950   30.3950   30.5294   30.5294   30.9305   30.9305   31.1388   31.1388
   31.2232   31.2232   31.4760   31.4760   31.7190   31.7190   32.0045   32.0045   32.1513   32.1513
   33.3365   33.3365   34.0607   34.0607   34.6148   34.6148   34.7945   34.7945   34.8700   34.8700
   35.0006   35.0006   35.1734   35.1734   35.6507   35.6507   35.7423   35.7423   35.7973   35.7973
   37.0562   37.0562   37.2231   37.2231   37.3607   37.3607   37.5517   37.5517   38.1733   38.1733
   38.3211   38.3211   38.9264   38.9264   39.3713   39.3713   39.5656   39.5656   40.2213   40.2213
   40.5919   40.5919   40.6157   40.6157   40.8185   40.8185   40.9759   40.9759   41.4188   41.4188
   41.6391   41.6391   42.3736   42.3736   42.9291   42.9291   42.9462   42.9462   43.2955   43.2955
   43.5250   43.5250   43.8879   43.8879   44.2313   44.2313   44.3362   44.3362   44.5069   44.5069
   44.8096   44.8096   45.0139   45.0139   45.3433   45.3433   45.8393   45.8393   46.1477   46.1477
   46.8013   46.8013   47.3919   47.3919   47.4953   47.4953   48.8399   48.8399   49.6248   49.6248
   49.7208   49.7208   50.4392   50.4392   50.5817   50.5817   51.0297   51.0297   51.2812   51.2812
   51.5803   51.5803   52.3836   52.3836   52.6025   52.6025   53.4298   53.4298   54.3923   54.3923
   54.5503   54.5503   54.9052   54.9052   55.4529   55.4529   55.8158   55.8158   56.1914   56.1914
   56.3775   56.3775   56.5288   56.5288   56.6783   56.6783   58.6160   58.6160   59.0512   59.0512
   59.4508   59.4508   60.4760   60.4760   60.4812   60.4812   61.2345   61.2345   61.8294   61.8294
   61.8878   61.8878   62.3070   62.3070   62.6223   62.6223   64.9053   64.9053   66.6570   66.6570
   67.0120   67.0120   67.5069   67.5069   68.1346   68.1346   68.9894   68.9894   71.0223   71.0223
   74.0288   74.0288   81.4063   81.4063   91.4435   91.4435   92.1584   92.1584   93.4614   93.4614
   98.5170   98.5170   99.3525   99.3525   99.7922   99.7922  103.3877  103.3877  104.0122  104.0122
  110.4436  110.4436  112.3886  112.3886  124.2553  124.2553  126.4217  126.4217  129.8552  129.8552
  135.5674  135.5674  138.6555  138.6555
siesta: Fermi energy =      -3.657481 eV

siesta: Program's energy decomposition (eV):
siesta: Ebs     =     -1122.412724
siesta: Eions   =      3585.165840
siesta: Ena     =       381.825172
siesta: Ekin    =      2902.756554
siesta: Enl     =     -2787.628371
siesta: Eso     =        -0.004273
siesta: Edftu   =         0.000000
siesta: DEna    =        47.001846
siesta: DUscf   =        14.233737
siesta: DUext   =         0.000000
siesta: Exc     =     -1119.691880
siesta: eta*DQ  =         0.000000
siesta: Emadel  =         0.000000
siesta: Emeta   =         0.000000
siesta: Emolmec =         0.000000
siesta: Ekinion =         0.000000
siesta: Eharris =     -4146.673055
siesta: Etot    =     -4146.673055
siesta: FreeEng =     -4146.673055

siesta: Final energy (eV):
siesta:  Band Struct. =   -1122.412724
siesta:       Kinetic =    2902.756554
siesta:       Hartree =   14345.514735
siesta:       Edftu   =       0.000000
siesta:       Eso     =      -0.004273
siesta:    Ext. field =       0.000000
siesta:   Exch.-corr. =   -1119.691880
siesta:  Ion-electron =  -31262.729899
siesta:       Ion-ion =   10987.481708
siesta:       Ekinion =       0.000000
siesta:         Total =   -4146.673055
siesta:         Fermi =      -3.657481

siesta: Atomic forces (eV/Ang):
siesta:      1    0.079572   -0.131539    0.000000
siesta:      2   -0.446482    0.271870   -0.000000
siesta:      3    0.365564   -0.036399   -0.000000
siesta:      4   -0.001983    0.184762    0.000000
siesta:      5   -0.184342   -0.186196    0.000000
siesta:      6    0.033779    0.084738   -0.000000
siesta:      7    1.068294    0.857682    0.000000
siesta:      8    0.826460   -2.198476   -0.000000
siesta:      9   -1.159978    1.660180   -0.000000
siesta:     10    0.153696   -0.163705   -0.000000
siesta:     11   -0.863769   -0.270145   -0.000000
siesta:     12    1.033963   -0.229305    0.000000
siesta:     13    0.053363    2.020961    0.000000
siesta:     14   -0.015545   -0.029323    0.000000
siesta:     15    0.099068    0.028717   -0.000000
siesta:     16    0.010277   -0.017690    0.000000
siesta:     17   -0.002775    0.046123   -0.000000
siesta:     18   -0.040167    0.037418   -0.000000
siesta:     19    0.230877    0.024317    0.000000
siesta:     20   -1.210528   -0.135307   -0.000000
siesta:     21    1.111091   -3.763587    0.000000
siesta:     22    0.266584    0.691340    0.000000
siesta:     23    0.218470   -0.540018   -0.000000
siesta:     24   -0.300086   -0.804872   -0.000000
siesta:     25   -0.494514    1.468608    0.000000
siesta:     26    0.769602   -1.101881    0.000000
siesta:     27   -0.144923    0.088264    0.000000
siesta:     28    0.038111    0.618544   -0.000000
siesta:     29   -0.272122   -0.353465    0.000000
siesta: ----------------------------------------
siesta:    Tot    1.221556   -1.878387    0.000000

siesta: Stress tensor (static) (eV/Ang**3):
siesta:     0.000349   -0.000318   -0.000000
siesta:    -0.000318    0.000141   -0.000000
siesta:    -0.000000    0.000000   -0.000027

siesta: Cell volume =      13500.000000 Ang**3

siesta: Pressure (static):
siesta:                Solid            Molecule  Units
siesta:          -0.00000168         -0.00000469  Ry/Bohr**3
siesta:          -0.00015441         -0.00043080  eV/Ang**3
siesta:          -0.24740230         -0.69022565  kBar
(Free)E+ p_basis*V_orbitals  =       -4126.822638
(Free)Eharris+ p_basis*V_orbitals  =       -4126.822638
     spin moment: S , {S} =    0.00000   0.00000  -0.00000   0.00000

siesta: Electric dipole (a.u.)  =   -0.011962    1.505077    0.000000
siesta: Electric dipole (Debye) =   -0.030403    3.825526    0.000000

cite: Please see "GC.bib" for an exhaustive BiBTeX file.
cite: Please clearly indicate Siesta version in published work: v4.1.5-1-g384057250
cite: This calculation has made use of the following articles
cite: which are encouraged to be cited in a published work.
        Primary SIESTA paper
          DOI: www.doi.org/10.1088/0953-8984/14/11/302
        Spin-orbit coupling (on-site approximation)
          DOI: www.doi.org/10.1088/0953-8984/19/19/489001


WARNING: alloc-realloc-dealloc name mismatch
         Name: atomlist isa
         Size:              -116. Bytes
         Node:     0
         Subsequent mismatches will not be reported
>> End of run:   1-FEB-2024  22:20:39
Job completed
