Siesta Version  : v4.1.5-1-g384057250
Architecture    : gcc
Compiler version: GNU Fortran (Debian 12.2.0-14) 12.2.0
Compiler flags  : mpifort -O2 -fPIC -ftree-vectorize -fallow-argument-mismatch
PP flags        : -DFC_HAVE_ABORT -DMPI -DSIESTA__FLOOK -DSIESTA__METIS -DSIESTA__MUMPS -DCDF -DNCDF -DNCDF_4 -DNCDF_PARALLEL -DSIESTA__MRRR -DSIESTA__ELPA
Libraries       : libncdf.a libfdict.a  -lflookall -ldl -lnetcdff -lnetcdf -lz -lscalapack-openmpi -lopenblas -lmetis -lzmumps -lcmumps -ldmumps -lmumps_common -lpord -lsmumps -lesmumps -lscotch -lscotcherr -fopenmp -lelpa
PARALLEL version
NetCDF support
NetCDF-4 support
NetCDF-4 MPI-IO support
METIS ordering support
Lua support

* Running on 32 nodes in parallel
>> Start of run:   5-APR-2024  13:03:14

                           ***********************       
                           *  WELCOME TO SIESTA  *       
                           ***********************       

reinit: Reading from standard input
reinit: Dumped input in INPUT_TMP.24397
************************** Dump of input data file ****************************
SystemLabel      10G_Chain
NumberOfAtoms    636
NumberOfSpecies  5
%block ChemicalSpeciesLabel
    1   14  Si
    2    1  H
    3    8  O
    4    7  N
    5   15  P
%endblock ChemicalSpeciesLabel
############################################
# This overrides Defaults.fdf configuration
############################################
MD.TypeOfRun                Verlet # CG, Verlet
MD.Steps                    0
MD.Quench                   True
SCF.H.Tolerance             0.00005 eV
SCF.DM.Tolerance            0.00005
MD.MaxForceTol              0.005 eV/Ang
SCF.MustConverge            F
MD.LengthTimeStep           0.5 fs
#weight 0.07
SCF.Mixer.Restart.Save      4
SCF.Mixer.History           10
SCF.Mixer.Weight      0.1
AtomicCoordinatesFormat NotScaledCartesianAng
%block AtomicCoordinatesAndAtomicSpecies
   -1.73716909   16.90605293    2.95727884   1       1  Si
   -2.40794426   15.82112999    3.76172357   2       2  H
   -1.33942546   18.06911099    3.84739867   2       3  H
    0.31681506   16.02464902    2.17179767   1       4  Si
    1.16206874   16.09224272    3.41296372   2       5  H
    0.17749346   14.29524081    1.83323480   3       6  O
   -0.17919661   13.74079301    0.22504749   1       7  Si
    0.80323192   12.67763420   -0.17461361   2       8  H
    1.05096638   17.10904676    0.20305321   1       9  Si
    0.53378982   18.52140289    0.17466669   2      10  H
   -0.22472903   15.66912223   -1.17468382   1      11  Si
   -1.60652251   16.27081146   -1.31208923   2      12  H
    0.35669025   15.37178244   -2.53675014   2      13  H
   -0.31737146    2.08709600    0.20043107   4      14  N
   -1.89970157    1.33903503    0.71923503   1      15  Si
   -2.05209122   -0.09240086    0.34952271   2      16  H
   -3.16505937    2.25740145    1.38713075   4      17  N
   -2.59673655    3.95346217    1.54459265   1      18  Si
   -3.48630929    5.86087343    0.50801968   1      19  Si
   -4.99183556    6.38223409    0.26287902   3      20  O
   -2.05533399    6.94726104    0.26431634   4      21  N
   -2.32069708    8.00393586    0.26097730   2      22  H
   -0.30231862    6.62827137    0.19721181   1      23  Si
    0.68543820    8.00162655    0.35921102   4      24  N
    0.35625996    9.07960775    0.34924365   2      25  H
    1.72397752    7.83167911    0.26939424   2      26  H
    0.49068302    5.10407739   -0.03822206   4      27  N
   -0.59760494    3.85474215    0.37736917   1      28  Si
   -1.80990549   12.76135200    0.28169512   4      29  N
   -3.41383997   13.52437076    0.26814324   1      30  Si
   -3.21173089   15.01449921    0.26209345   2      31  H
   -5.31169602   12.46794436    0.92295866   1      32  Si
   -6.42235046   12.94532597   -0.00039586   2      33  H
   -4.61062733   10.36193914    0.29553637   1      34  Si
   -5.74302335    9.05686560    0.25518508   4      35  N
   -5.46132638    8.00601808    0.17711795   2      36  H
   -6.77943765    9.25863740    0.26182179   2      37  H
   -2.95136136    9.87339261    0.32019876   4      38  N
   -1.62816159   10.96354571    0.31770903   1      39  Si
   -0.09054955   10.51731474    0.26296013   3      40  O
   -1.60507772   -2.51646334   -1.22569834   3      41  O
   -0.38499460   -1.97983896   -2.36426054   1      42  Si
   -0.98134954   -0.89785641   -3.23677164   2      43  H
    0.00086684   -3.14759101   -3.23735645   2      44  H
    1.72275218   -1.22218214   -1.47947357   1      45  Si
    2.67643877   -1.43962417   -2.62524915   2      46  H
    1.87043243    0.53829544   -1.22166519   3      47  O
    1.39774059    1.26935560    0.27054847   1      48  Si
    2.23008810    2.51659426    0.43768779   2      49  H
    2.30420721   -2.16540093    0.61854633   1      50  Si
    1.87313309   -3.59639366    0.78751207   2      51  H
    1.21801141   -0.50419761    1.87265188   1      52  Si
   -0.27082430   -0.71900069    2.01118171   2      53  H
    1.78461007   -0.26784190    3.23676837   2      54  H
   -2.94487130   17.44317744    1.75588045   3      55  O
   -4.08222251   18.56577282    2.48691209   5      56  P
   -3.48049504   20.03833143    2.53980336   3      57  O
   -5.44368249   18.51855043    1.74567944   3      58  O
    2.76382926   17.08054199   -0.08780648   3      59  O
    4.01313283   -1.88866702    0.87289945   3      60  O
    4.52438580   -1.95726149    2.49338504   5      61  P
    5.88613780   -2.69543934    2.62350057   3      62  O
    3.30286795   -2.51463287    3.32181037   3      63  O
    4.72833044   -0.26966945    2.71251078   3      64  O
   -2.38161189   -2.96171695   -1.66116278   2      65  H
    3.03455861   17.44361427   -0.96812661   2      66  H
   -8.01593134   14.58081494    7.00635787   1      67  Si
   -7.76165734   13.30427432    7.78263421   2      68  H
   -8.47628419   15.64424542    7.95959027   2      69  H
   -5.87010347   15.28869126    6.24753323   1      70  Si
   -5.20966120   15.83809763    7.49609204   2      71  H
   -4.90835000   13.84609515    5.85649239   3      72  O
   -4.89082092   13.23006380    4.23437989   1      73  Si
   -3.47756739   13.12522945    3.76003648   2      74  H
   -6.07948676   16.66831016    4.29996039   1      75  Si
   -7.31552917   17.53041302    4.28583916   2      76  H
   -6.19890464   14.73890809    2.92237980   1      77  Si
   -7.58644055   14.20357991    2.71053759   2      78  H
   -5.61934776   15.10322428    1.57379454   2      79  H
    2.67440184    4.15107483    3.97825481   4      80  N
    2.06174010    2.47526603    4.09211804   1      81  Si
    3.12281181    1.43659623    4.02227855   2      82  H
    0.37138157    2.17328057    4.25022604   4      83  N
   -0.41774916    3.73177734    4.59535738   1      84  Si
   -2.28185182    4.88553127    3.76066675   1      85  Si
   -3.74853982    4.49614198    4.28536097   3      86  O
   -1.79637323    6.67100129    3.87708588   4      87  N
   -2.67783487    7.28196836    4.02315175   2      88  H
   -0.30459666    7.60831357    3.97738211   1      89  Si
   -0.47690287    9.28210091    4.25380932   4      90  N
   -1.42614415    9.88752899    4.28428514   2      91  H
    0.41527950    9.84880169    4.29633274   2      92  H
    1.30192000    6.94621034    3.90610521   4      93  N
    1.25589670    5.24662883    4.06240958   1      94  Si
   -5.46309084   11.42496928    4.33274954   4      95  N
   -7.18844388   10.96739741    4.29879544   1      96  Si
   -8.02786622   12.22613095    4.28518443   2      97  H
   -7.93380272    8.92825084    4.92841645   1      98  Si
   -9.18680760    8.63037290    4.11016660   2      99  H
   -6.05347427    7.74940440    4.29063559   1     100  Si
   -6.05731970    6.01860879    4.32039529   4     101  N
   -5.15849020    5.39374603    4.28364721   2     102  H
   -6.95869980    5.48415558    4.19776830   2     103  H
   -4.48402329    8.47792343    4.32098036   4     104  N
   -4.15801494   10.16008476    4.32871183   1     105  Si
   -2.67748621   10.78650226    4.28528500   3     106  O
    5.32859125    0.93719176    1.58993252   1     107  Si
    4.10628136    1.34816812    0.78544617   2     108  H
    6.42070416    0.36050889    0.70092427   2     109  H
    6.31924106    2.94478605    2.54371058   1     110  Si
    7.22693255    3.32692125    1.39889911   2     111  H
    5.26436619    4.40106037    2.71302878   3     112  O
    4.46706067    4.65148073    4.21460190   1     113  Si
    4.28203925    6.11535854    4.45966440   2     114  H
    7.29699709    2.61371869    4.71258039   1     115  Si
    7.93850220    1.25917438    4.89761846   2     116  H
    5.35257628    3.21644278    5.88442271   1     117  Si
    4.28154320    2.15626473    6.03498139   2     118  H
    5.53050212    3.95622460    7.17299179   2     119  H
   -9.27950207   14.29443492    5.77874413   3     120  O
  -10.90421520   14.46145724    6.43368423   5     121  P
  -11.32643398   15.99468092    6.30066089   3     122  O
  -11.86432653   13.48445794    5.68303848   3     123  O
   -4.63310987   17.53423671    3.93243951   3     124  O
    8.38532147    3.95640206    4.98552024   3     125  O
    8.81616005    4.26901316    6.62496948   5     126  P
   10.34386095    4.58467473    6.73366277   3     127  O
    8.20781796    3.05875666    7.43267284   3     128  O
    7.85154634    5.66296399    6.99476334   3     129  O
  -11.64817648    9.04784322   11.07212370   1     130  Si
  -10.70585968    8.18094966   11.89266836   2     131  H
  -12.66740825    9.70800871   11.98033107   2     132  H
  -10.26966713   10.91746619   10.31862899   1     133  Si
  -10.16944809   11.68602412   11.63028437   2     134  H
   -8.56920497   10.42898841    9.96737402   3     135  O
   -8.19727963   10.03819764    8.31883630   1     136  Si
   -7.04621404   10.87784857    7.87010978   2     137  H
  -11.24694371   12.00379137    8.37369520   1     138  Si
  -12.75540375   11.86636417    8.39591763   2     139  H
  -10.14797265   10.43145424    6.99440479   1     140  Si
  -10.97328355    9.16885988    6.90757786   2     141  H
   -9.81999077   10.96006695    5.60921636   2     142  H
    3.31421019    7.92503187    8.34406457   4     143  N
    3.78592541    6.25938775    8.92919476   1     144  Si
    5.17426016    5.84334211    8.57079576   2     145  H
    2.64216641    5.19137337    9.59648275   4     146  N
    1.05602592    6.03404777    9.74106331   1     147  Si
   -0.91760632    5.45044255    8.58911586   1     148  Si
   -1.69350925    4.04869421    8.39543000   3     149  O
   -1.77070869    7.01635815    8.28233666   4     150  N
   -2.85627518    6.92241974    8.30715751   2     151  H
   -1.16541736    8.69035874    8.20024740   1     152  Si
   -2.36652184    9.87322979    8.36801629   4     153  N
   -3.47963853    9.71081514    8.39556537   2     154  H
   -2.05221075   10.87877524    8.30765141   2     155  H
    0.47848828    9.19333705    7.97149165   4     156  N
    1.52344690    7.96609349    8.53287053   1     157  Si
   -7.49794466    8.27273933    8.41959401   4     158  N
   -8.53971823    6.83411372    8.43202580   1     159  Si
   -9.98984098    7.28134470    8.39545681   2     160  H
   -7.79357363    4.79739097    9.12291449   1     161  Si
   -8.47441338    3.77622657    8.22045721   2     162  H
   -5.58031949    5.11151519    8.47876815   1     163  Si
   -4.47025672    3.78164882    8.43248743   4     164  N
   -3.39105691    3.86707824    8.30885849   2     165  H
   -4.81830243    2.78681719    8.39527109   2     166  H
   -4.84090057    6.67772691    8.50323799   4     167  N
   -5.69200883    8.16711911    8.46101739   1     168  Si
   -4.99555184    9.61657580    8.39571123   3     169  O
    7.51254794    6.98033530    5.88672256   1     170  Si
    6.42181070    6.47310665    4.98263731   2     171  H
    8.74343254    7.28256069    5.07175703   2     172  H
    6.95548602    9.19878700    6.71450634   1     173  Si
    7.40527152    9.98020272    5.50844741   2     174  H
    5.26432160    9.79480852    6.91207467   3     175  O
    4.44462597    9.45943833    8.40823756   1     176  Si
    3.39072996   10.51676368    8.65562790   2     177  H
    8.00539422    9.59229381    8.81726921   1     178  Si
    9.27733414    8.80975614    9.00780738   2     179  H
    6.09617948    8.96033909   10.05575181   1     180  Si
    5.97673555    7.45978144   10.23229519   2     181  H
    5.79852302    9.61929555   11.36946703   2     182  H
  -12.48816323    8.00260047    9.88551875   3     183  O
  -13.86978819    7.08434576   10.25950874   5     184  P
  -15.15867719    7.99702200   10.06314213   3     185  O
  -13.91521183    5.75391835    9.44633587   3     186  O
  -10.79191093   13.66835592    8.04192340   3     187  O
    8.20501831   11.32656694    9.00940744   3     188  O
    8.24674083   11.77660508   10.66902622   5     189  P
    9.27342022   12.94396306   10.84452714   3     190  O
    8.64797405   10.43326881   11.45358082   3     191  O
    6.51726495   12.31429394   10.93104888   3     192  O
  -10.63395915    2.53615011   15.23424635   1     193  Si
   -9.27763182    2.51831162   15.91589488   2     194  H
  -11.68794132    2.24685211   16.26687472   2     195  H
  -10.98200189    4.76735419   14.44862123   1     196  Si
  -11.33102890    5.48446969   15.74055094   2     197  H
   -9.36812907    5.39329109   14.07645937   3     198  O
   -8.74823484    5.36472269   12.45423966   1     199  Si
   -8.38579067    6.74279021   11.98182753   2     200  H
  -12.36882806    4.88447663   12.44190219   1     201  Si
  -13.38194021    3.77392399   12.50582675   2     202  H
  -10.45311249    4.36730019   11.10821045   1     203  Si
  -10.25867626    2.87494578   11.01827158   2     204  H
  -10.61558726    4.94430650    9.70896856   2     205  H
    1.52284516   11.20876307   12.25528151   4     206  N
    3.06282870   10.31101716   12.40662915   1     207  Si
    4.28471042   11.14866483   12.33025298   2     208  H
    3.08029777    8.59592838   12.54308108   4     209  N
    1.40756566    8.07062178   12.87040597   1     210  Si
    0.03061391    6.40695074   11.93701057   1     211  Si
    0.08772447    4.94308312   12.59277290   3     212  O
   -1.67694290    7.17292805   11.92510942   4     213  N
   -2.40928714    6.38384855   12.06883927   2     214  H
   -2.35491996    8.79458045   12.10462149   1     215  Si
   -4.02458505    8.97068788   12.43679812   4     216  N
   -4.81590049    8.18130966   12.50537687   2     217  H
   -4.37065388    9.97267243   12.50447029   2     218  H
   -1.44092520   10.27597415   12.03563346   4     219  N
    0.21067970    9.98132781   12.33590562   1     220  Si
   -7.07668939    4.47822595   12.56132385   4     221  N
   -6.96881436    2.70093564   12.51878753   1     222  Si
   -8.38376100    2.15741963   12.59295423   2     223  H
   -5.05644408    1.59859709   13.04958018   1     224  Si
   -4.99572177    0.36101083   12.15652492   2     225  H
   -3.56855279    3.26452001   12.42579880   1     226  Si
   -1.86332111    2.97723585   12.52793185   4     227  N
   -1.07893459    3.75605354   12.51032282   2     228  H
   -1.51567394    1.97886055   12.50523635   2     229  H
   -4.00776333    4.93583209   12.40046947   4     230  N
   -5.60588594    5.54110910   12.52596724   1     231  Si
   -5.97546823    7.10118793   12.59299171   3     232  O
    5.33175149   13.16790350    9.95283264   1     233  Si
    4.72989226   12.13878251    9.00735547   2     234  H
    5.97774791   14.29408045    9.18200449   2     235  H
    3.38996123   14.49239194   10.84041501   1     236  Si
    3.21233280   15.37274062    9.61967350   2     237  H
    1.70011514   13.84368465   11.02074040   3     238  O
    1.30638579   13.06099811   12.49980667   1     239  Si
   -0.17999503   13.12530671   12.68116093   2     240  H
    3.80708870   15.49333289   12.97525888   1     241  Si
    5.26261581   15.82235724   13.20553382   2     242  H
    2.86728863   13.70574342   14.17161854   1     243  Si
    3.74880764   12.49323252   14.34249623   2     244  H
    2.22859008   14.02444480   15.48154336   2     245  H
  -10.61636911    1.25527093   13.99968048   3     246  O
  -10.99127330   -0.34357674   14.66285448   5     247  P
  -12.57066226   -0.53761155   14.52176733   3     248  O
  -10.16917931   -1.43724239   13.90510450   3     249  O
  -13.02790434    6.38664942   11.97637689   3     250  O
    2.67602727   16.81150542   13.21040268   3     251  O
    2.48664588   17.30047239   14.91664626   5     252  P
    2.40892662   18.87202064   15.04100843   3     253  O
    3.56377935   16.45441290   15.73763683   3     254  O
    0.89417305   16.63178133   15.30175904   3     255  O
   -5.81763780   -1.99584724   19.28186582   1     256  Si
   -4.72741096   -1.25878626   20.02690365   2     257  H
   -6.60232802   -2.87868342   20.20402668   2     258  H
   -7.42523436   -0.33589640   18.53658257   1     259  Si
   -8.11884714   -0.09029702   19.85368906   2     260  H
   -6.69087403    1.25478285   18.18769683   3     261  O
   -6.17124603    1.52583640   16.55278126   1     262  Si
   -6.77137658    2.80792764   16.07166517   2     263  H
   -8.62882245   -1.11573792   16.61540801   1     264  Si
   -8.74245804   -2.60923431   16.70324427   2     265  H
   -6.84569739   -0.35737707   15.25824566   1     266  Si
   -5.70968120   -1.34922863   15.12897802   2     267  H
   -7.31536763    0.08962829   13.90295820   2     268  H
   -2.09555029   12.60291099   16.50037928   4     269  N
   -0.32366169   12.87080404   16.52456501   1     270  Si
    0.09025739   14.29422742   16.35326405   2     271  H
    0.74045528   11.52816210   16.70323234   4     272  N
   -0.27261628   10.16724079   17.29232355   1     273  Si
   -0.41161162    7.95880936   16.65973947   1     274  Si
    0.80174394    6.92125865   16.70247894   3     275  O
   -2.13079239    7.38336675   16.61670514   4     276  N
   -2.22915213    6.29407944   16.61629375   2     277  H
   -3.66446802    8.28742960   16.60424017   1     278  Si
   -5.05388092    7.31091031   16.65948189   4     279  N
   -5.08590202    6.20329982   16.70252354   2     280  H
   -5.97811289    7.81947737   16.61620012   2     281  H
   -3.86407055   10.00295769   16.57370080   4     282  N
   -2.37549153   10.83822543   16.70656087   1     283  Si
   -4.30219197    1.88909318   16.68170971   4     284  N
   -3.06742049    0.62580180   16.74853088   1     285  Si
   -3.74686848   -0.71978746   16.70332778   2     286  H
   -0.94079459    1.00166158   17.48110004   1     287  Si
   -0.08889173    0.17994579   16.52759369   2     288  H
   -0.88942731    3.21705391   16.76850895   1     289  Si
    0.62009355    4.05491597   16.75052188   4     290  N
    0.71434081    5.12495022   16.61659943   2     291  H
    1.51795986    3.50672315   16.70320090   2     292  H
   -2.27115583    4.24618405   16.72612700   4     293  N
   -3.87708575    3.65146102   16.71615797   1     294  Si
   -5.17287493    4.58574717   16.70369084   3     295  O
   -0.42171642   16.50817044   14.14556957   1     296  Si
   -0.08941215   15.37251070   13.20456593   2     297  H
   -0.53578344   17.80071355   13.37941128   2     298  H
   -2.70976820   16.30393041   14.96876058   1     299  Si
   -3.47907759   16.90149745   13.81664175   2     300  H
   -3.56499558   14.74518483   15.21816672   3     301  O
   -3.44283538   13.90413462   16.71232531   1     302  Si
   -4.57532839   12.92728003   16.84082184   2     303  H
   -2.87717900   17.40901536   17.05803771   1     304  Si
   -1.87339685   18.51899167   17.22898886   2     305  H
   -2.62263115   15.45157006   18.34263647   1     306  Si
   -1.15648074   15.10057148   18.45340798   2     307  H
   -3.29903948   15.37158880   19.67768253   2     308  H
   -4.99570018   -3.05334972   18.10381707   3     309  O
   -4.38651511   -4.58765187   18.18641119   5     310  P
   -5.44592357   -5.66467834   18.19432039   3     311  O
   -3.02749803   -4.85145315   17.57688088   3     312  O
  -10.17382670   -0.35692278   16.34669333   3     313  O
   -4.55031562   17.88980333   17.23250120   3     314  O
   -5.00039110   18.07214026   18.91198304   5     315  P
   -6.06294384   19.23148696   19.06413196   3     316  O
   -3.66156207   18.24742054   19.76112369   3     317  O
    1.26622312   -2.23585560   23.46518565   1     318  Si
    1.33859319   -0.91172416   24.21895190   2     319  H
    1.33774987   -3.41610149   24.40022197   2     320  H
   -0.99920961   -2.14732447   22.65286310   1     321  Si
   -1.79194999   -2.52070682   23.88073879   2     322  H
   -1.42590443   -0.45116428   22.38436945   3     323  O
   -1.27734772    0.21314044   20.77833700   1     324  Si
   -2.58745609    0.80944475   20.37685510   2     325  H
   -1.54660515   -3.50891810   20.64275787   1     326  Si
   -0.54429183   -4.65352372   20.64121581   2     327  H
   -0.61818757   -1.61073553   19.38727521   1     328  Si
    0.89118705   -1.70871460   19.24004146   2     329  H
   -1.24957153   -1.70778169   18.01546994   2     330  H
   -5.11555923   11.21039668   20.73666099   4     331  N
   -3.89843548   12.45822197   21.26608313   1     332  Si
   -4.28198049   13.84602833   20.90183285   2     333  H
   -2.37752503   12.03781457   21.90015620   4     334  N
   -2.34044643   10.24660846   22.07740178   1     335  Si
   -0.88776597    8.76048546   20.99408687   1     336  Si
    0.71084022    8.80909524   20.81386226   3     337  O
   -1.81419622    7.22257333   20.74191451   4     338  N
   -1.18209069    6.32624368   20.72396549   2     339  H
   -3.57277658    6.93252860   20.68708936   1     340  Si
   -4.04930297    5.31383891   20.88354284   4     341  N
   -3.37400721    4.42007608   20.89150583   2     342  H
   -5.08548274    5.12353039   20.81383217   2     343  H
   -4.82464108    8.10754526   20.44765621   4     344  N
   -4.24273754    9.64905661   20.90272642   1     345  Si
   -0.06002013    1.67085315   20.87008805   4     346  N
    1.71325998    1.49873759   20.83299195   1     347  Si
    2.04918631    0.02140687   20.81409032   2     348  H
    3.12871742    3.17520723   21.43848863   1     349  Si
    4.28284434    3.05626327   20.46348619   2     350  H
    1.76526465    4.92473465   20.79214049   1     351  Si
    2.35656177    6.54830320   20.78368682   4     352  N
    1.72473034    7.43361568   20.71892657   2     353  H
    3.39054314    6.74255449   20.72618702   2     354  H
    0.04229165    4.80133513   20.84998135   4     355  N
   -0.81523137    3.32217092   20.86412331   1     356  Si
   -2.40859653    3.23681448   20.81412502   3     357  O
   -5.53224928   16.36663867   19.23830649   3     358  O
   -6.53145620   15.35195100   18.21087124   1     359  Si
   -5.55736125   14.64813815   17.29350240   2     360  H
   -7.40739424   16.18418733   17.31562094   2     361  H
   -8.11980133   13.68479365   19.06446104   1     362  Si
   -9.00996650   13.57522792   17.84108627   2     363  H
   -7.66964931   11.95996755   19.32891843   3     364  O
   -6.99651296   11.42287443   20.82348232   1     365  Si
   -7.40392185    9.97921831   20.98932925   2     366  H
   -9.01636982   14.33144019   21.16848705   1     367  Si
   -9.09925491   15.82265463   21.33921615   2     368  H
   -7.40994208   13.14836385   22.43118676   1     369  Si
   -6.06572339   13.84447272   22.56306810   2     370  H
   -7.84988838   12.67551563   23.78712576   2     371  H
    2.58985558   -2.33896840   22.30632942   3     372  O
    4.09051791   -2.98943061   23.01877200   5     373  P
    4.01275585   -4.57534858   23.09097167   3     374  O
    5.35202574   -2.42666242   22.29851649   3     375  O
   -3.12076550   -3.86403314   20.20239990   3     376  O
  -10.52591529   13.48545585   21.42466538   3     377  O
  -11.03801047   13.34932215   23.04170653   5     378  P
  -12.57528285   13.57337083   23.17494780   3     379  O
  -10.08172467   14.29073857   23.87363074   3     380  O
  -10.61648261   11.68705282   23.26288456   3     381  O
    6.41289199    2.09251144   27.55061129   1     382  Si
    5.70947401    3.23662302   28.24835749   2     383  H
    7.22569448    1.25871705   28.51039386   2     384  H
    4.64702323    0.70272722   26.76027007   1     385  Si
    4.28035940   -0.09065854   27.98699897   2     386  H
    3.21435108    1.70707044   26.40776211   3     387  O
    2.98198169    2.28867095   24.78425837   1     388  Si
    1.60677284    1.88840014   24.31221544   2     389  H
    5.30799524   -0.52535590   24.81666688   1     390  Si
    6.77797215   -0.89932209   24.83669215   2     391  H
    4.75499333    1.35071077   23.46240984   1     392  Si
    5.88770462    2.33696905   23.26198653   2     393  H
    4.28257734    0.80924232   22.12574879   2     394  H
   -7.21800000    8.26477225   24.51276225   4     395  N
   -7.21966199   10.05293827   24.62895175   1     396  Si
   -8.56423945   10.69788260   24.57401148   2     397  H
   -5.72735132   10.90519386   24.78041233   4     398  N
   -4.45289849    9.71092362   25.11988415   1     399  Si
   -2.29950121    9.27766694   24.30201857   1     400  Si
   -1.06835245   10.15790653   24.83693170   3     401  O
   -2.12600976    7.43538965   24.41454646   4     402  N
   -1.07783249    7.18581750   24.57347912   2     403  H
   -3.22552882    6.05070144   24.50910317   1     404  Si
   -2.49920995    4.53627311   24.78784444   4     405  N
   -1.40800730    4.30865745   24.82400255   2     406  H
   -3.12300287    3.68604245   24.83688781   2     407  H
   -4.96253002    6.11273681   24.42635523   4     408  N
   -5.50804914    7.72222658   24.58752165   1     409  Si
    2.91979182    4.18732622   24.87195202   4     410  N
    4.39048882    5.20387832   24.84245924   1     411  Si
    5.61862020    4.31522676   24.83691216   2     412  H
    4.37151275    7.37731994   25.47477300   1     413  Si
    5.44104706    8.09067740   24.66149097   2     414  H
    2.20980470    7.86345036   24.82672254   1     415  Si
    1.61708084    9.48964553   24.86775488   4     416  N
    0.55442326    9.77947524   24.83108977   2     417  H
    2.29836525   10.28849287   24.75180418   2     418  H
    0.98850510    6.64030294   24.83988135   4     419  N
    1.27079044    4.95123223   24.86480887   1     420  Si
    0.08951255    3.86676869   24.83675767   3     421  O
  -10.81850966   10.35290891   22.13009011   1     422  Si
   -9.61529303   10.35948064   21.21127600   2     423  H
  -12.04338082   10.51839888   21.25335480   2     424  H
  -11.03456267    8.12197098   23.08529651   1     425  Si
  -11.77584335    7.46022595   21.95003893   2     426  H
   -9.54791335    7.10553937   23.26464778   3     427  O
   -8.71362206    7.16082643   24.76847602   1     428  Si
   -8.02876375    5.84318337   25.01143376   2     429  H
  -12.07236021    8.09601468   25.24749353   1     430  Si
  -13.11303734    9.16943669   25.44891096   2     431  H
  -10.04736867    8.22217446   26.43226755   1     432  Si
   -9.45618045    9.61827433   26.58625515   2     433  H
   -9.99024718    7.46175210   27.72396398   2     434  H
    7.49626064    2.78757924   26.32923704   3     435  O
    9.08348789    3.21909888   26.96867312   5     436  P
    9.98555566    1.89541329   26.85220445   3     437  O
    9.63357308    4.49335431   26.23553751   3     438  O
    4.19008679   -1.80309867   24.48379054   3     439  O
  -12.66663611    6.47232301   25.53659122   3     440  O
  -12.94897854    6.03651180   27.17236912   5     441  P
  -14.27030814    5.21560610   27.28542829   3     442  O
  -12.75698208    7.36993126   27.98459224   3     443  O
  -11.59666311    5.03376973   27.54536155   3     444  O
    7.93058764    8.54387643   31.61577054   1     445  Si
    6.75373437    9.07502017   32.40421052   2     446  H
    9.09961220    8.27146187   32.53289891   2     447  H
    7.28855923    6.32979220   30.85814779   1     448  Si
    7.40523536    5.57445624   32.18221329   2     449  H
    5.53455514    6.20425555   30.51802140   3     450  O
    5.02180623    6.45728542   28.87681911   1     451  Si
    4.19266465    5.30242536   28.42181442   2     452  H
    8.54121022    5.66118843   28.90424815   1     453  Si
    9.90322090    6.29388662   28.94712485   2     454  H
    6.98033165    6.79612693   27.53974068   1     455  Si
    7.31521929    8.27082970   27.45966223   2     456  H
    6.86914674    6.20354816   26.14932186   2     457  H
   -6.54366124    4.50891435   28.86288154   4     458  N
   -7.55070053    5.91471281   29.46013964   1     459  Si
   -9.00892231    5.84341220   29.12243546   2     460  H
   -6.82684846    7.30113707   30.13078230   4     461  N
   -5.04785747    7.04979571   30.24899744   1     462  Si
   -3.38811635    8.29811298   29.12372831   1     463  Si
   -3.12263162    9.88451845   28.94704831   3     464  O
   -2.05680016    7.09452016   28.82523938   4     465  N
   -1.06768554    7.55191598   28.85815073   2     466  H
   -2.05668867    5.31217161   28.73612272   1     467  Si
   -0.54000304    4.56222441   28.91757835   4     468  N
    0.45996111    5.05458719   28.94699316   2     469  H
   -0.53465079    3.50623286   28.85922805   2     470  H
   -3.43119318    4.27895462   28.48670323   4     471  N
   -4.83885897    5.08461321   29.02538779   1     472  Si
    3.74767998    7.86392700   28.98164792   4     473  N
    4.21781783    9.56788558   28.98091672   1     474  Si
    5.71703727    9.62295859   28.94614327   2     475  H
    2.83363812   11.22290289   29.67471112   1     476  Si
    3.12244161   12.40652306   28.77137480   2     477  H
    0.86732599   10.18512770   29.01351827   1     478  Si
   -0.61847383   11.07474170   28.96768770   4     479  N
   -1.60306486   10.61011485   28.86016235   2     480  H
   -0.62388523   12.13371288   28.94668046   2     481  H
    0.70375936    8.46071749   29.01209835   4     482  N
    2.01506242    7.35147436   28.99782101   1     483  Si
    1.87163360    5.75481205   28.94720287   3     484  O
  -10.82261119    3.93729368   26.40063388   1     485  Si
   -9.99113735    4.76511967   25.44862577   2     486  H
  -11.88524974    3.21508771   25.61228443   2     487  H
   -9.54691618    2.04195808   27.22120700   1     488  Si
   -9.72311300    1.07939163   26.06161561   2     489  H
   -7.76337191    2.07099740   27.46253381   3     490  O
   -7.07706410    2.67754913   28.93453121   1     491  Si
   -5.70998959    2.06770269   29.12083467   2     492  H
  -10.39376774    1.35476083   29.32517755   1     493  Si
  -11.84806621    1.69718345   29.55860150   2     494  H
   -8.80359621    2.58291165   30.57553657   1     495  Si
   -9.18898104    4.04655443   30.69699944   2     496  H
   -8.38479666    2.06796814   31.92096004   2     497  H
    8.38580089    9.79755714   30.43564127   3     498  O
    9.32828084   11.16300013   30.76997178   5     499  P
   10.87456791   10.78949832   30.52784450   3     500  O
    8.91987517   12.40494220   29.91068606   3     501  O
    8.65299952    3.95016601   28.59258794   3     502  O
   -9.98984723   -0.35761410   29.47568345   3     503  O
   -9.85246338   -0.80201976   31.14459542   5     504  P
  -10.43380039   -2.24548749   31.30852388   3     505  O
  -10.69768282    0.26695129   32.00369185   3     506  O
   -8.03479253   -0.71922033   31.39515286   3     507  O
    4.76854000   14.34817258   35.76021589   1     508  Si
    3.47961573   13.84349890   36.38100276   2     509  H
    5.62056030   15.01258881   36.81742683   2     510  H
    5.85532081   12.36869798   34.93348975   1     511  Si
    6.42494945   11.77664495   36.20559312   2     512  H
    4.55080537   11.23892260   34.54199995   3     513  O
    3.93699128   11.05193385   32.93746443   1     514  Si
    4.10345370    9.61894817   32.53175342   2     515  H
    7.18586392   12.72500010   32.92887032   1     516  Si
    7.76193627   14.11536474   32.96992266   2     517  H
    5.19249425   12.58981451   31.60415767   1     518  Si
    4.47806874   13.91565057   31.40305432   2     519  H
    5.61946254   12.04572074   30.25816891   2     520  H
   -3.71746110    1.99861895   32.74335160   4     521  N
   -5.47814494    2.29749770   32.89920359   1     522  Si
   -6.33454204    1.07903535   32.79446135   2     523  H
   -6.07714975    3.90299757   33.05816010   4     524  N
   -4.69320074    4.98291933   33.40225360   1     525  Si
   -3.95203865    7.00632927   32.44163076   1     526  Si
   -4.54863600    8.36256923   33.05692560   3     527  O
   -2.08650255    6.88867950   32.46644169   4     528  N
   -1.65517003    7.87402821   32.61884700   2     529  H
   -0.90167195    5.58921410   32.61722324   1     530  Si
    0.72800282    6.00910128   32.91439867   4     531  N
    1.17133055    7.02071380   32.96907474   2     532  H
    1.42652224    5.21497473   32.96952551   2     533  H
   -1.25502609    3.88735655   32.56638838   4     534  N
   -2.91273189    3.60416890   32.85422931   1     535  Si
    2.06065126   11.29000475   33.06925757   4     536  N
    1.30952739   12.90171182   33.01637366   1     537  Si
    2.40902088   13.93445151   33.05695721   2     538  H
   -0.85595194   13.29091891   33.57171268   1     539  Si
   -1.33754105   14.38310336   32.62058257   2     540  H
   -1.64671537   11.20279176   32.95516817   1     541  Si
   -3.34544528   10.87460987   33.00394323   4     542  N
   -3.83443861    9.88904818   32.97089950   2     543  H
   -4.01548107   11.68749855   32.96964136   2     544  H
   -0.65386179    9.78658892   32.94368652   4     545  N
    1.05650914    9.77527940   33.03483167   1     546  Si
    1.96056785    8.45049627   33.05717059   3     547  O
   -6.61747629   -1.12470573   30.43106971   1     548  Si
   -6.33469487    0.08793556   29.55881514   2     549  H
   -6.86964187   -2.33717993   29.55961962   2     550  H
   -4.36912817   -1.75061853   31.32247708   1     551  Si
   -3.92569326   -2.51705457   30.08498705   2     552  H
   -3.03703112   -0.53975864   31.48532395   3     553  O
   -2.87127989    0.33384319   32.96376101   1     554  Si
   -1.44191762    0.79106874   33.12371788   2     555  H
   -4.36234183   -2.79843818   33.46912573   1     556  Si
   -5.62029898   -3.59689142   33.67078334   2     557  H
   -4.10412522   -0.78115549   34.67769187   1     558  Si
   -5.35225957    0.08892059   34.80649114   2     559  H
   -3.39698306   -0.80934379   36.00847992   2     560  H
    4.28196443   15.55489779   34.54989811   3     561  O
    4.08890963   17.17790157   35.17347112   5     562  P
    5.52319134   17.88573714   35.07283946   3     563  O
    2.94472420   17.88893135   34.36964312   3     564  O
    8.30111014   11.50586382   32.44080638   3     565  O
   -2.85530294   -3.68467098   33.67431223   3     566  O
   -2.53181136   -4.02506647   35.38228531   5     567  P
   -1.96402956   -5.47946321   35.50586038   3     568  O
   -3.83097497   -3.59666231   36.20171306   3     569  O
   -1.25059337   -2.87769148   35.76570740   3     570  O
   -1.31616759   16.94777413   39.83574791   1     571  Si
   -2.05170614   15.91273020   40.66539446   2     572  H
   -0.89187474   18.07021033   40.75299420   2     573  H
    0.76681969   15.95514886   39.08099175   1     574  Si
    1.51642908   16.00198512   40.40291787   2     575  H
    0.62323527   14.20738987   38.73829801   3     576  O
    0.18134606   13.75735875   37.10709347   1     577  Si
    1.16023402   12.76489521   36.55644355   2     578  H
    1.59493435   17.07920509   37.11678332   1     579  Si
    1.16005497   18.52013442   37.16763292   2     580  H
    0.20329577   15.73510002   35.75526169   1     581  Si
   -1.16066020   16.36181668   35.59339128   2     582  H
    0.79993585   15.46889702   34.38616176   2     583  H
    0.23712064    1.97905614   37.08732768   4     584  N
   -1.33798315    1.10619841   37.05260046   1     585  Si
   -1.24917098   -0.36101862   36.81755029   2     586  H
   -2.82677627    1.96761283   37.18679092   4     587  N
   -2.38281722    3.61526092   37.71604533   1     588  Si
   -3.04445507    5.75748330   37.18669239   1     589  Si
   -4.54815665    6.29349974   37.25417782   3     590  O
   -1.60898011    6.85381027   37.15712172   4     591  N
   -1.87557978    7.91211860   37.16791562   2     592  H
    0.14993919    6.55435285   37.10529523   1     593  Si
    1.09794527    7.96145982   37.12908438   4     594  N
    0.73192154    9.02017213   37.18093627   2     595  H
    2.14214612    7.82240697   37.07987087   2     596  H
    0.93700708    5.01542000   37.05453862   4     597  N
   -0.14516948    3.71689894   37.26446186   1     598  Si
   -1.43714963   12.77716816   37.23868096   4     599  N
   -3.05650632   13.52174203   37.24259509   1     600  Si
   -2.85521268   15.01417306   37.16735191   2     601  H
   -4.89663719   12.45536302   38.03939377   1     602  Si
   -5.97724055   12.94572736   37.08014009   2     603  H
   -4.22381843   10.36141864   37.29352438   1     604  Si
   -5.34895775    9.04907275   37.24549989   4     605  N
   -5.08461917    8.00255357   37.16754308   2     606  H
   -6.38635193    9.24417893   37.25168303   2     607  H
   -2.56594558    9.86069174   37.23626852   4     608  N
   -1.26324529   10.97463411   37.24664458   1     609  Si
    0.26750003   10.51680748   37.25489813   3     610  O
   -4.64427710   19.15597793   41.01660225   2     611  H
   -0.06386314   -2.28850746   34.60801104   1     612  Si
   -0.80154294   -1.34892664   33.66957769   2     613  H
    0.53089870   -3.43392583   33.82783741   2     614  H
    2.01451913   -1.32785347   35.45119192   1     615  Si
    2.94294135   -1.61825708   34.28282540   2     616  H
    2.22830864    0.44620002   35.68370950   3     617  O
    1.93343613    1.14496333   37.23832052   1     618  Si
    2.85342688    2.33532468   37.42939046   2     619  H
    2.54059986   -2.30123118   37.57472255   1     620  Si
    1.96372566   -3.68494726   37.77945826   2     621  H
    1.61656388   -0.55942656   38.88316086   1     622  Si
    0.09034970   -0.62926277   39.00377652   2     623  H
    2.22946500   -0.26838716   40.22786173   2     624  H
   -2.49775003   17.61928533   38.65891879   3     625  O
   -3.92427508   18.52033816   40.74610451   3     626  O
   -3.61323520   18.81778945   39.04820516   5     627  P
   -2.94558685   20.22521974   38.74391195   3     628  O
   -4.90353888   18.69862162   38.13317924   3     629  O
    3.30539682   16.90043685   36.81224636   3     630  O
    4.28093572   -2.15927936   37.78242090   3     631  O
    4.77141488   -2.26502212   39.43815187   5     632  P
    6.15345446   -2.96639978   39.61499000   3     633  O
    3.56917159   -2.78635418   40.31339222   3     634  O
    4.90762476   -0.62779040   39.79031894   3     635  O
    5.72674282   -0.26798813   39.35001757   2     636  H
%endblock AtomicCoordinatesAndAtomicSpecies
#############
# Unit Cell
#############
LatticeConstant 1.0 Ang
%block LatticeVectors
    34.255884    0.000000    0.000000
    0.000000   34.521044    0.000000
    0.000000    0.000000   52.472122
%endblock LatticeVectors
%include ../../../Defaults.fdf
************************** End of input data file *****************************

reinit: -----------------------------------------------------------------------
reinit: System Name: 
reinit: -----------------------------------------------------------------------
reinit: System Label: 10G_Chain
reinit: -----------------------------------------------------------------------

initatom: Reading input for the pseudopotentials and atomic orbitals ----------
Species number:   1 Atomic number:   14 Label: Si
Species number:   2 Atomic number:    1 Label: H
Species number:   3 Atomic number:    8 Label: O
Species number:   4 Atomic number:    7 Label: N
Species number:   5 Atomic number:   15 Label: P

Ground state valence configuration:   3s02  3p02
Reading pseudopotential information in formatted form from Si.psf

Pseudopotential generated from a relativistic atomic calculation

Valence configuration for pseudopotential generation:
3s( 2.00) rc: 1.67
3p( 2.00) rc: 2.04
3d( 0.00) rc: 2.89
4f( 0.00) rc: 2.49
Ground state valence configuration:   1s01
Reading pseudopotential information in formatted form from H.psf

Pseudopotential generated from a relativistic atomic calculation

Valence configuration for pseudopotential generation:
1s( 1.00) rc: 0.01
2p( 0.00) rc: 0.60
3d( 0.00) rc: 1.99
4f( 0.00) rc: 2.49
Ground state valence configuration:   2s02  2p04
Reading pseudopotential information in formatted form from O.psf

Pseudopotential generated from a relativistic atomic calculation

Valence configuration for pseudopotential generation:
2s( 2.00) rc: 0.45
2p( 4.00) rc: 0.92
3d( 0.00) rc: 2.24
4f( 0.00) rc: 0.25
Ground state valence configuration:   2s02  2p03
Reading pseudopotential information in formatted form from N.psf

Pseudopotential generated from a relativistic atomic calculation

Valence configuration for pseudopotential generation:
2s( 2.00) rc: 0.94
2p( 3.00) rc: 0.59
3d( 0.00) rc: 3.46
4f( 0.00) rc: 2.47
Ground state valence configuration:   3s02  3p03
Reading pseudopotential information in formatted form from P.psf

Pseudopotential generated from a relativistic atomic calculation

Valence configuration for pseudopotential generation:
3s( 2.00) rc: 1.48
3p( 3.00) rc: 1.78
3d( 0.00) rc: 2.24
4f( 0.00) rc: 0.25
For Si, standard SIESTA heuristics set lmxkb to 3
 (one more than the basis l, including polarization orbitals).
Use PS.lmax or PS.KBprojectors blocks to override.
For H, standard SIESTA heuristics set lmxkb to 2
 (one more than the basis l, including polarization orbitals).
Use PS.lmax or PS.KBprojectors blocks to override.
For O, standard SIESTA heuristics set lmxkb to 3
 (one more than the basis l, including polarization orbitals).
Use PS.lmax or PS.KBprojectors blocks to override.
For N, standard SIESTA heuristics set lmxkb to 3
 (one more than the basis l, including polarization orbitals).
Use PS.lmax or PS.KBprojectors blocks to override.
For P, standard SIESTA heuristics set lmxkb to 3
 (one more than the basis l, including polarization orbitals).
Use PS.lmax or PS.KBprojectors blocks to override.

<basis_specs>
===============================================================================
Si                   Z=  14    Mass=  28.090        Charge= 0.17977+309
Lmxo=1 Lmxkb= 3    BasisType=split      Semic=F
L=0  Nsemic=0  Cnfigmx=3
          i=1  nzeta=2  polorb=0  (3s)
            splnorm:   0.28000    
               vcte:    0.0000    
               rinn:    0.0000    
               qcoe:    0.0000    
               qyuk:    0.0000    
               qwid:   0.10000E-01
                rcs:    0.0000      0.0000    
            lambdas:    1.0000      1.0000    
L=1  Nsemic=0  Cnfigmx=3
          i=1  nzeta=2  polorb=1  (3p)
            splnorm:   0.28000    
               vcte:    0.0000    
               rinn:    0.0000    
               qcoe:    0.0000    
               qyuk:    0.0000    
               qwid:   0.10000E-01
                rcs:    0.0000      0.0000    
            lambdas:    1.0000      1.0000    
-------------------------------------------------------------------------------
L=0  Nkbl=1  erefs: 0.17977+309
L=1  Nkbl=1  erefs: 0.17977+309
L=2  Nkbl=1  erefs: 0.17977+309
L=3  Nkbl=1  erefs: 0.17977+309
===============================================================================
</basis_specs>

atom: Called for Si                    (Z =  14)

read_vps: Pseudopotential generation method:
read_vps: ATM4.2.7  Troullier-Martins                       
Valence charge for ps generation:    4.00000

xc_check: Exchange-correlation functional:
xc_check: GGA Perdew, Burke & Ernzerhof 1996
V l=0 = -2*Zval/r beyond r=  2.7826
V l=1 = -2*Zval/r beyond r=  2.7826
V l=2 = -2*Zval/r beyond r=  2.9253
V l=3 = -2*Zval/r beyond r=  2.7826
All V_l potentials equal beyond r=  2.8530
This should be close to max(r_c) in ps generation
All pots = -2*Zval/r beyond r=  2.9253

VLOCAL1: 99.0% of the norm of Vloc inside      5.333 Ry
VLOCAL1: 99.9% of the norm of Vloc inside     12.154 Ry
atom: Maximum radius for 4*pi*r*r*local-pseudopot. charge    3.39869
atom: Maximum radius for r*vlocal+2*Zval:    2.96205
GHOST: No ghost state for L =  0
GHOST: No ghost state for L =  1
GHOST: No ghost state for L =  2
GHOST: No ghost state for L =  3

KBgen: Kleinman-Bylander projectors: 
   l= 0   rc=  3.075247   el= -0.794092   Ekb=  5.879390   kbcos=  0.167461
   l= 1   rc=  3.153101   el= -0.300068   Ekb=  2.642817   kbcos=  0.058301
   l= 2   rc=  3.273594   el=  0.001958   Ekb= -1.185135   kbcos= -0.104411
   l= 3   rc=  3.232927   el=  0.003046   Ekb= -0.497174   kbcos= -0.015889

KBgen: Total number of Kleinman-Bylander projectors:   16
atom: -------------------------------------------------------------------------

atom: SANKEY-TYPE ORBITALS:
atom: Selected multiple-zeta basis: split     

SPLIT: Orbitals with angular momentum L= 0

SPLIT: Basis orbitals for state 3s

SPLIT: PAO cut-off radius determined from an
SPLIT: energy shift=  0.002000 Ry

   izeta = 1
                 lambda =    1.000000
                     rc =    6.429618
                 energy =   -0.792283
                kinetic =    0.525293
    potential(screened) =   -1.317576
       potential(ionic) =   -3.744923

   izeta = 2
                 rmatch =    3.998416
              splitnorm =    0.280000
                 energy =   -0.583081
                kinetic =    1.069570
    potential(screened) =   -1.652651
       potential(ionic) =   -4.235185

SPLIT: Orbitals with angular momentum L= 1

SPLIT: Basis orbitals for state 3p

SPLIT: PAO cut-off radius determined from an
SPLIT: energy shift=  0.002000 Ry

   izeta = 1
                 lambda =    1.000000
                     rc =    8.464845
                 energy =   -0.298236
                kinetic =    0.785360
    potential(screened) =   -1.083596
       potential(ionic) =   -3.273779

   izeta = 2
                 rmatch =    4.587816
              splitnorm =    0.280000
                 energy =   -0.131871
                kinetic =    1.403687
    potential(screened) =   -1.535557
       potential(ionic) =   -4.015310

POLgen: Perturbative polarization orbital with L=  2

POLgen: Polarization orbital for state 3p

   izeta = 1
                     rc =    8.464845
                 energy =    0.321949
                kinetic =    1.055677
    potential(screened) =   -0.733728
       potential(ionic) =   -2.672950
atom: Total number of Sankey-type orbitals: 13

atm_pop: Valence configuration (for local Pseudopot. screening):
 3s( 2.00)                                                            
 3p( 2.00)                                                            
Vna: chval, zval:    4.00000   4.00000

Vna:  Cut-off radius for the neutral-atom potential:   8.464845

atom: _________________________________________________________________________

<basis_specs>
===============================================================================
H                    Z=   1    Mass=  1.0100        Charge= 0.17977+309
Lmxo=0 Lmxkb= 2    BasisType=split      Semic=F
L=0  Nsemic=0  Cnfigmx=1
          i=1  nzeta=2  polorb=1  (1s)
            splnorm:   0.62000    
               vcte:    0.0000    
               rinn:    0.0000    
               qcoe:    0.0000    
               qyuk:    0.0000    
               qwid:   0.10000E-01
                rcs:    0.0000      0.0000    
            lambdas:    1.0000      1.0000    
-------------------------------------------------------------------------------
L=0  Nkbl=1  erefs: 0.17977+309
L=1  Nkbl=1  erefs: 0.17977+309
L=2  Nkbl=1  erefs: 0.17977+309
===============================================================================
</basis_specs>

atom: Called for H                     (Z =   1)

read_vps: Pseudopotential generation method:
read_vps: ATM4.2.7  Troullier-Martins                       
Valence charge for ps generation:    1.00000

xc_check: Exchange-correlation functional:
xc_check: GGA Perdew, Burke & Ernzerhof 1996
V l=0 = -2*Zval/r beyond r=  0.0098
V l=1 = -2*Zval/r beyond r=  0.5817
V l=2 = -2*Zval/r beyond r=  1.9372
All V_l potentials equal beyond r=  1.9372
This should be close to max(r_c) in ps generation
All pots = -2*Zval/r beyond r=  1.9372

VLOCAL1: 99.0% of the norm of Vloc inside     11.567 Ry
VLOCAL1: 99.9% of the norm of Vloc inside     26.362 Ry
atom: Maximum radius for 4*pi*r*r*local-pseudopot. charge    2.25106
atom: Maximum radius for r*vlocal+2*Zval:    1.91306
GHOST: No ghost state for L =  0
GHOST: No ghost state for L =  1
GHOST: No ghost state for L =  2

KBgen: Kleinman-Bylander projectors: 
   l= 0   rc=  2.036604   el= -0.477180   Ekb= -6.081590   kbcos= -0.277285
   l= 1   rc=  2.195416   el=  0.001076   Ekb= -0.926943   kbcos= -0.034643
   l= 2   rc=  2.251056   el=  0.002010   Ekb= -0.130941   kbcos= -0.009788

KBgen: Total number of Kleinman-Bylander projectors:    9
atom: -------------------------------------------------------------------------

atom: SANKEY-TYPE ORBITALS:
atom: Selected multiple-zeta basis: split     

SPLIT: Orbitals with angular momentum L= 0

SPLIT: Basis orbitals for state 1s

SPLIT: PAO cut-off radius determined from an
SPLIT: energy shift=  0.002000 Ry

   izeta = 1
                 lambda =    1.000000
                     rc =    6.518340
                 energy =   -0.475305
                kinetic =    0.912139
    potential(screened) =   -1.387444
       potential(ionic) =   -1.907295

   izeta = 2
                 rmatch =    2.141150
              splitnorm =    0.620000
                 energy =    0.566467
                kinetic =    3.772856
    potential(screened) =   -3.206389
       potential(ionic) =   -3.759093

POLgen: Perturbative polarization orbital with L=  1

POLgen: Polarization orbital for state 1s

   izeta = 1
                     rc =    6.518340
                 energy =    0.533861
                kinetic =    1.121086
    potential(screened) =   -0.587225
       potential(ionic) =   -1.053027
atom: Total number of Sankey-type orbitals:  5

atm_pop: Valence configuration (for local Pseudopot. screening):
 1s( 1.00)                                                            
Vna: chval, zval:    1.00000   1.00000

Vna:  Cut-off radius for the neutral-atom potential:   6.518340

atom: _________________________________________________________________________

<basis_specs>
===============================================================================
O                    Z=   8    Mass=  16.000        Charge= 0.17977+309
Lmxo=1 Lmxkb= 3    BasisType=split      Semic=F
L=0  Nsemic=0  Cnfigmx=2
          i=1  nzeta=2  polorb=0  (2s)
            splnorm:   0.28000    
               vcte:    0.0000    
               rinn:    0.0000    
               qcoe:    0.0000    
               qyuk:    0.0000    
               qwid:   0.10000E-01
                rcs:    0.0000      0.0000    
            lambdas:    1.0000      1.0000    
L=1  Nsemic=0  Cnfigmx=2
          i=1  nzeta=2  polorb=1  (2p)
            splnorm:   0.28000    
               vcte:    0.0000    
               rinn:    0.0000    
               qcoe:    0.0000    
               qyuk:    0.0000    
               qwid:   0.10000E-01
                rcs:    0.0000      0.0000    
            lambdas:    1.0000      1.0000    
-------------------------------------------------------------------------------
L=0  Nkbl=1  erefs: 0.17977+309
L=1  Nkbl=1  erefs: 0.17977+309
L=2  Nkbl=1  erefs: 0.17977+309
L=3  Nkbl=1  erefs: 0.17977+309
===============================================================================
</basis_specs>

atom: Called for O                     (Z =   8)

read_vps: Pseudopotential generation method:
read_vps: ATM4.2.7  Troullier-Martins                       
Valence charge for ps generation:    6.00000

xc_check: Exchange-correlation functional:
xc_check: GGA Perdew, Burke & Ernzerhof 1996
V l=0 = -2*Zval/r beyond r=  1.1000
V l=1 = -2*Zval/r beyond r=  1.1000
V l=2 = -2*Zval/r beyond r=  2.2154
V l=3 = -2*Zval/r beyond r=  1.1000
All V_l potentials equal beyond r=  2.2154
This should be close to max(r_c) in ps generation
All pots = -2*Zval/r beyond r=  2.2154

VLOCAL1: 99.0% of the norm of Vloc inside      8.845 Ry
VLOCAL1: 99.9% of the norm of Vloc inside     20.157 Ry
atom: Maximum radius for 4*pi*r*r*local-pseudopot. charge    2.67231
atom: Maximum radius for r*vlocal+2*Zval:    2.32897
GHOST: No ghost state for L =  0
GHOST: No ghost state for L =  1
GHOST: No ghost state for L =  2
GHOST: No ghost state for L =  3

KBgen: Kleinman-Bylander projectors: 
   l= 0   rc=  2.243238   el= -1.759686   Ekb=**********   kbcos= -0.171774
   l= 1   rc=  2.328968   el= -0.663873   Ekb=-14.506792   kbcos= -0.519897
   l= 2   rc=  2.573941   el=  0.002031   Ekb= -1.137373   kbcos= -0.019581
   l= 3   rc=  2.606321   el=  0.003153   Ekb= -1.013546   kbcos= -0.003122

KBgen: Total number of Kleinman-Bylander projectors:   16
atom: -------------------------------------------------------------------------

atom: SANKEY-TYPE ORBITALS:
atom: Selected multiple-zeta basis: split     

SPLIT: Orbitals with angular momentum L= 0

SPLIT: Basis orbitals for state 2s

SPLIT: PAO cut-off radius determined from an
SPLIT: energy shift=  0.002000 Ry

   izeta = 1
                 lambda =    1.000000
                     rc =    4.243912
                 energy =   -1.758270
                kinetic =    3.286084
    potential(screened) =   -5.044353
       potential(ionic) =  -12.921184

   izeta = 2
                 rmatch =    2.187845
              splitnorm =    0.280000
                 energy =   -0.885018
                kinetic =    8.134434
    potential(screened) =   -9.019452
       potential(ionic) =  -17.710645

SPLIT: Orbitals with angular momentum L= 1

SPLIT: Basis orbitals for state 2p

SPLIT: PAO cut-off radius determined from an
SPLIT: energy shift=  0.002000 Ry

   izeta = 1
                 lambda =    1.000000
                     rc =    5.314825
                 energy =   -0.661986
                kinetic =    4.917472
    potential(screened) =   -5.579458
       potential(ionic) =  -13.236259

   izeta = 2
                 rmatch =    2.160663
              splitnorm =    0.280000
                 energy =   -0.068760
                kinetic =    9.183374
    potential(screened) =   -9.252135
       potential(ionic) =  -18.274251

POLgen: Perturbative polarization orbital with L=  2

POLgen: Polarization orbital for state 2p

   izeta = 1
                     rc =    5.314825
                 energy =    1.970580
                kinetic =    3.886128
    potential(screened) =   -1.915547
       potential(ionic) =   -7.749584
atom: Total number of Sankey-type orbitals: 13

atm_pop: Valence configuration (for local Pseudopot. screening):
 2s( 2.00)                                                            
 2p( 4.00)                                                            
Vna: chval, zval:    6.00000   6.00000

Vna:  Cut-off radius for the neutral-atom potential:   5.314825

atom: _________________________________________________________________________

<basis_specs>
===============================================================================
N                    Z=   7    Mass=  14.010        Charge= 0.17977+309
Lmxo=1 Lmxkb= 3    BasisType=split      Semic=F
L=0  Nsemic=0  Cnfigmx=2
          i=1  nzeta=2  polorb=0  (2s)
            splnorm:   0.28000    
               vcte:    0.0000    
               rinn:    0.0000    
               qcoe:    0.0000    
               qyuk:    0.0000    
               qwid:   0.10000E-01
                rcs:    0.0000      0.0000    
            lambdas:    1.0000      1.0000    
L=1  Nsemic=0  Cnfigmx=2
          i=1  nzeta=2  polorb=1  (2p)
            splnorm:   0.28000    
               vcte:    0.0000    
               rinn:    0.0000    
               qcoe:    0.0000    
               qyuk:    0.0000    
               qwid:   0.10000E-01
                rcs:    0.0000      0.0000    
            lambdas:    1.0000      1.0000    
-------------------------------------------------------------------------------
L=0  Nkbl=1  erefs: 0.17977+309
L=1  Nkbl=1  erefs: 0.17977+309
L=2  Nkbl=1  erefs: 0.17977+309
L=3  Nkbl=1  erefs: 0.17977+309
===============================================================================
</basis_specs>

atom: Called for N                     (Z =   7)

read_vps: Pseudopotential generation method:
read_vps: ATM4.2.7  Troullier-Martins                       
Valence charge for ps generation:    5.00000

xc_check: Exchange-correlation functional:
xc_check: GGA Perdew, Burke & Ernzerhof 1996
V l=0 = -2*Zval/r beyond r=  1.2889
V l=1 = -2*Zval/r beyond r=  1.2889
V l=2 = -2*Zval/r beyond r=  3.4178
V l=3 = -2*Zval/r beyond r=  2.4084
All V_l potentials equal beyond r=  3.3753
This should be close to max(r_c) in ps generation
All pots = -2*Zval/r beyond r=  3.4178

VLOCAL1: 99.0% of the norm of Vloc inside      3.810 Ry
VLOCAL1: 99.9% of the norm of Vloc inside      8.683 Ry
atom: Maximum radius for 4*pi*r*r*local-pseudopot. charge    4.02088
atom: Maximum radius for r*vlocal+2*Zval:    3.54838
GHOST: No ghost state for L =  0
GHOST: No ghost state for L =  1
GHOST: No ghost state for L =  2
GHOST: No ghost state for L =  3

KBgen: Kleinman-Bylander projectors: 
   l= 0   rc=  3.417763   el= -1.365098   Ekb= -4.433130   kbcos= -0.707855
   l= 1   rc=  3.375302   el= -0.521201   Ekb=-13.264039   kbcos= -0.535594
   l= 2   rc=  3.872880   el=  0.001991   Ekb= -0.641094   kbcos= -0.062456
   l= 3   rc=  3.970931   el=  0.003093   Ekb= -0.474517   kbcos= -0.018236

KBgen: Total number of Kleinman-Bylander projectors:   16
atom: -------------------------------------------------------------------------

atom: SANKEY-TYPE ORBITALS:
atom: Selected multiple-zeta basis: split     

SPLIT: Orbitals with angular momentum L= 0

SPLIT: Basis orbitals for state 2s

SPLIT: PAO cut-off radius determined from an
SPLIT: energy shift=  0.002000 Ry

   izeta = 1
                 lambda =    1.000000
                     rc =    4.730425
                 energy =   -1.363399
                kinetic =    1.245246
    potential(screened) =   -2.608645
       potential(ionic) =   -8.121105

   izeta = 2
                 rmatch =    2.531849
              splitnorm =    0.280000
                 energy =   -0.959908
                kinetic =    2.409435
    potential(screened) =   -3.369343
       potential(ionic) =   -9.427975

SPLIT: Orbitals with angular momentum L= 1

SPLIT: Basis orbitals for state 2p

SPLIT: PAO cut-off radius determined from an
SPLIT: energy shift=  0.002000 Ry

   izeta = 1
                 lambda =    1.000000
                     rc =    5.924108
                 energy =   -0.519262
                kinetic =    3.672940
    potential(screened) =   -4.192202
       potential(ionic) =   -9.518354

   izeta = 2
                 rmatch =    2.531849
              splitnorm =    0.280000
                 energy =   -0.104258
                kinetic =    6.807538
    potential(screened) =   -6.911796
       potential(ionic) =  -13.149920

POLgen: Perturbative polarization orbital with L=  2

POLgen: Polarization orbital for state 2p

   izeta = 1
                     rc =    5.924108
                 energy =    1.427508
                kinetic =    2.872379
    potential(screened) =   -1.444871
       potential(ionic) =   -5.563644
atom: Total number of Sankey-type orbitals: 13

atm_pop: Valence configuration (for local Pseudopot. screening):
 2s( 2.00)                                                            
 2p( 3.00)                                                            
Vna: chval, zval:    5.00000   5.00000

Vna:  Cut-off radius for the neutral-atom potential:   5.924108

atom: _________________________________________________________________________

<basis_specs>
===============================================================================
P                    Z=  15    Mass=  30.970        Charge= 0.17977+309
Lmxo=1 Lmxkb= 3    BasisType=split      Semic=F
L=0  Nsemic=0  Cnfigmx=3
          i=1  nzeta=2  polorb=0  (3s)
            splnorm:   0.28000    
               vcte:    0.0000    
               rinn:    0.0000    
               qcoe:    0.0000    
               qyuk:    0.0000    
               qwid:   0.10000E-01
                rcs:    0.0000      0.0000    
            lambdas:    1.0000      1.0000    
L=1  Nsemic=0  Cnfigmx=3
          i=1  nzeta=2  polorb=1  (3p)
            splnorm:   0.28000    
               vcte:    0.0000    
               rinn:    0.0000    
               qcoe:    0.0000    
               qyuk:    0.0000    
               qwid:   0.10000E-01
                rcs:    0.0000      0.0000    
            lambdas:    1.0000      1.0000    
-------------------------------------------------------------------------------
L=0  Nkbl=1  erefs: 0.17977+309
L=1  Nkbl=1  erefs: 0.17977+309
L=2  Nkbl=1  erefs: 0.17977+309
L=3  Nkbl=1  erefs: 0.17977+309
===============================================================================
</basis_specs>

atom: Called for P                     (Z =  15)

read_vps: Pseudopotential generation method:
read_vps: ATM4.2.7  Troullier-Martins                       
Valence charge for ps generation:    5.00000

xc_check: Exchange-correlation functional:
xc_check: GGA Perdew, Burke & Ernzerhof 1996
V l=0 = -2*Zval/r beyond r=  2.4397
V l=1 = -2*Zval/r beyond r=  2.4397
V l=2 = -2*Zval/r beyond r=  2.4397
V l=3 = -2*Zval/r beyond r=  2.4397
All V_l potentials equal beyond r=  2.2075
This should be close to max(r_c) in ps generation
All pots = -2*Zval/r beyond r=  2.4397

VLOCAL1: 99.0% of the norm of Vloc inside      8.907 Ry
VLOCAL1: 99.9% of the norm of Vloc inside     20.300 Ry
atom: Maximum radius for 4*pi*r*r*local-pseudopot. charge    2.62975
atom: Maximum radius for r*vlocal+2*Zval:    2.32072
GHOST: No ghost state for L =  0
GHOST: No ghost state for L =  1
GHOST: No ghost state for L =  2
GHOST: No ghost state for L =  3

KBgen: Kleinman-Bylander projectors: 
   l= 0   rc=  2.629745   el= -1.025737   Ekb=  5.887360   kbcos=  0.265547
   l= 1   rc=  2.764584   el= -0.404840   Ekb=  1.502174   kbcos=  0.278467
   l= 2   rc=  2.799360   el=  0.002048   Ekb= -2.109988   kbcos= -0.068680
   l= 3   rc=  2.942895   el=  0.003178   Ekb= -1.913209   kbcos= -0.004114

KBgen: Total number of Kleinman-Bylander projectors:   16
atom: -------------------------------------------------------------------------

atom: SANKEY-TYPE ORBITALS:
atom: Selected multiple-zeta basis: split     

SPLIT: Orbitals with angular momentum L= 0

SPLIT: Basis orbitals for state 3s

SPLIT: PAO cut-off radius determined from an
SPLIT: energy shift=  0.002000 Ry

   izeta = 1
                 lambda =    1.000000
                     rc =    5.708298
                 energy =   -1.023748
                kinetic =    0.687451
    potential(screened) =   -1.711199
       potential(ionic) =   -5.308789

   izeta = 2
                 rmatch =    3.505744
              splitnorm =    0.280000
                 energy =   -0.771256
                kinetic =    1.364152
    potential(screened) =   -2.135408
       potential(ionic) =   -5.960979

SPLIT: Orbitals with angular momentum L= 1

SPLIT: Basis orbitals for state 3p

SPLIT: PAO cut-off radius determined from an
SPLIT: energy shift=  0.002000 Ry

   izeta = 1
                 lambda =    1.000000
                     rc =    7.515201
                 energy =   -0.403147
                kinetic =    1.078092
    potential(screened) =   -1.481239
       potential(ionic) =   -4.764789

   izeta = 2
                 rmatch =    3.923200
              splitnorm =    0.280000
                 energy =   -0.178827
                kinetic =    1.915401
    potential(screened) =   -2.094227
       potential(ionic) =   -5.808379

POLgen: Perturbative polarization orbital with L=  2

POLgen: Polarization orbital for state 3p

   izeta = 1
                     rc =    7.515201
                 energy =    0.446507
                kinetic =    1.445101
    potential(screened) =   -0.998594
       potential(ionic) =   -3.899848
atom: Total number of Sankey-type orbitals: 13

atm_pop: Valence configuration (for local Pseudopot. screening):
 3s( 2.00)                                                            
 3p( 3.00)                                                            
Vna: chval, zval:    5.00000   5.00000

Vna:  Cut-off radius for the neutral-atom potential:   7.515201

atom: _________________________________________________________________________

prinput: Basis input ----------------------------------------------------------

PAO.BasisType split     

%block ChemicalSpeciesLabel
    1   14 Si                      # Species index, atomic number, species label
    2    1 H                       # Species index, atomic number, species label
    3    8 O                       # Species index, atomic number, species label
    4    7 N                       # Species index, atomic number, species label
    5   15 P                       # Species index, atomic number, species label
%endblock ChemicalSpeciesLabel

%block PAO.Basis                 # Define Basis set
Si                    2                    # Species label, number of l-shells
 n=3   0   2                         # n, l, Nzeta 
   6.430      3.998   
   1.000      1.000   
 n=3   1   2 P   1                   # n, l, Nzeta, Polarization, NzetaPol
   8.465      4.588   
   1.000      1.000   
H                     1                    # Species label, number of l-shells
 n=1   0   2 P   1                   # n, l, Nzeta, Polarization, NzetaPol
   6.518      2.141   
   1.000      1.000   
O                     2                    # Species label, number of l-shells
 n=2   0   2                         # n, l, Nzeta 
   4.244      2.188   
   1.000      1.000   
 n=2   1   2 P   1                   # n, l, Nzeta, Polarization, NzetaPol
   5.315      2.161   
   1.000      1.000   
N                     2                    # Species label, number of l-shells
 n=2   0   2                         # n, l, Nzeta 
   4.730      2.532   
   1.000      1.000   
 n=2   1   2 P   1                   # n, l, Nzeta, Polarization, NzetaPol
   5.924      2.532   
   1.000      1.000   
P                     2                    # Species label, number of l-shells
 n=3   0   2                         # n, l, Nzeta 
   5.708      3.506   
   1.000      1.000   
 n=3   1   2 P   1                   # n, l, Nzeta, Polarization, NzetaPol
   7.515      3.923   
   1.000      1.000   
%endblock PAO.Basis

prinput: ----------------------------------------------------------------------

Dumping basis to NetCDF file Si.ion.nc
Dumping basis to NetCDF file H.ion.nc
Dumping basis to NetCDF file O.ion.nc
Dumping basis to NetCDF file N.ion.nc
Dumping basis to NetCDF file P.ion.nc
coor:   Atomic-coordinates input format  =     Cartesian coordinates
coor:                                          (in Angstroms)

siesta: Atomic coordinates (Bohr) and species
siesta:     -3.28278  31.94782   5.58845  1        1
siesta:     -4.55036  29.89761   7.10863  2        2
siesta:     -2.53115  34.14568   7.27053  2        3
siesta:      0.59869  30.28221   4.10410  1        4
siesta:      2.19599  30.40994   6.44957  2        5
siesta:      0.33541  27.01410   3.46431  3        6
siesta:     -0.33863  25.96635   0.42528  1        7
siesta:      1.51789  23.95727  -0.32997  2        8
siesta:      1.98604  32.33143   0.38372  1        9
siesta:      1.00872  35.00039   0.33007  2       10
siesta:     -0.42468  29.61036  -2.21983  1       11
siesta:     -3.03589  30.74739  -2.47949  2       12
siesta:      0.67405  29.04847  -4.79376  2       13
siesta:     -0.59975   3.94404   0.37876  4       14
siesta:     -3.58992   2.53041   1.35916  1       15
siesta:     -3.87789  -0.17461   0.66050  2       16
siesta:     -5.98110   4.26587   2.62130  4       17
siesta:     -4.90712   7.47096   2.91886  1       18
siesta:     -6.58817  11.07545   0.96002  1       19
siesta:     -9.43321  12.06068   0.49677  3       20
siesta:     -3.88402  13.12843   0.49949  4       21
siesta:     -4.38548  15.12525   0.49318  2       22
siesta:     -0.57130  12.52562   0.37268  1       23
siesta:      1.29529  15.12089   0.67881  4       24
siesta:      0.67323  17.15798   0.65998  2       25
siesta:      3.25785  14.79973   0.50908  2       26
siesta:      0.92726   9.64531  -0.07223  4       27
siesta:     -1.12931   7.28441   0.71312  1       28
siesta:     -3.42023  24.11547   0.53233  4       29
siesta:     -6.45123  25.55737   0.50672  1       30
siesta:     -6.06929  28.37330   0.49529  2       31
siesta:    -10.03765  23.56101   1.74414  1       32
siesta:    -12.13649  24.46313  -0.00075  2       33
siesta:     -8.71283  19.58123   0.55848  1       34
siesta:    -10.85275  17.11500   0.48223  4       35
siesta:    -10.32042  15.12919   0.33470  2       36
siesta:    -12.81129  17.49630   0.49477  2       37
siesta:     -5.57727  18.65802   0.60509  4       38
siesta:     -3.07678  20.71811   0.60038  1       39
siesta:     -0.17111  19.87485   0.49692  3       40
siesta:     -3.03316  -4.75543  -2.31624  3       41
siesta:     -0.72753  -3.74135  -4.46781  1       42
siesta:     -1.85448  -1.69670  -6.11661  2       43
siesta:      0.00164  -5.94809  -6.11772  2       44
siesta:      3.25553  -2.30959  -2.79580  1       45
siesta:      5.05774  -2.72050  -4.96100  2       46
siesta:      3.53461   1.01723  -2.30861  3       47
siesta:      2.64135   2.39874   0.51126  1       48
siesta:      4.21426   4.75568   0.82711  2       49
siesta:      4.35432  -4.09202   1.16888  1       50
siesta:      3.53971  -6.79620   1.48818  2       51
siesta:      2.30171  -0.95280   3.53880  1       52
siesta:     -0.51178  -1.35871   3.80058  2       53
siesta:      3.37243  -0.50615   6.11661  2       54
siesta:     -5.56500  32.96284   3.31813  3       55
siesta:     -7.71429  35.08424   4.69958  5       56
siesta:     -6.57719  37.86697   4.79953  3       57
siesta:    -10.28707  34.99500   3.29886  3       58
siesta:      5.22288  32.27756  -0.16593  3       59
siesta:      7.58372  -3.56906   1.64954  3       60
siesta:      8.54985  -3.69869   4.71182  5       61
siesta:     11.12319  -5.09364   4.95770  3       62
siesta:      6.24152  -4.75197   6.27731  3       63
siesta:      8.93525  -0.50960   5.12590  3       64
siesta:     -4.50060  -5.59684  -3.13914  2       65
siesta:      5.73449  32.96367  -1.82949  2       66
siesta:    -15.14792  27.55376  13.24010  1       67
siesta:    -14.66741  25.14144  14.70705  2       68
siesta:    -16.01786  29.56335  15.04145  2       69
siesta:    -11.09289  28.89145  11.80613  1       70
siesta:     -9.84484  29.92968  14.16557  2       71
siesta:     -9.27544  26.16534  11.06717  3       72
siesta:     -9.24232  25.00121   8.00182  1       73
siesta:     -6.57165  24.80310   7.10544  2       74
siesta:    -11.48857  31.49855   8.12575  1       75
siesta:    -13.82435  33.12769   8.09907  2       76
siesta:    -11.71424  27.85251   5.52250  1       77
siesta:    -14.33630  26.84089   5.12218  2       78
siesta:    -10.61903  28.54097   2.97404  2       79
siesta:      5.05389   7.84440   7.51782  4       80
siesta:      3.89613   4.67758   7.73299  1       81
siesta:      5.90126   2.71477   7.60101  2       82
siesta:      0.70181   4.10691   8.03177  4       83
siesta:     -0.78943   7.05204   8.68397  1       84
siesta:     -4.31208   9.23232   7.10663  1       85
siesta:     -7.08372   8.49648   8.09816  3       86
siesta:     -3.39465  12.60637   7.32663  4       87
siesta:     -5.06038  13.76093   7.60266  2       88
siesta:     -0.57560  14.37763   7.51617  1       89
siesta:     -0.90122  17.54064   8.03854  4       90
siesta:     -2.69502  18.68473   8.09613  2       91
siesta:      0.78476  18.61155   8.11890  2       92
siesta:      2.46027  13.12644   7.38147  4       93
siesta:      2.37330   9.91470   7.67684  1       94
siesta:    -10.32375  21.59007   8.18771  4       95
siesta:    -13.58420  20.72539   8.12355  1       96
siesta:    -15.17047  23.10405   8.09783  2       97
siesta:    -14.99272  16.87196   9.31336  1       98
siesta:    -17.36056  16.30905   7.76709  2       99
siesta:    -11.43941  14.64426   8.10813  1      100
siesta:    -11.44668  11.37353   8.16437  4      101
siesta:     -9.74814  10.19271   8.09492  2      102
siesta:    -13.15004  10.36356   7.93264  2      103
siesta:     -8.47358  16.02096   8.16547  4      104
siesta:     -7.85751  19.19979   8.18008  1      105
siesta:     -5.05972  20.38354   8.09802  3      106
siesta:     10.06958   1.77104   3.00454  1      107
siesta:      7.75975   2.54767   1.48428  2      108
siesta:     12.13338   0.68126   1.32456  2      109
siesta:     11.94164   5.56484   4.80692  1      110
siesta:     13.65693   6.28697   2.64354  2      111
siesta:      9.94821   8.31680   5.12688  3      112
siesta:      8.44152   8.79003   7.96445  1      113
siesta:      8.09188  11.55636   8.42755  2      114
siesta:     13.78933   4.93921   8.90549  1      115
siesta:     15.00160   2.37950   9.25516  2      116
siesta:     10.11491   6.07820  11.11995  1      117
siesta:      8.09095   4.07475  11.40447  2      118
siesta:     10.45114   7.47618  13.55500  2      119
siesta:    -17.53572  27.01258  10.92025  3      120
siesta:    -20.60599  27.32820  12.15791  5      121
siesta:    -21.40387  30.22558  11.90653  3      122
siesta:    -22.42034  25.48194  10.73939  3      123
siesta:     -8.75531  33.13492   7.43124  3      124
siesta:     15.84597   7.47652   9.42127  3      125
siesta:     16.66013   8.06727  12.51938  5      126
siesta:     19.54707   8.66378  12.72478  3      127
siesta:     15.51053   5.78021  14.04572  3      128
siesta:     14.83728  10.70146  13.21819  3      129
siesta:    -22.01187  17.09795  20.92329  1      130
siesta:    -20.23115  15.45976  22.47390  2      131
siesta:    -23.93794  18.34548  22.63955  2      132
siesta:    -19.40687  20.63103  19.49939  1      133
siesta:    -19.21748  22.08339  21.97806  2      134
siesta:    -16.19346  19.70794  18.83561  3      135
siesta:    -15.49062  18.96945  15.72033  1      136
siesta:    -13.31542  20.55616  14.87236  2      137
siesta:    -21.25365  22.68389  15.82400  1      138
siesta:    -24.10423  22.42419  15.86599  2      139
siesta:    -19.17690  19.71260  13.21751  1      140
siesta:    -20.73651  17.32664  13.05344  2      141
siesta:    -18.55710  20.71153  10.59989  2      142
siesta:      6.26295  14.97615  15.76800  4      143
siesta:      7.15437  11.82853  16.87374  1      144
siesta:      9.77794  11.04232  16.19646  2      145
siesta:      4.99297   9.81028  18.13473  4      146
siesta:      1.99560  11.40270  18.40795  1      147
siesta:     -1.73403  10.29985  16.23108  1      148
siesta:     -3.20027   7.65093  15.86507  3      149
siesta:     -3.34616  13.25900  15.65135  4      150
siesta:     -5.39758  13.08148  15.69826  2      151
siesta:     -2.20232  16.42240  15.49623  1      152
siesta:     -4.47208  18.65771  15.81327  4      153
siesta:     -6.57557  18.35079  15.86533  2      154
siesta:     -3.87812  20.55791  15.69919  2      155
siesta:      0.90421  17.37290  15.06394  4      156
siesta:      2.87890  15.05374  16.12479  1      157
siesta:    -14.16907  15.63322  15.91073  4      158
siesta:    -16.13774  12.91461  15.93423  1      159
siesta:    -18.87807  13.75975  15.86512  2      160
siesta:    -14.72773   9.06576  17.23982  1      161
siesta:    -16.01433   7.13604  15.53442  2      162
siesta:    -10.54528   9.65937  16.02256  1      163
siesta:     -8.44756   7.14628  15.93510  4      164
siesta:     -6.40817   7.30772  15.70147  2      165
siesta:     -9.10528   5.26632  15.86477  2      166
siesta:     -9.14798  12.61908  16.06880  4      167
siesta:    -10.75634  15.43362  15.98901  1      168
siesta:     -9.44023  18.17270  15.86560  3      169
siesta:     14.19666  13.19093  11.12430  1      170
siesta:     12.13547  12.23240   9.41582  2      171
siesta:     16.52270  13.76205   9.58424  2      172
siesta:     13.14397  17.38320  12.68858  1      173
siesta:     13.99394  18.85986  10.40946  2      174
siesta:      9.94813  18.50951  13.06193  3      175
siesta:      8.39913  17.87575  15.88927  1      176
siesta:      6.40755  19.87381  16.35677  2      177
siesta:     15.12801  18.12682  16.66223  1      178
siesta:     17.53163  16.64803  17.02230  2      179
siesta:     11.52011  16.93259  19.00262  1      180
siesta:     11.29440  14.09695  19.33624  2      181
siesta:     10.95762  18.17784  21.48519  2      182
siesta:    -23.59922  15.12273  18.68093  3      183
siesta:    -26.21011  13.38748  19.38767  5      184
siesta:    -28.64576  15.11219  19.01659  3      185
siesta:    -26.29595  10.87333  17.85099  3      186
siesta:    -20.39376  25.82946  15.19704  3      187
siesta:     15.50524  21.40412  17.02532  3      188
siesta:     15.58409  22.25457  20.16155  5      189
siesta:     17.52423  24.46055  20.49319  3      190
siesta:     16.34231  19.71603  21.64414  3      191
siesta:     12.31585  23.27065  20.65670  3      192
siesta:    -20.09528   4.79263  28.78856  1      193
siesta:    -17.53219   4.75892  30.07669  2      194
siesta:    -22.08702   4.24594  30.73995  2      195
siesta:    -20.75298   9.00900  27.30395  1      196
siesta:    -21.41255  10.36415  29.74534  2      197
siesta:    -17.70321  10.19185  26.60066  3      198
siesta:    -16.53177  10.13786  23.53511  1      199
siesta:    -15.84685  12.74203  22.64238  2      200
siesta:    -23.37371   9.23033  23.51180  1      201
siesta:    -25.28821   7.13169  23.63260  2      202
siesta:    -19.75353   8.25300  20.99148  1      203
siesta:    -19.38610   5.43286  20.82152  2      204
siesta:    -20.06056   9.34339  18.34730  2      205
siesta:      2.87776  21.18150  23.15913  4      206
siesta:      5.78791  19.48501  23.44514  1      207
siesta:      8.09693  21.06793  23.30081  2      208
siesta:      5.82092  16.24396  23.70300  4      209
siesta:      2.65991  15.25127  24.32155  1      210
siesta:      0.05785  12.10739  22.55769  1      211
siesta:      0.16578   9.34108  23.79690  3      212
siesta:     -3.16896  13.55487  22.53520  4      213
siesta:     -4.55289  12.06373  22.80681  2      214
siesta:     -4.45016  16.61936  22.87443  1      215
siesta:     -7.60537  16.95215  23.50215  4      216
siesta:     -9.10074  15.46044  23.63175  2      217
siesta:     -8.25934  18.84563  23.63003  2      218
siesta:     -2.72296  19.41878  22.74406  4      219
siesta:      0.39813  18.86198  23.31149  1      220
siesta:    -13.37301   8.46262  23.73747  4      221
siesta:    -13.16916   5.10403  23.65709  1      222
siesta:    -15.84302   4.07693  23.79724  2      223
siesta:     -9.55530   3.02091  24.66014  1      224
siesta:     -9.44055   0.68221  22.97251  2      225
siesta:     -6.74359   6.16905  23.48137  1      226
siesta:     -3.52117   5.62616  23.67437  4      227
siesta:     -2.03889   7.09792  23.64109  2      228
siesta:     -2.86421   3.73951  23.63148  2      229
siesta:     -7.57358   9.32737  23.43350  4      230
siesta:    -10.59359  10.47118  23.67066  1      231
siesta:    -11.29200  13.41931  23.79731  3      232
siesta:     10.07555  24.88374  18.80814  1      233
siesta:      8.93820  22.93898  17.02144  2      234
siesta:     11.29631  27.01191  17.35148  2      235
siesta:      6.40610  27.38666  20.48542  1      236
[...]
siesta:    277    0.000546    0.001478   -0.000070
siesta:    278    0.007642    0.017170    0.003484
siesta:    279    0.002838    0.000807    0.006808
siesta:    280    0.000050    0.000552    0.000213
siesta:    281    0.000478    0.000013   -0.000051
siesta:    282    0.023482    0.018144    0.008181
siesta:    283    0.087017   -0.027749    0.032265
siesta:    284   -0.021842    0.006901    0.000109
siesta:    285   -0.004025    0.001911    0.012020
siesta:    286    0.000762    0.000472   -0.000008
siesta:    287   -0.008564   -0.007271    0.009657
siesta:    288   -0.000482    0.000314    0.000748
siesta:    289    0.003749    0.002536    0.023188
siesta:    290    0.007437    0.010908    0.008605
siesta:    291    0.000094    0.000169    0.000052
siesta:    292    0.000866   -0.000294    0.000010
siesta:    293   -0.003700    0.004381    0.010462
siesta:    294   -0.006974    0.001305    0.017521
siesta:    295   -0.000451    0.000163    0.000047
siesta:    296   -0.014061   -0.000993    0.006761
siesta:    297   -0.000153    0.000017    0.000232
siesta:    298   -0.000009   -0.000008    0.000018
siesta:    299   -0.005717   -0.000586    0.006371
siesta:    300    0.000183   -0.000058    0.000168
siesta:    301    0.003652   -0.000677   -0.000786
siesta:    302    0.040197   -0.029343   -0.001254
siesta:    303   -0.001631    0.011668    0.029240
siesta:    304    0.000106   -0.000407    0.025317
siesta:    305   -0.000040    0.000098    0.000108
siesta:    306    0.005678   -0.038673   -0.000330
siesta:    307    0.000968    0.000890    0.000624
siesta:    308    0.000355   -0.000189   -0.000055
siesta:    309   -0.000425    0.000374   -0.002150
siesta:    310   -0.035552    0.000500   -0.037281
siesta:    311   -0.003845   -0.002612   -0.002770
siesta:    312    0.004851   -0.000169   -0.004103
siesta:    313   -0.001743    0.000456   -0.000115
siesta:    314   -0.000177    0.001607    0.000722
siesta:    315   -0.011790   -0.044436   -0.027285
siesta:    316    0.002072    0.000091    0.001294
siesta:    317   -0.001153    0.000400   -0.000259
siesta:    318   -0.084291    0.011959   -0.020230
siesta:    319    0.004806    0.015384   -0.005419
siesta:    320    0.000452   -0.001742    0.002356
siesta:    321    0.015451   -0.007236   -0.073798
siesta:    322    0.000107    0.000850   -0.000822
siesta:    323    0.002193   -0.000125   -0.000108
siesta:    324   -0.009881   -0.023682    0.025674
siesta:    325   -0.000105   -0.000253   -0.000033
siesta:    326    0.104584   -0.110947   -0.003201
siesta:    327   -0.031530   -0.049990    0.001287
siesta:    328   -0.021616   -0.057239    0.034432
siesta:    329   -0.000150    0.000117    0.000125
siesta:    330    0.000345   -0.000157    0.002922
siesta:    331   -0.011165   -0.017652   -0.000364
siesta:    332   -0.016469   -0.004657    0.015912
siesta:    333    0.000076   -0.000488   -0.000195
siesta:    334   -0.008044   -0.026869   -0.000361
siesta:    335    0.007679   -0.010218   -0.029016
siesta:    336   -0.006641    0.020706   -0.008586
siesta:    337   -0.001429    0.000180    0.000090
siesta:    338   -0.001350   -0.030768   -0.045556
siesta:    339    0.001005   -0.000584   -0.001234
siesta:    340    0.022289   -0.012423   -0.018406
siesta:    341   -0.003540   -0.021820   -0.006869
siesta:    342   -0.002673   -0.000151   -0.000046
siesta:    343   -0.000282   -0.000306   -0.000283
siesta:    344    0.023500    0.006579   -0.033662
siesta:    345   -0.025640   -0.037529   -0.015528
siesta:    346    0.002550   -0.005549    0.016212
siesta:    347   -0.009205   -0.034776    0.000049
siesta:    348    0.002551   -0.044717    0.007861
siesta:    349   -0.021331   -0.033933   -0.003289
siesta:    350   -0.000636    0.000160    0.001209
siesta:    351   -0.002944    0.014439   -0.006755
siesta:    352   -0.004947    0.006697    0.002600
siesta:    353   -0.004547    0.008365   -0.000013
siesta:    354    0.000004    0.000409   -0.000037
siesta:    355    0.000941   -0.034431    0.004650
siesta:    356    0.026561   -0.024341    0.011021
siesta:    357    0.003050   -0.002504   -0.000508
siesta:    358    0.006619   -0.003062    0.007833
siesta:    359   -0.032574    0.165398   -0.017842
siesta:    360   -0.006956    0.050772    0.006334
siesta:    361   -0.013142   -0.025667    0.007523
siesta:    362    0.007735   -0.034805   -0.005571
siesta:    363    0.000385    0.000401    0.000190
siesta:    364   -0.002784   -0.000669   -0.003348
siesta:    365   -0.027008    0.008919    0.017451
siesta:    366   -0.001286    0.000124    0.000054
siesta:    367    0.005481    0.015123    0.040358
siesta:    368   -0.000224    0.001267    0.000001
siesta:    369   -0.005194    0.010646    0.003063
siesta:    370    0.000170    0.000297   -0.000016
siesta:    371    0.000134    0.000433   -0.000546
siesta:    372   -0.001275   -0.003374   -0.000526
siesta:    373    0.027304   -0.014555    0.000341
siesta:    374   -0.000050   -0.000615    0.000254
siesta:    375   -0.000039    0.001706   -0.001436
siesta:    376   -0.011064    0.001247   -0.001724
siesta:    377    0.004030    0.001937   -0.004074
siesta:    378   -0.001746   -0.008184    0.006526
siesta:    379    0.000069   -0.000102   -0.000717
siesta:    380   -0.000023   -0.000471   -0.001293
siesta:    381   -0.001431   -0.000754   -0.003190
siesta:    382    0.000876    0.003573    0.001815
siesta:    383   -0.000029    0.000297    0.000193
siesta:    384   -0.000013    0.000000    0.000004
siesta:    385   -0.000267    0.003606    0.001915
siesta:    386    0.000047   -0.000062    0.000013
siesta:    387    0.000112   -0.000255    0.000385
siesta:    388    0.002352   -0.007046    0.000147
siesta:    389    0.000097    0.000038    0.000021
siesta:    390    0.001512   -0.004413    0.001075
siesta:    391    0.000114   -0.000006    0.000008
siesta:    392    0.000085   -0.002642    0.002325
siesta:    393    0.000197    0.000048   -0.000001
siesta:    394    0.000039   -0.000063    0.000048
siesta:    395   -0.000413    0.013710   -0.000826
siesta:    396    0.003893    0.022181    0.001356
siesta:    397   -0.000009    0.000129   -0.000041
siesta:    398   -0.007759    0.001844    0.003359
siesta:    399    0.000689    0.022964    0.003792
siesta:    400    0.008132   -0.002028   -0.007950
siesta:    401   -0.000828    0.000220   -0.000339
siesta:    402   -0.005663    0.011263    0.009646
siesta:    403    0.025543    0.018364   -0.000922
siesta:    404    0.078649    0.058829   -0.004546
siesta:    405   -0.022380    0.020524    0.004171
siesta:    406   -0.001979    0.002399    0.001895
siesta:    407   -0.001087    0.000248   -0.000036
siesta:    408    0.036293    0.004562   -0.003073
siesta:    409    0.001360    0.052230    0.003271
siesta:    410   -0.003686   -0.011362    0.000657
siesta:    411   -0.005407   -0.000346    0.003053
siesta:    412    0.000815   -0.000329   -0.000003
siesta:    413    0.005904   -0.016907    0.001786
siesta:    414   -0.000015    0.000021    0.000003
siesta:    415   -0.007097    0.004949    0.007063
siesta:    416   -0.005184    0.004451    0.001442
siesta:    417   -0.001612    0.000854    0.001486
siesta:    418   -0.000858   -0.000335    0.000033
siesta:    419    0.006182   -0.009275    0.007763
siesta:    420    0.000987   -0.000711    0.004198
siesta:    421   -0.001699   -0.002370   -0.000317
siesta:    422   -0.010007   -0.001736    0.011918
siesta:    423   -0.008674   -0.008977    0.003340
siesta:    424   -0.002028   -0.000120   -0.000563
siesta:    425   -0.006087   -0.011386    0.015610
siesta:    426   -0.000138   -0.000017    0.000032
siesta:    427    0.000009    0.000438    0.000545
siesta:    428    0.003446    0.004893    0.000961
siesta:    429   -0.000111    0.000237   -0.000026
siesta:    430   -0.004036   -0.001615    0.009054
siesta:    431    0.000014   -0.000016   -0.000050
siesta:    432    0.001208    0.000464   -0.000069
siesta:    433    0.000004    0.000015   -0.000015
siesta:    434   -0.000007   -0.000009   -0.000035
siesta:    435    0.000026    0.000273    0.000218
siesta:    436    0.004104    0.001889   -0.000393
siesta:    437   -0.000667    0.000807    0.000662
siesta:    438   -0.000687   -0.000496    0.001109
siesta:    439   -0.001227    0.001601    0.000332
siesta:    440    0.000348   -0.000955    0.000786
siesta:    441    0.010155   -0.009171    0.003756
siesta:    442    0.002829    0.000364   -0.000228
siesta:    443    0.000525   -0.002052   -0.000478
siesta:    444   -0.002661    0.001577    0.001996
siesta:    445   -0.015326   -0.021364    0.020017
siesta:    446    0.015511   -0.001054    0.011841
siesta:    447    0.000052   -0.000022   -0.000171
siesta:    448   -0.015034   -0.107811    0.163680
siesta:    449   -0.004048    0.030137   -0.100726
siesta:    450    0.000512   -0.001888    0.000961
siesta:    451   -0.007879    0.014400   -0.003141
siesta:    452    0.000089   -0.000230    0.000172
siesta:    453    0.000508   -0.009122   -0.006870
siesta:    454   -0.000065   -0.000012    0.000201
siesta:    455    0.012053    0.024865   -0.010744
siesta:    456    0.000099    0.000296   -0.000713
siesta:    457    0.000193   -0.000176   -0.001233
siesta:    458   -0.007326    0.012771   -0.016720
siesta:    459   -0.021055    0.027161    0.009822
siesta:    460   -0.000099    0.000204    0.000454
siesta:    461    0.001002    0.008212   -0.001860
siesta:    462   -0.002679    0.030499   -0.004028
siesta:    463    0.008019    0.007368   -0.000340
siesta:    464    0.000466    0.002499   -0.000210
siesta:    465   -0.000353   -0.001738   -0.000595
siesta:    466    0.000046   -0.000128   -0.000116
siesta:    467   -0.033089   -0.002248   -0.020751
siesta:    468   -0.008912   -0.004580    0.003755
siesta:    469   -0.002062   -0.000456    0.000214
siesta:    470   -0.000145   -0.000096   -0.000024
siesta:    471   -0.003599    0.028632   -0.009745
siesta:    472   -0.036524    0.005698   -0.009869
siesta:    473   -0.021112   -0.000857    0.001993
siesta:    474   -0.066418    0.038135    0.009419
siesta:    475   -0.006310   -0.011649    0.000588
siesta:    476   -0.013349    0.008266    0.007259
siesta:    477    0.000026   -0.000362    0.000828
siesta:    478   -0.000495    0.022038   -0.007267
siesta:    479   -0.011069    0.005101   -0.000926
siesta:    480   -0.000480   -0.000279   -0.000108
siesta:    481   -0.000362    0.000280   -0.000008
siesta:    482   -0.006979    0.002792   -0.002606
siesta:    483   -0.003995    0.007240   -0.001478
siesta:    484   -0.000197    0.000051    0.000228
siesta:    485   -0.070884   -0.008374   -0.014566
siesta:    486   -0.000967   -0.001336    0.001278
siesta:    487   -0.008807   -0.005202   -0.003974
siesta:    488   -0.011893   -0.013144    0.000258
siesta:    489    0.000033   -0.000318   -0.000368
siesta:    490   -0.000530   -0.000262   -0.000010
siesta:    491    0.005493    0.024476   -0.005711
siesta:    492   -0.000121    0.000308   -0.000031
siesta:    493   -0.031788    0.011146    0.003774
siesta:    494   -0.001366    0.002644   -0.000726
siesta:    495   -0.009786   -0.004830   -0.011779
siesta:    496   -0.000047   -0.000476   -0.000484
siesta:    497   -0.000682    0.000970   -0.003651
siesta:    498   -0.000364    0.000471    0.005055
siesta:    499   -0.004575   -0.002778    0.020407
siesta:    500    0.002280   -0.000647   -0.000667
siesta:    501    0.000852   -0.000551    0.001271
siesta:    502    0.000028   -0.000489   -0.000198
siesta:    503   -0.000353    0.000876    0.000373
siesta:    504   -0.002130    0.000883   -0.000256
siesta:    505   -0.000007   -0.000048    0.000029
siesta:    506   -0.000065   -0.000174   -0.000025
siesta:    507   -0.000772    0.000101    0.000488
siesta:    508   -0.000371   -0.003269    0.003750
siesta:    509   -0.000034    0.000008    0.000019
siesta:    510   -0.000013    0.000068    0.000066
siesta:    511    0.010451    0.015961   -0.005270
siesta:    512   -0.000067    0.000078   -0.000152
siesta:    513   -0.004809   -0.000326   -0.009107
siesta:    514   -0.001669    0.007870   -0.042693
siesta:    515   -0.000496    0.000745   -0.000167
siesta:    516   -0.026194    0.001036   -0.039610
siesta:    517   -0.000505   -0.001083   -0.000198
siesta:    518   -0.029826    0.073678   -0.026738
siesta:    519   -0.011497    0.006916    0.000354
siesta:    520   -0.000696    0.000960    0.000801
siesta:    521    0.001292   -0.001072    0.002691
siesta:    522    0.006500   -0.017589   -0.012699
siesta:    523   -0.000574   -0.000536   -0.000033
siesta:    524    0.000544   -0.015742   -0.010117
siesta:    525   -0.029217   -0.029530   -0.025863
siesta:    526   -0.012338   -0.039415    0.008803
siesta:    527   -0.004861    0.003738    0.001781
siesta:    528   -0.005744   -0.045657    0.016445
siesta:    529    0.000840   -0.008994    0.000453
siesta:    530   -0.005199   -0.030805    0.006448
siesta:    531   -0.037172   -0.019346   -0.003120
siesta:    532   -0.004304   -0.002372    0.000663
siesta:    533    0.000122   -0.000108    0.000195
siesta:    534   -0.005435   -0.009824    0.002286
siesta:    535   -0.019655   -0.034550   -0.006700
siesta:    536   -0.007611    0.014671   -0.003612
siesta:    537   -0.051068    0.001996    0.018595
siesta:    538   -0.001985   -0.001733   -0.000142
siesta:    539   -0.028402   -0.036615    0.025538
siesta:    540   -0.001434   -0.000337   -0.001683
siesta:    541   -0.039907   -0.100875   -0.011894
siesta:    542   -0.022169   -0.032974   -0.017236
siesta:    543    0.000601   -0.000242   -0.003034
siesta:    544   -0.001543   -0.003242    0.000101
siesta:    545    0.011273   -0.020355    0.004484
siesta:    546    0.033432    0.006643   -0.013672
siesta:    547    0.003908   -0.000764    0.000074
siesta:    548   -0.006870    0.002584   -0.004448
siesta:    549    0.000010    0.000567   -0.000293
siesta:    550   -0.000010   -0.000103    0.000042
siesta:    551   -0.002489    0.004491   -0.000175
siesta:    552   -0.000182    0.000118    0.000444
siesta:    553    0.001429   -0.000101    0.000313
siesta:    554    0.002082   -0.007868    0.003016
siesta:    555    0.005699    0.001193    0.002786
siesta:    556    0.001619    0.018234    0.012636
siesta:    557    0.000058    0.000134    0.000069
siesta:    558    0.030839    0.015028    0.004804
siesta:    559    0.002628   -0.000877   -0.000019
siesta:    560    0.005304   -0.000296    0.011343
siesta:    561   -0.000187   -0.000245   -0.000132
siesta:    562   -0.000160    0.000372   -0.000341
siesta:    563   -0.000960   -0.000763    0.000023
siesta:    564   -0.000412   -0.000837    0.000755
siesta:    565    0.001001   -0.001394   -0.000524
siesta:    566   -0.000239   -0.000013   -0.000053
siesta:    567   -0.001427    0.001322   -0.004345
siesta:    568   -0.000164    0.000554   -0.000104
siesta:    569    0.000759    0.000023   -0.000288
siesta:    570   -0.000862    0.000018    0.001301
siesta:    571    0.007936    0.011475    0.060761
siesta:    572   -0.037019   -0.061130   -0.037064
siesta:    573    0.001937    0.003554    0.000138
siesta:    574    0.005824   -0.006225   -0.014038
siesta:    575   -0.000014    0.000245   -0.000415
siesta:    576    0.000978    0.000334   -0.000874
siesta:    577   -0.002241    0.002764   -0.009467
siesta:    578   -0.000020   -0.000166    0.000091
siesta:    579   -0.009245   -0.012792   -0.032647
siesta:    580   -0.000008   -0.000009   -0.000001
siesta:    581    0.024189   -0.011352   -0.039989
siesta:    582    0.000375   -0.000001   -0.000128
siesta:    583    0.002990   -0.006299   -0.017039
siesta:    584    0.024105    0.023571    0.003837
siesta:    585    0.026692    0.027680   -0.009460
siesta:    586    0.000513    0.002246    0.000040
siesta:    587    0.027153    0.002787    0.001553
siesta:    588    0.008755    0.014373    0.027126
siesta:    589   -0.018335   -0.019092    0.007022
siesta:    590   -0.001786   -0.000442   -0.000099
siesta:    591    0.000924    0.015026   -0.000294
siesta:    592    0.002290   -0.000424   -0.000113
siesta:    593   -0.021694   -0.001562   -0.002064
siesta:    594   -0.004414    0.024647   -0.011257
siesta:    595   -0.004275    0.014916   -0.000724
siesta:    596    0.000108    0.000606   -0.000327
siesta:    597   -0.003024    0.024572    0.010694
siesta:    598    0.025838    0.041145    0.000696
siesta:    599   -0.009342   -0.005941    0.007123
siesta:    600   -0.010930   -0.007420    0.007963
siesta:    601   -0.000615   -0.000310    0.000158
siesta:    602   -0.016422    0.009619    0.016929
siesta:    603    0.000156    0.000090    0.000654
siesta:    604   -0.000693   -0.005883    0.027097
siesta:    605   -0.086331   -0.021620   -0.001238
siesta:    606    0.001136   -0.002650    0.000548
siesta:    607   -0.002200   -0.014931    0.001752
siesta:    608   -0.009239    0.031955    0.008311
siesta:    609   -0.022741   -0.038458    0.003650
siesta:    610    0.002739    0.001627    0.001018
siesta:    611   -0.000023    0.000017    0.000053
siesta:    612   -0.000118    0.013735    0.003650
siesta:    613   -0.000100    0.000075    0.000007
siesta:    614    0.001231    0.001415    0.002773
siesta:    615    0.007527    0.002439    0.014640
siesta:    616    0.000099    0.000084    0.000020
siesta:    617   -0.001282    0.000192    0.000284
siesta:    618   -0.006079    0.012444   -0.006438
siesta:    619   -0.000046    0.000026   -0.000006
siesta:    620   -0.002893    0.007673    0.000837
siesta:    621   -0.000190    0.000003    0.000250
siesta:    622    0.000243    0.012408   -0.002088
siesta:    623    0.000083    0.000136   -0.000072
siesta:    624    0.000018    0.000390    0.000142
siesta:    625   -0.000948    0.003902   -0.000386
siesta:    626   -0.000286    0.000190    0.000000
siesta:    627   -0.009785    0.006949    0.008838
siesta:    628    0.000088    0.000382   -0.000218
siesta:    629   -0.000138    0.000220    0.000092
siesta:    630    0.000079    0.000120    0.000930
siesta:    631   -0.000464    0.000000    0.000346
siesta:    632    0.001149   -0.000826    0.000672
siesta:    633    0.000299   -0.000026   -0.000044
siesta:    634    0.000013    0.000176   -0.000391
siesta:    635    0.000034    0.000208   -0.000069
siesta:    636    0.000006   -0.000005    0.000079
siesta: ----------------------------------------
siesta:    Tot   -0.835622   -0.446864   -0.010461

siesta: Stress tensor (static) (eV/Ang**3):
siesta:     0.000362   -0.000056   -0.000001
siesta:    -0.000056    0.000216   -0.000019
siesta:    -0.000001   -0.000019    0.000119

siesta: Cell volume =      62050.849041 Ang**3

siesta: Pressure (static):
siesta:                Solid            Molecule  Units
siesta:          -0.00000253         -0.00000276  Ry/Bohr**3
siesta:          -0.00023231         -0.00025297  eV/Ang**3
siesta:          -0.37220505         -0.40529965  kBar
(Free)E+ p_basis*V_orbitals  =     -101789.736201
(Free)Eharris+ p_basis*V_orbitals  =     -101789.736201
     spin moment: S , {S} =   16.17505  -0.00032  -0.00157  16.17505

siesta: Electric dipole (a.u.)  =   -1.515666    0.009899  -15.674240
siesta: Electric dipole (Debye) =   -3.852441    0.025160  -39.839972

cite: Please see "10G_Chain.bib" for an exhaustive BiBTeX file.
cite: Please clearly indicate Siesta version in published work: v4.1.5-1-g384057250
cite: This calculation has made use of the following articles
cite: which are encouraged to be cited in a published work.
        Primary SIESTA paper
          DOI: www.doi.org/10.1088/0953-8984/14/11/302
        Spin-orbit coupling (on-site approximation)
          DOI: www.doi.org/10.1088/0953-8984/19/19/489001


WARNING: alloc-realloc-dealloc name mismatch
         Name: atomlist isa
         Size:             -2544. Bytes
         Node:     0
         Subsequent mismatches will not be reported
>> End of run:   6-APR-2024   4:35:57
Job completed
