Siesta Version  : v4.1.5-1-g384057250
Architecture    : gcc
Compiler version: GNU Fortran (Ubuntu 11.3.0-1ubuntu1~22.04) 11.3.0
Compiler flags  : mpifort -O2 -fPIC -ftree-vectorize -fallow-argument-mismatch
PP flags        : -DFC_HAVE_ABORT -DMPI -DSIESTA__FLOOK -DSIESTA__METIS -DSIESTA__MUMPS -DCDF -DNCDF -DNCDF_4 -DNCDF_PARALLEL -DSIESTA__MRRR -DSIESTA__ELPA
Libraries       : libncdf.a libfdict.a  -lflookall -ldl -lnetcdff -lnetcdf -lhdf5_hl -lhdf5 -lhdf5_fortran -lz -lscalapack-openmpi -lopenblas -lmetis -lzmumps -lcmumps -ldmumps -lmumps_common -lpord -lsmumps -lesmumps -lscotch -lscotcherr -fopenmp -lelpa
PARALLEL version
NetCDF support
NetCDF-4 support
NetCDF-4 MPI-IO support
METIS ordering support
Lua support

* Running on 4 nodes in parallel
>> Start of run:   1-JUN-2023  10:37:06

                           ***********************       
                           *  WELCOME TO SIESTA  *       
                           ***********************       

reinit: Reading from standard input
reinit: Dumped input in INPUT_TMP.91910
************************** Dump of input data file ****************************
# mpirun -np 4 siesta-4.1.5 < Cytosine.fdf > Cytosine.out
SystemLabel      Cytosine
NumberOfAtoms    13
NumberOfSpecies  4
%block ChemicalSpeciesLabel
    1   14  Si
    2    7  N
    3    1  H
    4    8  O
%endblock ChemicalSpeciesLabel
###################################
# This overrides Defaults.fdf conf
###################################
MD.TypeOfRun                CG # CG, Verlet
AtomicCoordinatesFormat NotScaledCartesianAng
%block AtomicCoordinatesAndAtomicSpecies
    -1.485528000     0.563915000     0.000000000    1
    -1.694266000    -1.664243000     0.000000000    1
     1.637187000     0.763555000     0.000000000    1
     0.422526000    -2.217268000     0.000000000    1
     0.019516000     1.261570000     0.000000000    2
    -2.851242000     1.615072000     0.000000000    2
     1.736549000    -1.051671000     0.000000000    2
    -2.807698000    -2.665489000     0.000000000    3
     0.965310000    -3.612419000     0.000000000    3
    -3.860133000     1.290490000     0.000000000    3
    -2.721940000     2.666613000     0.000000000    3
     2.977942000     1.543968000     0.000000000    4
     2.721980000    -1.461916000     0.000000000    3
%endblock AtomicCoordinatesAndAtomicSpecies
%include ../../Defaults.fdf
************************** End of input data file *****************************

reinit: -----------------------------------------------------------------------
reinit: System Name: 
reinit: -----------------------------------------------------------------------
reinit: System Label: Cytosine
reinit: -----------------------------------------------------------------------

initatom: Reading input for the pseudopotentials and atomic orbitals ----------
Species number:   1 Atomic number:   14 Label: Si
Species number:   2 Atomic number:    7 Label: N
Species number:   3 Atomic number:    1 Label: H
Species number:   4 Atomic number:    8 Label: O

Ground state valence configuration:   3s02  3p02
Reading pseudopotential information in formatted form from Si.psf

Pseudopotential generated from a relativistic atomic calculation

Valence configuration for pseudopotential generation:
3s( 2.00) rc: 1.67
3p( 2.00) rc: 2.04
3d( 0.00) rc: 2.89
4f( 0.00) rc: 2.49
Ground state valence configuration:   2s02  2p03
Reading pseudopotential information in formatted form from N.psf

Pseudopotential generated from a relativistic atomic calculation

Valence configuration for pseudopotential generation:
2s( 2.00) rc: 0.94
2p( 3.00) rc: 0.59
3d( 0.00) rc: 3.46
4f( 0.00) rc: 2.47
Ground state valence configuration:   1s01
Reading pseudopotential information in formatted form from H.psf

Pseudopotential generated from a relativistic atomic calculation

Valence configuration for pseudopotential generation:
1s( 1.00) rc: 0.01
2p( 0.00) rc: 0.60
3d( 0.00) rc: 1.99
4f( 0.00) rc: 2.49
Ground state valence configuration:   2s02  2p04
Reading pseudopotential information in formatted form from O.psf

Pseudopotential generated from a relativistic atomic calculation

Valence configuration for pseudopotential generation:
2s( 2.00) rc: 0.45
2p( 4.00) rc: 0.92
3d( 0.00) rc: 2.24
4f( 0.00) rc: 0.25
For Si, standard SIESTA heuristics set lmxkb to 3
 (one more than the basis l, including polarization orbitals).
Use PS.lmax or PS.KBprojectors blocks to override.
For N, standard SIESTA heuristics set lmxkb to 3
 (one more than the basis l, including polarization orbitals).
Use PS.lmax or PS.KBprojectors blocks to override.
For H, standard SIESTA heuristics set lmxkb to 2
 (one more than the basis l, including polarization orbitals).
Use PS.lmax or PS.KBprojectors blocks to override.
For O, standard SIESTA heuristics set lmxkb to 3
 (one more than the basis l, including polarization orbitals).
Use PS.lmax or PS.KBprojectors blocks to override.

<basis_specs>
===============================================================================
Si                   Z=  14    Mass=  28.090        Charge= 0.17977+309
Lmxo=1 Lmxkb= 3    BasisType=split      Semic=F
L=0  Nsemic=0  Cnfigmx=3
          i=1  nzeta=2  polorb=0  (3s)
            splnorm:   0.28000    
               vcte:    0.0000    
               rinn:    0.0000    
               qcoe:    0.0000    
               qyuk:    0.0000    
               qwid:   0.10000E-01
                rcs:    0.0000      0.0000    
            lambdas:    1.0000      1.0000    
L=1  Nsemic=0  Cnfigmx=3
          i=1  nzeta=2  polorb=1  (3p)
            splnorm:   0.28000    
               vcte:    0.0000    
               rinn:    0.0000    
               qcoe:    0.0000    
               qyuk:    0.0000    
               qwid:   0.10000E-01
                rcs:    0.0000      0.0000    
            lambdas:    1.0000      1.0000    
-------------------------------------------------------------------------------
L=0  Nkbl=1  erefs: 0.17977+309
L=1  Nkbl=1  erefs: 0.17977+309
L=2  Nkbl=1  erefs: 0.17977+309
L=3  Nkbl=1  erefs: 0.17977+309
===============================================================================
</basis_specs>

atom: Called for Si                    (Z =  14)

read_vps: Pseudopotential generation method:
read_vps: ATM4.2.7  Troullier-Martins                       
Valence charge for ps generation:    4.00000

xc_check: Exchange-correlation functional:
xc_check: GGA Perdew, Burke & Ernzerhof 1996
V l=0 = -2*Zval/r beyond r=  2.7826
V l=1 = -2*Zval/r beyond r=  2.7826
V l=2 = -2*Zval/r beyond r=  2.9253
V l=3 = -2*Zval/r beyond r=  2.7826
All V_l potentials equal beyond r=  2.8530
This should be close to max(r_c) in ps generation
All pots = -2*Zval/r beyond r=  2.9253

VLOCAL1: 99.0% of the norm of Vloc inside      5.333 Ry
VLOCAL1: 99.9% of the norm of Vloc inside     12.154 Ry
atom: Maximum radius for 4*pi*r*r*local-pseudopot. charge    3.39869
atom: Maximum radius for r*vlocal+2*Zval:    2.96205
GHOST: No ghost state for L =  0
GHOST: No ghost state for L =  1
GHOST: No ghost state for L =  2
GHOST: No ghost state for L =  3

KBgen: Kleinman-Bylander projectors: 
   l= 0   rc=  3.075247   el= -0.794092   Ekb=  5.879390   kbcos=  0.167461
   l= 1   rc=  3.153101   el= -0.300068   Ekb=  2.642817   kbcos=  0.058301
   l= 2   rc=  3.273594   el=  0.001958   Ekb= -1.185135   kbcos= -0.104411
   l= 3   rc=  3.232927   el=  0.003046   Ekb= -0.497174   kbcos= -0.015889

KBgen: Total number of Kleinman-Bylander projectors:   16
atom: -------------------------------------------------------------------------

atom: SANKEY-TYPE ORBITALS:
atom: Selected multiple-zeta basis: split     

SPLIT: Orbitals with angular momentum L= 0

SPLIT: Basis orbitals for state 3s

SPLIT: PAO cut-off radius determined from an
SPLIT: energy shift=  0.002000 Ry

   izeta = 1
                 lambda =    1.000000
                     rc =    6.429618
                 energy =   -0.792283
                kinetic =    0.525293
    potential(screened) =   -1.317576
       potential(ionic) =   -3.744923

   izeta = 2
                 rmatch =    3.998416
              splitnorm =    0.280000
                 energy =   -0.583081
                kinetic =    1.069570
    potential(screened) =   -1.652651
       potential(ionic) =   -4.235185

SPLIT: Orbitals with angular momentum L= 1

SPLIT: Basis orbitals for state 3p

SPLIT: PAO cut-off radius determined from an
SPLIT: energy shift=  0.002000 Ry

   izeta = 1
                 lambda =    1.000000
                     rc =    8.464845
                 energy =   -0.298236
                kinetic =    0.785360
    potential(screened) =   -1.083596
       potential(ionic) =   -3.273779

   izeta = 2
                 rmatch =    4.587816
              splitnorm =    0.280000
                 energy =   -0.131871
                kinetic =    1.403687
    potential(screened) =   -1.535557
       potential(ionic) =   -4.015310

POLgen: Perturbative polarization orbital with L=  2

POLgen: Polarization orbital for state 3p

   izeta = 1
                     rc =    8.464845
                 energy =    0.321949
                kinetic =    1.055677
    potential(screened) =   -0.733728
       potential(ionic) =   -2.672950
atom: Total number of Sankey-type orbitals: 13

atm_pop: Valence configuration (for local Pseudopot. screening):
 3s( 2.00)                                                            
 3p( 2.00)                                                            
Vna: chval, zval:    4.00000   4.00000

Vna:  Cut-off radius for the neutral-atom potential:   8.464845

atom: _________________________________________________________________________

<basis_specs>
===============================================================================
N                    Z=   7    Mass=  14.010        Charge= 0.17977+309
Lmxo=1 Lmxkb= 3    BasisType=split      Semic=F
L=0  Nsemic=0  Cnfigmx=2
          i=1  nzeta=2  polorb=0  (2s)
            splnorm:   0.28000    
               vcte:    0.0000    
               rinn:    0.0000    
               qcoe:    0.0000    
               qyuk:    0.0000    
               qwid:   0.10000E-01
                rcs:    0.0000      0.0000    
            lambdas:    1.0000      1.0000    
L=1  Nsemic=0  Cnfigmx=2
          i=1  nzeta=2  polorb=1  (2p)
            splnorm:   0.28000    
               vcte:    0.0000    
               rinn:    0.0000    
               qcoe:    0.0000    
               qyuk:    0.0000    
               qwid:   0.10000E-01
                rcs:    0.0000      0.0000    
            lambdas:    1.0000      1.0000    
-------------------------------------------------------------------------------
L=0  Nkbl=1  erefs: 0.17977+309
L=1  Nkbl=1  erefs: 0.17977+309
L=2  Nkbl=1  erefs: 0.17977+309
L=3  Nkbl=1  erefs: 0.17977+309
===============================================================================
</basis_specs>

atom: Called for N                     (Z =   7)

read_vps: Pseudopotential generation method:
read_vps: ATM4.2.7  Troullier-Martins                       
Valence charge for ps generation:    5.00000

xc_check: Exchange-correlation functional:
xc_check: GGA Perdew, Burke & Ernzerhof 1996
V l=0 = -2*Zval/r beyond r=  1.2889
V l=1 = -2*Zval/r beyond r=  1.2889
V l=2 = -2*Zval/r beyond r=  3.4178
V l=3 = -2*Zval/r beyond r=  2.4084
All V_l potentials equal beyond r=  3.3753
This should be close to max(r_c) in ps generation
All pots = -2*Zval/r beyond r=  3.4178

VLOCAL1: 99.0% of the norm of Vloc inside      3.810 Ry
VLOCAL1: 99.9% of the norm of Vloc inside      8.683 Ry
atom: Maximum radius for 4*pi*r*r*local-pseudopot. charge    4.02088
atom: Maximum radius for r*vlocal+2*Zval:    3.54838
GHOST: No ghost state for L =  0
GHOST: No ghost state for L =  1
GHOST: No ghost state for L =  2
GHOST: No ghost state for L =  3

KBgen: Kleinman-Bylander projectors: 
   l= 0   rc=  3.417763   el= -1.365098   Ekb= -4.433130   kbcos= -0.707855
   l= 1   rc=  3.375302   el= -0.521201   Ekb=-13.264039   kbcos= -0.535594
   l= 2   rc=  3.872880   el=  0.001991   Ekb= -0.641094   kbcos= -0.062456
   l= 3   rc=  3.970931   el=  0.003093   Ekb= -0.474517   kbcos= -0.018236

KBgen: Total number of Kleinman-Bylander projectors:   16
atom: -------------------------------------------------------------------------

atom: SANKEY-TYPE ORBITALS:
atom: Selected multiple-zeta basis: split     

SPLIT: Orbitals with angular momentum L= 0

SPLIT: Basis orbitals for state 2s

SPLIT: PAO cut-off radius determined from an
SPLIT: energy shift=  0.002000 Ry

   izeta = 1
                 lambda =    1.000000
                     rc =    4.730425
                 energy =   -1.363399
                kinetic =    1.245246
    potential(screened) =   -2.608645
       potential(ionic) =   -8.121105

   izeta = 2
                 rmatch =    2.531849
              splitnorm =    0.280000
                 energy =   -0.959908
                kinetic =    2.409435
    potential(screened) =   -3.369343
       potential(ionic) =   -9.427975

SPLIT: Orbitals with angular momentum L= 1

SPLIT: Basis orbitals for state 2p

SPLIT: PAO cut-off radius determined from an
SPLIT: energy shift=  0.002000 Ry

   izeta = 1
                 lambda =    1.000000
                     rc =    5.924108
                 energy =   -0.519262
                kinetic =    3.672940
    potential(screened) =   -4.192202
       potential(ionic) =   -9.518354

   izeta = 2
                 rmatch =    2.531849
              splitnorm =    0.280000
                 energy =   -0.104258
                kinetic =    6.807538
    potential(screened) =   -6.911796
       potential(ionic) =  -13.149920

POLgen: Perturbative polarization orbital with L=  2

POLgen: Polarization orbital for state 2p

   izeta = 1
                     rc =    5.924108
                 energy =    1.427508
                kinetic =    2.872379
    potential(screened) =   -1.444871
       potential(ionic) =   -5.563644
atom: Total number of Sankey-type orbitals: 13

atm_pop: Valence configuration (for local Pseudopot. screening):
 2s( 2.00)                                                            
 2p( 3.00)                                                            
Vna: chval, zval:    5.00000   5.00000

Vna:  Cut-off radius for the neutral-atom potential:   5.924108

atom: _________________________________________________________________________

<basis_specs>
===============================================================================
H                    Z=   1    Mass=  1.0100        Charge= 0.17977+309
Lmxo=0 Lmxkb= 2    BasisType=split      Semic=F
L=0  Nsemic=0  Cnfigmx=1
          i=1  nzeta=2  polorb=1  (1s)
            splnorm:   0.62000    
               vcte:    0.0000    
               rinn:    0.0000    
               qcoe:    0.0000    
               qyuk:    0.0000    
               qwid:   0.10000E-01
                rcs:    0.0000      0.0000    
            lambdas:    1.0000      1.0000    
-------------------------------------------------------------------------------
L=0  Nkbl=1  erefs: 0.17977+309
L=1  Nkbl=1  erefs: 0.17977+309
L=2  Nkbl=1  erefs: 0.17977+309
===============================================================================
</basis_specs>

atom: Called for H                     (Z =   1)

read_vps: Pseudopotential generation method:
read_vps: ATM4.2.7  Troullier-Martins                       
Valence charge for ps generation:    1.00000

xc_check: Exchange-correlation functional:
xc_check: GGA Perdew, Burke & Ernzerhof 1996
V l=0 = -2*Zval/r beyond r=  0.0098
V l=1 = -2*Zval/r beyond r=  0.5817
V l=2 = -2*Zval/r beyond r=  1.9372
All V_l potentials equal beyond r=  1.9372
This should be close to max(r_c) in ps generation
All pots = -2*Zval/r beyond r=  1.9372

VLOCAL1: 99.0% of the norm of Vloc inside     11.567 Ry
VLOCAL1: 99.9% of the norm of Vloc inside     26.362 Ry
atom: Maximum radius for 4*pi*r*r*local-pseudopot. charge    2.25106
atom: Maximum radius for r*vlocal+2*Zval:    1.91306
GHOST: No ghost state for L =  0
GHOST: No ghost state for L =  1
GHOST: No ghost state for L =  2

KBgen: Kleinman-Bylander projectors: 
   l= 0   rc=  2.036604   el= -0.477180   Ekb= -6.081590   kbcos= -0.277285
   l= 1   rc=  2.195416   el=  0.001076   Ekb= -0.926943   kbcos= -0.034643
   l= 2   rc=  2.251056   el=  0.002010   Ekb= -0.130941   kbcos= -0.009788

KBgen: Total number of Kleinman-Bylander projectors:    9
atom: -------------------------------------------------------------------------

atom: SANKEY-TYPE ORBITALS:
atom: Selected multiple-zeta basis: split     

SPLIT: Orbitals with angular momentum L= 0

SPLIT: Basis orbitals for state 1s

SPLIT: PAO cut-off radius determined from an
SPLIT: energy shift=  0.002000 Ry

   izeta = 1
                 lambda =    1.000000
                     rc =    6.518340
                 energy =   -0.475305
                kinetic =    0.912139
    potential(screened) =   -1.387444
       potential(ionic) =   -1.907295

   izeta = 2
                 rmatch =    2.141150
              splitnorm =    0.620000
                 energy =    0.566467
                kinetic =    3.772856
    potential(screened) =   -3.206389
       potential(ionic) =   -3.759093

POLgen: Perturbative polarization orbital with L=  1

POLgen: Polarization orbital for state 1s

   izeta = 1
                     rc =    6.518340
                 energy =    0.533861
                kinetic =    1.121086
    potential(screened) =   -0.587225
       potential(ionic) =   -1.053027
atom: Total number of Sankey-type orbitals:  5

atm_pop: Valence configuration (for local Pseudopot. screening):
 1s( 1.00)                                                            
Vna: chval, zval:    1.00000   1.00000

Vna:  Cut-off radius for the neutral-atom potential:   6.518340

atom: _________________________________________________________________________

<basis_specs>
===============================================================================
O                    Z=   8    Mass=  16.000        Charge= 0.17977+309
Lmxo=1 Lmxkb= 3    BasisType=split      Semic=F
L=0  Nsemic=0  Cnfigmx=2
          i=1  nzeta=2  polorb=0  (2s)
            splnorm:   0.28000    
               vcte:    0.0000    
               rinn:    0.0000    
               qcoe:    0.0000    
               qyuk:    0.0000    
               qwid:   0.10000E-01
                rcs:    0.0000      0.0000    
            lambdas:    1.0000      1.0000    
L=1  Nsemic=0  Cnfigmx=2
          i=1  nzeta=2  polorb=1  (2p)
            splnorm:   0.28000    
               vcte:    0.0000    
               rinn:    0.0000    
               qcoe:    0.0000    
               qyuk:    0.0000    
               qwid:   0.10000E-01
                rcs:    0.0000      0.0000    
            lambdas:    1.0000      1.0000    
-------------------------------------------------------------------------------
L=0  Nkbl=1  erefs: 0.17977+309
L=1  Nkbl=1  erefs: 0.17977+309
L=2  Nkbl=1  erefs: 0.17977+309
L=3  Nkbl=1  erefs: 0.17977+309
===============================================================================
</basis_specs>

atom: Called for O                     (Z =   8)

read_vps: Pseudopotential generation method:
read_vps: ATM4.2.7  Troullier-Martins                       
Valence charge for ps generation:    6.00000

xc_check: Exchange-correlation functional:
xc_check: GGA Perdew, Burke & Ernzerhof 1996
V l=0 = -2*Zval/r beyond r=  1.1000
V l=1 = -2*Zval/r beyond r=  1.1000
V l=2 = -2*Zval/r beyond r=  2.2154
V l=3 = -2*Zval/r beyond r=  1.1000
All V_l potentials equal beyond r=  2.2154
This should be close to max(r_c) in ps generation
All pots = -2*Zval/r beyond r=  2.2154

VLOCAL1: 99.0% of the norm of Vloc inside      8.845 Ry
VLOCAL1: 99.9% of the norm of Vloc inside     20.157 Ry
atom: Maximum radius for 4*pi*r*r*local-pseudopot. charge    2.67231
atom: Maximum radius for r*vlocal+2*Zval:    2.32897
GHOST: No ghost state for L =  0
GHOST: No ghost state for L =  1
GHOST: No ghost state for L =  2
GHOST: No ghost state for L =  3

KBgen: Kleinman-Bylander projectors: 
   l= 0   rc=  2.243238   el= -1.759686   Ekb=**********   kbcos= -0.171774
   l= 1   rc=  2.328968   el= -0.663873   Ekb=-14.506792   kbcos= -0.519897
   l= 2   rc=  2.573941   el=  0.002031   Ekb= -1.137373   kbcos= -0.019581
   l= 3   rc=  2.606321   el=  0.003153   Ekb= -1.013546   kbcos= -0.003122

KBgen: Total number of Kleinman-Bylander projectors:   16
atom: -------------------------------------------------------------------------

atom: SANKEY-TYPE ORBITALS:
atom: Selected multiple-zeta basis: split     

SPLIT: Orbitals with angular momentum L= 0

SPLIT: Basis orbitals for state 2s

SPLIT: PAO cut-off radius determined from an
SPLIT: energy shift=  0.002000 Ry

   izeta = 1
                 lambda =    1.000000
                     rc =    4.243912
                 energy =   -1.758270
                kinetic =    3.286084
    potential(screened) =   -5.044353
       potential(ionic) =  -12.921184

   izeta = 2
                 rmatch =    2.187845
              splitnorm =    0.280000
                 energy =   -0.885018
                kinetic =    8.134434
    potential(screened) =   -9.019452
       potential(ionic) =  -17.710645

SPLIT: Orbitals with angular momentum L= 1

SPLIT: Basis orbitals for state 2p

SPLIT: PAO cut-off radius determined from an
SPLIT: energy shift=  0.002000 Ry

   izeta = 1
                 lambda =    1.000000
                     rc =    5.314825
                 energy =   -0.661986
                kinetic =    4.917472
    potential(screened) =   -5.579458
       potential(ionic) =  -13.236259

   izeta = 2
                 rmatch =    2.160663
              splitnorm =    0.280000
                 energy =   -0.068760
                kinetic =    9.183374
    potential(screened) =   -9.252135
       potential(ionic) =  -18.274251

POLgen: Perturbative polarization orbital with L=  2

POLgen: Polarization orbital for state 2p

   izeta = 1
                     rc =    5.314825
                 energy =    1.970580
                kinetic =    3.886128
    potential(screened) =   -1.915547
       potential(ionic) =   -7.749584
atom: Total number of Sankey-type orbitals: 13

atm_pop: Valence configuration (for local Pseudopot. screening):
 2s( 2.00)                                                            
 2p( 4.00)                                                            
Vna: chval, zval:    6.00000   6.00000

Vna:  Cut-off radius for the neutral-atom potential:   5.314825

atom: _________________________________________________________________________

prinput: Basis input ----------------------------------------------------------

PAO.BasisType split     

%block ChemicalSpeciesLabel
    1   14 Si                      # Species index, atomic number, species label
    2    7 N                       # Species index, atomic number, species label
    3    1 H                       # Species index, atomic number, species label
    4    8 O                       # Species index, atomic number, species label
%endblock ChemicalSpeciesLabel

%block PAO.Basis                 # Define Basis set
Si                    2                    # Species label, number of l-shells
 n=3   0   2                         # n, l, Nzeta 
   6.430      3.998   
   1.000      1.000   
 n=3   1   2 P   1                   # n, l, Nzeta, Polarization, NzetaPol
   8.465      4.588   
   1.000      1.000   
N                     2                    # Species label, number of l-shells
 n=2   0   2                         # n, l, Nzeta 
   4.730      2.532   
   1.000      1.000   
 n=2   1   2 P   1                   # n, l, Nzeta, Polarization, NzetaPol
   5.924      2.532   
   1.000      1.000   
H                     1                    # Species label, number of l-shells
 n=1   0   2 P   1                   # n, l, Nzeta, Polarization, NzetaPol
   6.518      2.141   
   1.000      1.000   
O                     2                    # Species label, number of l-shells
 n=2   0   2                         # n, l, Nzeta 
   4.244      2.188   
   1.000      1.000   
 n=2   1   2 P   1                   # n, l, Nzeta, Polarization, NzetaPol
   5.315      2.161   
   1.000      1.000   
%endblock PAO.Basis

prinput: ----------------------------------------------------------------------

Dumping basis to NetCDF file Si.ion.nc
Dumping basis to NetCDF file N.ion.nc
Dumping basis to NetCDF file H.ion.nc
Dumping basis to NetCDF file O.ion.nc
coor:   Atomic-coordinates input format  =     Cartesian coordinates
coor:                                          (in Angstroms)

siesta: Atomic coordinates (Bohr) and species
siesta:     -2.80724   1.06565   0.00000  1        1
siesta:     -3.20170  -3.14496   0.00000  1        2
siesta:      3.09384   1.44291   0.00000  1        3
siesta:      0.79846  -4.19003   0.00000  1        4
siesta:      0.03688   2.38402   0.00000  2        5
siesta:     -5.38807   3.05204   0.00000  2        6
siesta:      3.28160  -1.98737   0.00000  2        7
siesta:     -5.30578  -5.03705   0.00000  3        8
siesta:      1.82417  -6.82649   0.00000  3        9
siesta:     -7.29460   2.43867   0.00000  3       10
siesta:     -5.14372   5.03917   0.00000  3       11
siesta:      5.62750   2.91768   0.00000  4       12
siesta:      5.14380  -2.76262   0.00000  3       13

siesta: Automatic unit cell vectors (Ang):
siesta:   14.828907    0.000000    0.000000
siesta:    0.000000   14.495518    0.000000
siesta:    0.000000    0.000000    9.854683

siesta: System type = molecule  

initatomlists: Number of atoms, orbitals, and projectors:     13   129   173

siesta: ******************** Simulation parameters ****************************
siesta:
siesta: The following are some of the parameters of the simulation.
siesta: A complete list of the parameters used, including default values,
siesta: can be found in file out.fdf
siesta:
redata: Spin configuration                          = spin-orbit
redata: Number of spin components                   = 8
redata: Time-Reversal Symmetry                      = F
redata: Spin spiral                                 = F
############################################################
This spin-orbit implementation uses a local approximation.
From 4.2 and onwards the full non-local approximation is implemented
You are strongly advised to use >=4.2 versions!
############################################################
redata: Long output                                 =   F
redata: Number of Atomic Species                    =        4
redata: Charge density info will appear in .RHO file
redata: Write Mulliken Pop.                         = Atomic and Orbital charges
redata: Matel table size (NRTAB)                    =     1024
redata: Mesh Cutoff                                 =   340.0000 Ry
redata: Net charge of the system                    =     0.0000 |e|
redata: Min. number of SCF Iter                     =        1
redata: Max. number of SCF Iter                     =      200
redata: SCF convergence failure will abort job
redata: SCF mix quantity                            = Hamiltonian
redata: Mix DM or H after convergence               =   F
redata: Recompute H after scf cycle                 =   F
redata: Mix DM in first SCF step                    =   T
redata: Write Pulay info on disk                    =   F
redata: New DM Occupancy tolerance                  = 0.000000000001
redata: No kicks to SCF
redata: DM Mixing Weight for Kicks                  =     0.5000
redata: Require Harris convergence for SCF          =   F
redata: Harris energy tolerance for SCF             =     0.000100 eV
redata: Require DM convergence for SCF              =   T
redata: DM tolerance for SCF                        =     0.000008
redata: Require EDM convergence for SCF             =   F
redata: EDM tolerance for SCF                       =     0.001000 eV
redata: Require H convergence for SCF               =   T
redata: Hamiltonian tolerance for SCF               =     0.000001 eV
redata: Require (free) Energy convergence for SCF   =   F
redata: (free) Energy tolerance for SCF             =     0.000100 eV
redata: Using Saved Data (generic)                  =   F
redata: Use continuation files for DM               =   F
redata: Neglect nonoverlap interactions             =   F
redata: Method of Calculation                       = Diagonalization
redata: Electronic Temperature                      =   299.9978 K
redata: Fix the spin of the system                  =   F
redata: Dynamics option                             = CG coord. optimization
redata: Variable cell                               =   F
redata: Use continuation files for CG               =   F
redata: Max atomic displ per move                   =     0.3000 Ang
redata: Maximum number of optimization moves        =      185
redata: Force tolerance                             =     0.0050 eV/Ang
mix.SCF: Pulay mixing                            = Pulay
mix.SCF:    Variant                              = stable
mix.SCF:    History steps                        = 6
mix.SCF:    Linear mixing weight                 =     0.250000
mix.SCF:    Mixing weight                        =     0.250000
mix.SCF:    SVD condition                        = 0.1000E-07
mix.SCF:    Restart steps                        = 24
mix.SCF:    Restart save steps                   = 3
mix.SCF: Spin-component mixing                   all
redata: Save all siesta data in one NC              =   F
redata: ***********************************************************************

%block SCF.Mixers
  Pulay
%endblock SCF.Mixers

%block SCF.Mixer.Pulay
  # Mixing method
  method pulay
  variant stable

  # Mixing options
  weight 0.2500
  weight.linear 0.2500
  history 6
  restart 24
  restart.save 3
%endblock SCF.Mixer.Pulay

DM_history_depth set to one: no extrapolation allowed by default for geometry relaxation
Size of DM history Fstack: 1
Total number of electrons:    42.000000
Total ionic charge:    42.000000

* ProcessorY, Blocksize:    2  24


* Orbital distribution balance (max,min):    48    24


Time-reversal symmetry not used.

siesta: k-grid: Number of k-points =     1
siesta: k-grid: Cutoff (effective) =     4.927 Ang
siesta: k-grid: Supercell and displacements
siesta: k-grid:    1   0   0      0.000
siesta: k-grid:    0   1   0      0.000
siesta: k-grid:    0   0   1      0.000

diag: Algorithm                                     = ELPA-1stage
diag: Parallel over k                               =   F
diag: Use parallel 2D distribution                  =   T
diag: Parallel block-size                           = 24
diag: Parallel distribution                         =     2 x     2
diag: Used triangular part                          = Lower
diag: Absolute tolerance                            =  0.100E-15
diag: Orthogonalization factor                      =  0.100E-05
diag: Memory factor                                 =  1.0000


ts: **************************************************************
ts: Save H and S matrices                           =    F
ts: Save DM and EDM matrices                        =    F
ts: Only save the overlap matrix S                  =    F
ts: **************************************************************

************************ Begin: TS CHECKS AND WARNINGS ************************
************************ End: TS CHECKS AND WARNINGS **************************


                     ====================================
                        Begin CG opt. move =      0
                     ====================================

outcoor: Atomic coordinates (Ang):                          
   -1.48552800    0.56391500    0.00000000   1       1  Si
   -1.69426600   -1.66424300    0.00000000   1       2  Si
    1.63718700    0.76355500    0.00000000   1       3  Si
    0.42252600   -2.21726800    0.00000000   1       4  Si
    0.01951600    1.26157000    0.00000000   2       5  N
   -2.85124200    1.61507200    0.00000000   2       6  N
    1.73654900   -1.05167100    0.00000000   2       7  N
   -2.80769800   -2.66548900    0.00000000   3       8  H
    0.96531000   -3.61241900    0.00000000   3       9  H
   -3.86013300    1.29049000    0.00000000   3      10  H
   -2.72194000    2.66661300    0.00000000   3      11  H
    2.97794200    1.54396800    0.00000000   4      12  O
    2.72198000   -1.46191600    0.00000000   3      13  H

outcell: Unit cell vectors (Ang):
       14.828907    0.000000    0.000000
        0.000000   14.495518    0.000000
        0.000000    0.000000    9.854683

outcell: Cell vector modules (Ang)   :   14.828907   14.495518    9.854683
outcell: Cell angles (23,13,12) (deg):     90.0000     90.0000     90.0000
outcell: Cell volume (Ang**3)        :   2118.2907
<dSpData1D:S at geom step 0
  <sparsity:sparsity for geom step 0
    nrows_g=129 nrows=48 sparsity=.3675 nnzs=6115, refcount: 8>
  <dData1D:(new from dSpData1D) n=6115, refcount: 1>
refcount: 1>
new_DM -- step:     1
Initializing Density Matrix...
DM filled with atomic data:
<dSpData2D:DM initialized from atoms
  <sparsity:sparsity for geom step 0
    nrows_g=129 nrows=48 sparsity=.3675 nnzs=6115, refcount: 9>
  <dData2D:DM n=6115 m=8, refcount: 1>
refcount: 1>
     spin moment: S , {S} =   24.00000   0.00000   0.00000  24.00000
No. of atoms with KB's overlaping orbs in proc 0. Max # of overlaps:      13     125

Initializing spin-orbit part of the Hamiltonian
  Adding spin-orbit effects for Si
  Adding spin-orbit effects for N 
  Adding spin-orbit effects for H 
  Adding spin-orbit effects for O 


New grid distribution:   1
           1       1:   90    1:   41    1:   30
           2       1:   90    1:   41   31:   60
           3       1:   90   42:   81    1:   30
           4       1:   90   42:   81   31:   60

InitMesh: MESH =   180 x   162 x   120 =     3499200
InitMesh: (bp) =    90 x    81 x    60 =      437400
InitMesh: Mesh cutoff (required, used) =   340.000   345.195 Ry
ExtMesh (bp) on 0 =   202 x   145 x   142 =     4159180
New grid distribution:   2
           1       1:   63    1:   62    1:   60
           2      64:   90    1:   27    1:   60
           3      64:   90   28:   81    1:   60
           4       1:   63   63:   81    1:   60
New grid distribution:   3
           1       1:   56    1:   48    1:   60
           2      57:   90    1:   50    1:   60
           3       1:   56   49:   81    1:   60
           4      57:   90   51:   81    1:   60
Setting up quadratic distribution...
ExtMesh (bp) on 0 =   175 x   166 x   172 =     4996600
PhiOnMesh: Number of (b)points on node 0 =               234360
PhiOnMesh: nlist on node 0 =              1343793

stepf: Fermi-Dirac step function

siesta: Program's energy decomposition (eV):
siesta: Ebs     =      -273.031241
siesta: Eions   =      1544.210757
siesta: Ena     =       162.699369
siesta: Ekin    =      1427.813198
siesta: Enl     =     -1356.251691
siesta: Eso     =        -0.001715
siesta: Edftu   =         0.000000
siesta: DEna    =        55.663968
siesta: DUscf   =        34.100473
siesta: DUext   =         0.000000
siesta: Exc     =      -512.160878
siesta: eta*DQ  =         0.000000
siesta: Emadel  =         0.000000
siesta: Emeta   =         0.000000
siesta: Emolmec =         0.000000
siesta: Ekinion =         0.000000
siesta: Eharris =     -1703.744114
siesta: Etot    =     -1732.348033
siesta: FreeEng =     -1732.348303

        iscf     Eharris(eV)        E_KS(eV)     FreeEng(eV)     dDmax    Ef(eV) dHmax(eV)
   scf:    1    -1703.744114    -1732.348033    -1732.348303  0.966441 -4.893051 20.848827
     spin moment: S , {S} =    0.00134   0.00000  -0.00000   0.00134
timer: Routine,Calls,Time,% = IterSCF        1       5.563  12.49
   scf:    2    -1757.325582    -1747.803964    -1747.803965  0.155969 -4.608404  9.102992
     spin moment: S , {S} =    0.00006   0.00000   0.00000   0.00006
   scf:    3    -1750.387297    -1749.614394    -1749.614394  0.067901 -4.210123  6.733814
     spin moment: S , {S} =    0.00004  -0.00000  -0.00000   0.00004
   scf:    4    -1750.086717    -1749.976983    -1749.976983  0.047683 -3.840152  2.626941
     spin moment: S , {S} =    0.00001   0.00000   0.00000   0.00001
   scf:    5    -1750.243239    -1750.141999    -1750.141999  0.019414 -4.165796  1.669776
     spin moment: S , {S} =    0.00001  -0.00000   0.00000   0.00001
   scf:    6    -1750.297175    -1750.222730    -1750.222730  0.027137 -4.608692  0.540311
     spin moment: S , {S} =    0.00000  -0.00000  -0.00000   0.00000
   scf:    7    -1750.255862    -1750.240140    -1750.240140  0.010024 -4.669311  0.202604
     spin moment: S , {S} =    0.00000  -0.00000  -0.00000   0.00000
   scf:    8    -1750.250268    -1750.245054    -1750.245054  0.004602 -4.669279  0.108886
     spin moment: S , {S} =    0.00000  -0.00000  -0.00000   0.00000
   scf:    9    -1750.252901    -1750.248655    -1750.248655  0.005744 -4.678685  0.053546
     spin moment: S , {S} =    0.00000  -0.00000   0.00000   0.00000
   scf:   10    -1750.251313    -1750.249795    -1750.249795  0.004089 -4.673930  0.020028
     spin moment: S , {S} =    0.00000   0.00000   0.00000   0.00000
   scf:   11    -1750.250015    -1750.249893    -1750.249893  0.001174 -4.668509  0.007613
     spin moment: S , {S} =    0.00000   0.00000   0.00000   0.00000
   scf:   12    -1750.249933    -1750.249912    -1750.249912  0.000481 -4.666603  0.004905
     spin moment: S , {S} =    0.00000   0.00000   0.00000   0.00000
   scf:   13    -1750.249931    -1750.249921    -1750.249921  0.000374 -4.664676  0.002985
     spin moment: S , {S} =    0.00000   0.00000   0.00000  -0.00000
   scf:   14    -1750.249926    -1750.249923    -1750.249923  0.000189 -4.664073  0.001132
     spin moment: S , {S} =    0.00000   0.00000   0.00000  -0.00000
   scf:   15    -1750.249924    -1750.249924    -1750.249924  0.000054 -4.663928  0.000862
     spin moment: S , {S} =    0.00000   0.00000   0.00000   0.00000
   scf:   16    -1750.249924    -1750.249924    -1750.249924  0.000061 -4.663866  0.000402
     spin moment: S , {S} =    0.00000   0.00000   0.00000   0.00000
   scf:   17    -1750.249924    -1750.249924    -1750.249924  0.000026 -4.663863  0.000170
     spin moment: S , {S} =    0.00000   0.00000   0.00000   0.00000
   scf:   18    -1750.249924    -1750.249924    -1750.249924  0.000011 -4.663857  0.000117
     spin moment: S , {S} =    0.00000   0.00000   0.00000   0.00000
   scf:   19    -1750.249924    -1750.249924    -1750.249924  0.000011 -4.663834  0.000060
     spin moment: S , {S} =    0.00000   0.00000   0.00000  -0.00000
   scf:   20    -1750.249924    -1750.249924    -1750.249924  0.000004 -4.663828  0.000039
     spin moment: S , {S} =    0.00000   0.00000   0.00000  -0.00000
   scf:   21    -1750.249924    -1750.249924    -1750.249924  0.000004 -4.663826  0.000019
     spin moment: S , {S} =    0.00000   0.00000   0.00000  -0.00000
   scf:   22    -1750.249924    -1750.249924    -1750.249924  0.000002 -4.663827  0.000012
     spin moment: S , {S} =    0.00000   0.00000   0.00000  -0.00000
   scf:   23    -1750.249924    -1750.249924    -1750.249924  0.000002 -4.663826  0.000005
     spin moment: S , {S} =    0.00000   0.00000   0.00000   0.00000
   scf:   24    -1750.249924    -1750.249924    -1750.249924  0.000001 -4.663825  0.000003
     spin moment: S , {S} =    0.00000   0.00000   0.00000   0.00000
mix: Pulay -- resetting history
   scf:   25    -1750.249924    -1750.249924    -1750.249924  0.000000 -4.663824  0.000002
     spin moment: S , {S} =    0.00000   0.00000   0.00000   0.00000
   scf:   26    -1750.249924    -1750.249924    -1750.249924  0.000000 -4.663825  0.000001
     spin moment: S , {S} =    0.00000   0.00000   0.00000   0.00000
   scf:   27    -1750.249924    -1750.249924    -1750.249924  0.000000 -4.663825  0.000001
     spin moment: S , {S} =    0.00000   0.00000   0.00000   0.00000

SCF Convergence by DM+H criterion
max |DM_out - DM_in|         :     0.0000001717
max |H_out - H_in|      (eV) :     0.0000006423
SCF cycle converged after 27 iterations

Using DM_out to compute the final energy and forces
No. of atoms with KB's overlaping orbs in proc 0. Max # of overlaps:      13     125

siesta: E_KS(eV) =            -1750.2499

siesta: E_KS - E_eggbox =     -1750.2499
     spin moment: S , {S} =    0.00000   0.00000   0.00000   0.00000

siesta: Atomic forces (eV/Ang):
     1   -0.120643   -0.640870   -0.000000
     2    0.056413    0.013691    0.000000
     3   -1.098456   -1.001167    0.000000
     4   -0.214110   -0.258266   -0.000000
     5   -0.010886    0.655196   -0.000000
     6   -0.700649    0.575332    0.000000
     7    0.535956   -0.093433    0.000000
     8   -0.045565   -0.123274   -0.000000
     9    0.088336   -0.130089   -0.000000
    10    0.291265    0.073799   -0.000000
    11   -0.053056   -0.096776    0.000000
    12   -0.395298   -2.132308   -0.000000
    13   -0.196074    0.253292    0.000000
----------------------------------------
   Tot   -1.862766   -2.904872    0.000000
----------------------------------------
   Max    2.132308
   Res    0.486944    sqrt( Sum f_i^2 / 3N )
----------------------------------------
   Max    2.132308    constrained

Stress tensor Voigt[x,y,z,yz,xz,xy] (kbar):       -3.32       -1.83       -0.12        0.00        0.00       -0.44
(Free)E + p*V (eV/cell)    -1747.9279
Target enthalpy (eV/cell)    -1750.2499

mulliken: Atomic and Orbital Populations:

Species: Si                  

Atom      Orb        Charge      Spin       Svec
----------------------------------------------------------------
    1  1 3s         0.62148   0.00000      0.000  -0.000  -0.000
    1  2 3s         0.36321   0.00000     -0.000   0.000   0.000
    1  3 3py        0.35822   0.00000     -0.000   0.000  -0.000
    1  4 3pz        0.41597   0.00000      0.000   0.000  -0.000
    1  5 3px        0.12198   0.00000     -0.000  -0.000  -0.000
    1  6 3py        0.32270   0.00000      0.000   0.000  -0.000
    1  7 3pz        0.21916   0.00000      0.000   0.000  -0.000
    1  8 3px        0.43155   0.00000      0.000   0.000   0.000
    1  9 3Pdxy      0.29099   0.00000      0.000   0.000  -0.000
    1 10 3Pdyz      0.13242   0.00000     -0.000  -0.000   0.000
    1 11 3Pdz2      0.01022   0.00000      0.000  -0.000   0.000
    1 12 3Pdxz      0.16315   0.00000      0.000  -0.000  -0.000
    1 13 3Pdx2-y2   0.20432   0.00000      0.000   0.000  -0.000
    1     Total     3.65539   0.00000      0.000   0.000  -0.000

    2  1 3s         0.73371   0.00000     -0.000   0.000   0.000
    2  2 3s         0.34342   0.00000      0.000   0.000   0.000
    2  3 3py        0.34228   0.00000     -0.000   0.000   0.000
    2  4 3pz        0.82667   0.00000     -0.000   0.000   0.000
    2  5 3px        0.29781   0.00000      0.000  -0.000   0.000
    2  6 3py        0.38211   0.00000      0.000  -0.000   0.000
    2  7 3pz        0.19705   0.00000      0.000   0.000   0.000
    2  8 3px        0.38702   0.00000     -0.000   0.000   0.000
    2  9 3Pdxy      0.11981   0.00000     -0.000   0.000  -0.000
    2 10 3Pdyz      0.02772   0.00000      0.000   0.000  -0.000
    2 11 3Pdz2      0.00873   0.00000     -0.000   0.000  -0.000
    2 12 3Pdxz      0.03043   0.00000     -0.000  -0.000  -0.000
    2 13 3Pdx2-y2   0.09685   0.00000      0.000  -0.000  -0.000
    2     Total     3.79362   0.00000     -0.000   0.000   0.000

    3  1 3s         0.43177   0.00000     -0.000  -0.000  -0.000
    3  2 3s         0.36498   0.00000      0.000   0.000  -0.000
    3  3 3py        0.28936   0.00000     -0.000   0.000  -0.000
    3  4 3pz        0.40540   0.00000     -0.000   0.000  -0.000
    3  5 3px        0.14381   0.00000     -0.000   0.000  -0.000
    3  6 3py        0.27513   0.00000      0.000  -0.000  -0.000
    3  7 3pz        0.19662   0.00000     -0.000   0.000  -0.000
    3  8 3px        0.43236   0.00000      0.000  -0.000  -0.000
    3  9 3Pdxy      0.23952   0.00000      0.000  -0.000  -0.000
    3 10 3Pdyz      0.08900   0.00000     -0.000   0.000  -0.000
    3 11 3Pdz2      0.01554   0.00000     -0.000   0.000  -0.000
    3 12 3Pdxz      0.18931   0.00000     -0.000  -0.000  -0.000
    3 13 3Pdx2-y2   0.34474   0.00000     -0.000  -0.000  -0.000
    3     Total     3.41753   0.00000     -0.000   0.000  -0.000

    4  1 3s         0.66373   0.00000     -0.000  -0.000  -0.000
    4  2 3s         0.38362   0.00000      0.000   0.000  -0.000
    4  3 3py        0.08797   0.00000      0.000   0.000  -0.000
    4  4 3pz        0.56530   0.00000     -0.000  -0.000  -0.000
    4  5 3px        0.35929   0.00000      0.000  -0.000  -0.000
    4  6 3py        0.47099   0.00000     -0.000   0.000   0.000
    4  7 3pz        0.16751   0.00000     -0.000  -0.000  -0.000
    4  8 3px        0.34374   0.00000     -0.000   0.000  -0.000
    4  9 3Pdxy      0.13676   0.00000      0.000  -0.000   0.000
    4 10 3Pdyz      0.02515   0.00000      0.000   0.000  -0.000
    4 11 3Pdz2      0.00813   0.00000     -0.000  -0.000   0.000
    4 12 3Pdxz      0.14190   0.00000     -0.000  -0.000  -0.000
    4 13 3Pdx2-y2   0.14671   0.00000     -0.000  -0.000  -0.000
    4     Total     3.50082   0.00000     -0.000  -0.000  -0.000

----------------------------------------------------------------
Total              14.36735   0.00000     -0.000   0.000  -0.000


Species: N                   

Atom      Orb        Charge      Spin       Svec
----------------------------------------------------------------
    5  1 2s         1.35716   0.00000      0.000  -0.000   0.000
    5  2 2s         0.14825   0.00000     -0.000   0.000  -0.000
    5  3 2py        1.29252   0.00000     -0.000  -0.000   0.000
    5  4 2pz        1.30015   0.00000     -0.000  -0.000   0.000
    5  5 2px        0.74220   0.00000      0.000   0.000   0.000
    5  6 2py        0.10947   0.00000      0.000   0.000  -0.000
    5  7 2pz        0.05370   0.00000      0.000   0.000  -0.000
    5  8 2px        0.35907   0.00000     -0.000  -0.000  -0.000
    5  9 3Pdxy      0.00500   0.00000      0.000  -0.000  -0.000
    5 10 3Pdyz      0.00515   0.00000      0.000  -0.000  -0.000
    5 11 3Pdz2     -0.00091   0.00000      0.000   0.000  -0.000
    5 12 3Pdxz      0.00410   0.00000      0.000  -0.000  -0.000
    5 13 3Pdx2-y2   0.00495   0.00000     -0.000   0.000   0.000
    5     Total     5.38081   0.00000      0.000  -0.000   0.000

    6  1 2s         1.28055   0.00000     -0.000  -0.000  -0.000
    6  2 2s         0.17365   0.00000      0.000   0.000   0.000
    6  3 2py        1.04467   0.00000     -0.000  -0.000   0.000
    6  4 2pz        1.56040   0.00000      0.000   0.000  -0.000
    6  5 2px        1.01087   0.00000      0.000   0.000   0.000
    6  6 2py        0.20708   0.00000      0.000   0.000   0.000
    6  7 2pz        0.02931   0.00000     -0.000  -0.000   0.000
    6  8 2px        0.22813   0.00000     -0.000  -0.000   0.000
    6  9 3Pdxy      0.00156   0.00000     -0.000  -0.000  -0.000
    6 10 3Pdyz      0.00126   0.00000     -0.000   0.000  -0.000
    6 11 3Pdz2      0.00250   0.00000      0.000   0.000   0.000
    6 12 3Pdxz      0.00178   0.00000     -0.000   0.000  -0.000
    6 13 3Pdx2-y2   0.00570   0.00000      0.000   0.000  -0.000
    6     Total     5.54745   0.00000     -0.000   0.000   0.000

    7  1 2s         1.39080   0.00000      0.000  -0.000   0.000
    7  2 2s         0.12097   0.00000     -0.000   0.000  -0.000
    7  3 2py        1.02306   0.00000     -0.000   0.000   0.000
    7  4 2pz        1.51497   0.00000      0.000  -0.000   0.000
    7  5 2px        1.04039   0.00000     -0.000  -0.000   0.000
    7  6 2py        0.22252   0.00000     -0.000   0.000  -0.000
    7  7 2pz        0.00797   0.00000     -0.000   0.000  -0.000
    7  8 2px        0.19504   0.00000      0.000   0.000  -0.000
    7  9 3Pdxy      0.00216   0.00000      0.000   0.000  -0.000
    7 10 3Pdyz      0.00447   0.00000     -0.000   0.000  -0.000
    7 11 3Pdz2      0.00023   0.00000      0.000   0.000   0.000
    7 12 3Pdxz      0.00242   0.00000     -0.000   0.000  -0.000
    7 13 3Pdx2-y2   0.00479   0.00000      0.000  -0.000  -0.000
    7     Total     5.52978   0.00000      0.000   0.000   0.000

----------------------------------------------------------------
Total              30.82538   0.00000     -0.000   0.000  -0.000


Species: H                   

Atom      Orb        Charge      Spin       Svec
----------------------------------------------------------------
    8  1 1s         1.05977   0.00000      0.000   0.000  -0.000
    8  2 1s         0.07547   0.00000     -0.000  -0.000   0.000
    8  3 2Ppy       0.02488   0.00000     -0.000  -0.000   0.000
    8  4 2Ppz       0.03143   0.00000      0.000   0.000   0.000
    8  5 2Ppx       0.02542   0.00000      0.000   0.000   0.000
    8     Total     1.21697   0.00000      0.000   0.000  -0.000

    9  1 1s         1.04551   0.00000      0.000  -0.000   0.000
    9  2 1s         0.08723   0.00000     -0.000   0.000   0.000
    9  3 2Ppy       0.02833   0.00000      0.000   0.000   0.000
    9  4 2Ppz       0.01779   0.00000      0.000  -0.000  -0.000
    9  5 2Ppx       0.01726   0.00000      0.000   0.000  -0.000
    9     Total     1.19613   0.00000      0.000  -0.000   0.000

   10  1 1s         0.48256   0.00000     -0.000  -0.000  -0.000
   10  2 1s         0.19363   0.00000      0.000   0.000   0.000
   10  3 2Ppy       0.00725   0.00000      0.000   0.000   0.000
   10  4 2Ppz       0.04934   0.00000     -0.000  -0.000  -0.000
   10  5 2Ppx       0.02762   0.00000      0.000  -0.000  -0.000
   10     Total     0.76041   0.00000     -0.000  -0.000  -0.000

   11  1 1s         0.48273   0.00000      0.000   0.000  -0.000
   11  2 1s         0.19342   0.00000     -0.000  -0.000   0.000
   11  3 2Ppy       0.02578   0.00000      0.000  -0.000  -0.000
   11  4 2Ppz       0.04530   0.00000      0.000  -0.000   0.000
   11  5 2Ppx       0.00950   0.00000     -0.000   0.000  -0.000
   11     Total     0.75673   0.00000      0.000   0.000  -0.000

   13  1 1s         0.49676   0.00000      0.000   0.000  -0.000
   13  2 1s         0.18455   0.00000      0.000   0.000  -0.000
   13  3 2Ppy       0.02529   0.00000      0.000  -0.000  -0.000
   13  4 2Ppz       0.03438   0.00000      0.000  -0.000  -0.000
   13  5 2Ppx       0.02326   0.00000     -0.000   0.000  -0.000
   13     Total     0.76423   0.00000      0.000  -0.000  -0.000

----------------------------------------------------------------
Total              35.51986   0.00000     -0.000   0.000  -0.000


Species: O                   

Atom      Orb        Charge      Spin       Svec
----------------------------------------------------------------
   12  1 2s         1.71881   0.00000     -0.000   0.000   0.000
   12  2 2s         0.07935   0.00000      0.000  -0.000  -0.000
   12  3 2py        1.57493   0.00000     -0.000  -0.000   0.000
   12  4 2pz        1.52784   0.00000      0.000  -0.000   0.000
   12  5 2px        1.47480   0.00000      0.000  -0.000   0.000
   12  6 2py        0.02897   0.00000      0.000  -0.000   0.000
   12  7 2pz        0.00437   0.00000      0.000   0.000   0.000
   12  8 2px        0.04269   0.00000     -0.000   0.000   0.000
   12  9 3Pdxy      0.00755   0.00000      0.000   0.000  -0.000
   12 10 3Pdyz      0.00293   0.00000      0.000   0.000  -0.000
   12 11 3Pdz2      0.00135   0.00000      0.000  -0.000  -0.000
   12 12 3Pdxz      0.00816   0.00000     -0.000  -0.000  -0.000
   12 13 3Pdx2-y2   0.00838   0.00000      0.000   0.000   0.000
   12     Total     6.48014   0.00000      0.000  -0.000   0.000

----------------------------------------------------------------
Total              42.00000   0.00000      0.000   0.000   0.000


                     ====================================
                        Begin CG opt. move =      1
                     ====================================

outcoor: Atomic coordinates (Ang):                          
   -1.49742975    0.50069136   -0.00000000   1       1  Si
   -1.68870070   -1.66289232    0.00000000   1       2  Si
    1.52882122    0.66478708    0.00000000   1       3  Si
    0.40140345   -2.24274670   -0.00000000   1       4  Si
    0.01844210    1.32620698   -0.00000000   2       5  N
   -2.92036300    1.67183016    0.00000000   2       6  N
    1.78942255   -1.06088841    0.00000000   2       7  N
   -2.81219313   -2.67765029   -0.00000000   3       8  H
    0.97402460   -3.62525266   -0.00000000   3       9  H
   -3.83139888    1.29777046   -0.00000000   3      10  H
   -2.72717410    2.65706576    0.00000000   3      11  H
    2.93894474    1.33360976   -0.00000000   4      12  O
    2.70263677   -1.43692801    0.00000000   3      13  H

outcell: Unit cell vectors (Ang):
       14.828907    0.000000    0.000000
        0.000000   14.495518    0.000000
        0.000000    0.000000    9.854683

outcell: Cell vector modules (Ang)   :   14.828907   14.495518    9.854683
outcell: Cell angles (23,13,12) (deg):     90.0000     90.0000     90.0000
outcell: Cell volume (Ang**3)        :   2118.2907
<dSpData1D:S at geom step 1
  <sparsity:sparsity for geom step 1
    nrows_g=129 nrows=48 sparsity=.3682 nnzs=6127, refcount: 8>
  <dData1D:(new from dSpData1D) n=6127, refcount: 1>
refcount: 1>
new_DM -- step:     2
Re-using DM from previous geometries...
Number of DMs in history: 1
 DM extrapolation coefficients: 
1   1.00000
New DM after history re-use:
<dSpData2D:SpM extrapolated using coords
  <sparsity:sparsity for geom step 1
    nrows_g=129 nrows=48 sparsity=.3682 nnzs=6127, refcount: 10>
  <dData2D:(temp array for extrapolation) n=6127 m=8, refcount: 1>
refcount: 1>
     spin moment: S , {S} =    0.00000  -0.00000  -0.00000   0.00000
Note: For starting DM, Qtot, Tr[D*S] =         42.00000000         42.06378439
No. of atoms with KB's overlaping orbs in proc 0. Max # of overlaps:      13     125
New grid distribution:   1
           1       1:   90    1:   41    1:   30
           2       1:   90    1:   41   31:   60
           3       1:   90   42:   81    1:   30
           4       1:   90   42:   81   31:   60

InitMesh: MESH =   180 x   162 x   120 =     3499200
InitMesh: (bp) =    90 x    81 x    60 =      437400
InitMesh: Mesh cutoff (required, used) =   340.000   345.195 Ry
ExtMesh (bp) on 0 =   202 x   145 x   142 =     4159180
New grid distribution:   2
           1       1:   63    1:   63    1:   60
           2      64:   90    1:   47    1:   60
           3       1:   63   64:   81    1:   60
           4      64:   90   48:   81    1:   60
New grid distribution:   3
           1       1:   56    1:   49    1:   60
           2      57:   90    1:   50    1:   60
           3       1:   56   50:   81    1:   60
           4      57:   90   51:   81    1:   60
Setting up quadratic distribution...
ExtMesh (bp) on 0 =   175 x   167 x   172 =     5026700
PhiOnMesh: Number of (b)points on node 0 =               238140
PhiOnMesh: nlist on node 0 =              1359512

        iscf     Eharris(eV)        E_KS(eV)     FreeEng(eV)     dDmax    Ef(eV) dHmax(eV)
   scf:    1    -1748.167664    -1749.299538    -1749.299538  0.055153 -4.403835  3.017141
     spin moment: S , {S} =    0.00000   0.00000   0.00000  -0.00000
   scf:    2    -1742.403372    -1747.320013    -1747.320016  0.121778 -3.793246  9.721811
     spin moment: S , {S} =    0.00000   0.00000   0.00000  -0.00000
   scf:    3    -1749.948989    -1749.570137    -1749.570137  0.101782 -4.654737  0.605471
     spin moment: S , {S} =    0.00000  -0.00000  -0.00000   0.00000
   scf:    4    -1749.583499    -1749.578464    -1749.578464  0.004781 -4.582937  0.159597
     spin moment: S , {S} =    0.00000  -0.00000  -0.00000  -0.00000
   scf:    5    -1749.580566    -1749.579672    -1749.579672  0.001649 -4.558313  0.048801
     spin moment: S , {S} =    0.00000   0.00000  -0.00000  -0.00000
   scf:    6    -1749.579926    -1749.579823    -1749.579823  0.000748 -4.553344  0.015590
     spin moment: S , {S} =    0.00000   0.00000  -0.00000  -0.00000
   scf:    7    -1749.579850    -1749.579837    -1749.579837  0.000347 -4.551694  0.008117
     spin moment: S , {S} =    0.00000   0.00000  -0.00000  -0.00000
   scf:    8    -1749.579845    -1749.579842    -1749.579842  0.000288 -4.550675  0.001911
     spin moment: S , {S} =    0.00000   0.00000  -0.00000   0.00000
   scf:    9    -1749.579842    -1749.579842    -1749.579842  0.000053 -4.550431  0.000475
     spin moment: S , {S} =    0.00000   0.00000  -0.00000   0.00000
   scf:   10    -1749.579842    -1749.579842    -1749.579842  0.000022 -4.550376  0.000152
     spin moment: S , {S} =    0.00000   0.00000  -0.00000   0.00000
   scf:   11    -1749.579842    -1749.579842    -1749.579842  0.000006 -4.550372  0.000085
     spin moment: S , {S} =    0.00000   0.00000  -0.00000   0.00000
   scf:   12    -1749.579842    -1749.579842    -1749.579842  0.000004 -4.550376  0.000036
     spin moment: S , {S} =    0.00000   0.00000  -0.00000   0.00000
   scf:   13    -1749.579842    -1749.579842    -1749.579842  0.000002 -4.550373  0.000018
     spin moment: S , {S} =    0.00000   0.00000  -0.00000   0.00000
   scf:   14    -1749.579842    -1749.579842    -1749.579842  0.000001 -4.550371  0.000006
     spin moment: S , {S} =    0.00000   0.00000  -0.00000   0.00000
   scf:   15    -1749.579842    -1749.579842    -1749.579842  0.000000 -4.550372  0.000002
     spin moment: S , {S} =    0.00000   0.00000  -0.00000   0.00000
   scf:   16    -1749.579842    -1749.579842    -1749.579842  0.000000 -4.550372  0.000001
     spin moment: S , {S} =    0.00000   0.00000  -0.00000   0.00000
   scf:   17    -1749.579842    -1749.579842    -1749.579842  0.000000 -4.550372  0.000001
     spin moment: S , {S} =    0.00000   0.00000  -0.00000   0.00000

SCF Convergence by DM+H criterion
max |DM_out - DM_in|         :     0.0000000629
max |H_out - H_in|      (eV) :     0.0000005650
SCF cycle converged after 17 iterations

Using DM_out to compute the final energy and forces
No. of atoms with KB's overlaping orbs in proc 0. Max # of overlaps:      13     125

siesta: E_KS(eV) =            -1749.5798
     spin moment: S , {S} =    0.00000   0.00000  -0.00000   0.00000

siesta: Atomic forces (eV/Ang):
     1   -0.615957    2.894877   -0.000000
     2   -0.612511   -1.050151    0.000000
     3    1.791137    0.349149   -0.000000
     4    1.433717    0.250026   -0.000000
     5   -2.734982   -0.001882    0.000000
     6    4.142362   -2.658429    0.000000
     7   -4.851743   -1.140076    0.000000
     8    0.221243    0.120605   -0.000000
     9   -0.068420   -0.257008   -0.000000
    10   -3.106611   -0.742904   -0.000000
    11    0.152561    2.152790    0.000000
    12    2.531617    3.064072    0.000000
    13    3.239634   -0.972973    0.000000
----------------------------------------
   Tot    1.522048    2.008094    0.000000
----------------------------------------
   Max    4.851743
   Res    1.713192    sqrt( Sum f_i^2 / 3N )
----------------------------------------
   Max    4.851743    constrained

Stress tensor Voigt[x,y,z,yz,xz,xy] (kbar):       -5.65       -5.83       -0.14       -0.00       -0.00       -0.47
(Free)E + p*V (eV/cell)    -1744.4553
Target enthalpy (eV/cell)    -1749.5798

mulliken: Atomic and Orbital Populations:

Species: Si                  

Atom      Orb        Charge      Spin       Svec
----------------------------------------------------------------
    1  1 3s         0.65353   0.00000     -0.000   0.000  -0.000
    1  2 3s         0.36308   0.00000      0.000  -0.000  -0.000
    1  3 3py        0.33736   0.00000      0.000   0.000   0.000
    1  4 3pz        0.43446   0.00000     -0.000   0.000   0.000
    1  5 3px        0.11942   0.00000      0.000   0.000   0.000
    1  6 3py        0.33215   0.00000     -0.000  -0.000  -0.000
    1  7 3pz        0.20552   0.00000      0.000  -0.000  -0.000
    1  8 3px        0.42216   0.00000     -0.000   0.000  -0.000
    1  9 3Pdxy      0.27233   0.00000      0.000   0.000   0.000
    1 10 3Pdyz      0.14100   0.00000      0.000  -0.000   0.000
    1 11 3Pdz2      0.00859   0.00000      0.000   0.000   0.000
    1 12 3Pdxz      0.14128   0.00000     -0.000  -0.000  -0.000
    1 13 3Pdx2-y2   0.17318   0.00000     -0.000  -0.000  -0.000
    1     Total     3.60406   0.00000     -0.000   0.000   0.000

    2  1 3s         0.72142   0.00000     -0.000  -0.000   0.000
    2  2 3s         0.34769   0.00000      0.000   0.000  -0.000
    2  3 3py        0.32504   0.00000     -0.000  -0.000  -0.000
    2  4 3pz        0.78151   0.00000      0.000   0.000  -0.000
    2  5 3px        0.27672   0.00000     -0.000  -0.000  -0.000
    2  6 3py        0.39449   0.00000      0.000   0.000   0.000
    2  7 3pz        0.22572   0.00000      0.000   0.000   0.000
    2  8 3px        0.39990   0.00000      0.000   0.000   0.000
    2  9 3Pdxy      0.12715   0.00000     -0.000   0.000   0.000
    2 10 3Pdyz      0.03134   0.00000     -0.000   0.000  -0.000
    2 11 3Pdz2      0.00923   0.00000     -0.000  -0.000  -0.000
    2 12 3Pdxz      0.03224   0.00000      0.000  -0.000  -0.000
    2 13 3Pdx2-y2   0.09960   0.00000      0.000  -0.000  -0.000
    2     Total     3.77204   0.00000     -0.000  -0.000  -0.000

    3  1 3s         0.42456   0.00000      0.000  -0.000   0.000
    3  2 3s         0.36847   0.00000     -0.000   0.000  -0.000
    3  3 3py        0.30836   0.00000     -0.000  -0.000  -0.000
    3  4 3pz        0.40929   0.00000     -0.000  -0.000  -0.000
    3  5 3px        0.11816   0.00000     -0.000   0.000  -0.000
    3  6 3py        0.26975   0.00000      0.000   0.000   0.000
    3  7 3pz        0.20234   0.00000     -0.000   0.000   0.000
    3  8 3px        0.47239   0.00000      0.000  -0.000   0.000
    3  9 3Pdxy      0.28129   0.00000      0.000  -0.000   0.000
    3 10 3Pdyz      0.09283   0.00000     -0.000  -0.000   0.000
    3 11 3Pdz2      0.01896   0.00000      0.000  -0.000   0.000
    3 12 3Pdxz      0.20976   0.00000     -0.000   0.000  -0.000
    3 13 3Pdx2-y2   0.33626   0.00000     -0.000   0.000  -0.000
    3     Total     3.51242   0.00000     -0.000  -0.000   0.000

    4  1 3s         0.68922   0.00000     -0.000   0.000   0.000
    4  2 3s         0.37688   0.00000      0.000  -0.000  -0.000
    4  3 3py        0.09028   0.00000     -0.000  -0.000  -0.000
    4  4 3pz        0.54724   0.00000     -0.000   0.000  -0.000
    4  5 3px        0.35983   0.00000      0.000   0.000  -0.000
    4  6 3py        0.47269   0.00000      0.000   0.000   0.000
    4  7 3pz        0.16318   0.00000      0.000   0.000  -0.000
    4  8 3px        0.34616   0.00000      0.000  -0.000   0.000
    4  9 3Pdxy      0.13127   0.00000      0.000  -0.000  -0.000
    4 10 3Pdyz      0.02412   0.00000     -0.000  -0.000  -0.000
    4 11 3Pdz2      0.00832   0.00000     -0.000  -0.000   0.000
    4 12 3Pdxz      0.13834   0.00000      0.000   0.000  -0.000
    4 13 3Pdx2-y2   0.13909   0.00000     -0.000   0.000   0.000
    4     Total     3.48661   0.00000     -0.000   0.000  -0.000

----------------------------------------------------------------
Total              14.37513   0.00000     -0.000   0.000  -0.000


Species: N                   

Atom      Orb        Charge      Spin       Svec
----------------------------------------------------------------
    5  1 2s         1.40156   0.00000      0.000  -0.000  -0.000
    5  2 2s         0.13935   0.00000     -0.000   0.000   0.000
    5  3 2py        1.21525   0.00000      0.000   0.000  -0.000
    5  4 2pz        1.30230   0.00000     -0.000   0.000  -0.000
    5  5 2px        0.77377   0.00000      0.000   0.000  -0.000
    5  6 2py        0.12208   0.00000     -0.000  -0.000   0.000
    5  7 2pz        0.05273   0.00000     -0.000  -0.000   0.000
    5  8 2px        0.33927   0.00000     -0.000  -0.000   0.000
    5  9 3Pdxy      0.00659   0.00000     -0.000  -0.000  -0.000
    5 10 3Pdyz      0.00764   0.00000      0.000   0.000   0.000
    5 11 3Pdz2     -0.00001   0.00000      0.000   0.000   0.000
    5 12 3Pdxz      0.00411   0.00000      0.000  -0.000   0.000
    5 13 3Pdx2-y2   0.00586   0.00000     -0.000   0.000   0.000
    5     Total     5.37050   0.00000      0.000  -0.000  -0.000

    6  1 2s         1.28196   0.00000      0.000  -0.000  -0.000
    6  2 2s         0.17295   0.00000      0.000   0.000   0.000
    6  3 2py        1.07844   0.00000      0.000  -0.000   0.000
    6  4 2pz        1.56365   0.00000     -0.000  -0.000  -0.000
    6  5 2px        1.05703   0.00000      0.000  -0.000   0.000
    6  6 2py        0.19843   0.00000     -0.000   0.000  -0.000
    6  7 2pz        0.02791   0.00000      0.000   0.000   0.000
    6  8 2px        0.21166   0.00000     -0.000   0.000  -0.000
    6  9 3Pdxy      0.00120   0.00000     -0.000  -0.000  -0.000
    6 10 3Pdyz      0.00120   0.00000      0.000  -0.000  -0.000
    6 11 3Pdz2      0.00258   0.00000      0.000   0.000  -0.000
    6 12 3Pdxz      0.00145   0.00000      0.000  -0.000  -0.000
    6 13 3Pdx2-y2   0.00441   0.00000     -0.000  -0.000  -0.000
    6     Total     5.60290   0.00000      0.000  -0.000   0.000

    7  1 2s         1.36212   0.00000      0.000   0.000   0.000
    7  2 2s         0.13187   0.00000     -0.000  -0.000  -0.000
    7  3 2py        1.02442   0.00000      0.000  -0.000   0.000
    7  4 2pz        1.50861   0.00000     -0.000   0.000  -0.000
    7  5 2px        1.06216   0.00000     -0.000   0.000   0.000
    7  6 2py        0.22930   0.00000     -0.000   0.000  -0.000
    7  7 2pz        0.00859   0.00000      0.000  -0.000   0.000
    7  8 2px        0.19623   0.00000      0.000   0.000   0.000
    7  9 3Pdxy      0.00127   0.00000     -0.000   0.000  -0.000
    7 10 3Pdyz      0.00420   0.00000      0.000   0.000  -0.000
    7 11 3Pdz2     -0.00057   0.00000      0.000  -0.000  -0.000
    7 12 3Pdxz      0.00252   0.00000      0.000   0.000  -0.000
    7 13 3Pdx2-y2   0.00296   0.00000      0.000  -0.000   0.000
    7     Total     5.53368   0.00000      0.000   0.000   0.000

----------------------------------------------------------------
Total              30.88220   0.00000      0.000   0.000  -0.000


Species: H                   

Atom      Orb        Charge      Spin       Svec
----------------------------------------------------------------
    8  1 1s         1.06303   0.00000      0.000  -0.000   0.000
    8  2 1s         0.07202   0.00000     -0.000   0.000  -0.000
    8  3 2Ppy       0.02511   0.00000      0.000   0.000   0.000
    8  4 2Ppz       0.03093   0.00000     -0.000  -0.000   0.000
    8  5 2Ppx       0.02601   0.00000      0.000  -0.000  -0.000
    8     Total     1.21710   0.00000      0.000  -0.000   0.000

    9  1 1s         1.04408   0.00000      0.000   0.000   0.000
    9  2 1s         0.08670   0.00000     -0.000  -0.000   0.000
    9  3 2Ppy       0.02834   0.00000      0.000   0.000   0.000
    9  4 2Ppz       0.01730   0.00000      0.000   0.000  -0.000
    9  5 2Ppx       0.01759   0.00000      0.000  -0.000  -0.000
    9     Total     1.19401   0.00000      0.000   0.000   0.000

   10  1 1s         0.41990   0.00000     -0.000  -0.000  -0.000
   10  2 1s         0.23005   0.00000      0.000   0.000   0.000
   10  3 2Ppy       0.00899   0.00000     -0.000  -0.000  -0.000
   10  4 2Ppz       0.06188   0.00000      0.000  -0.000   0.000
   10  5 2Ppx       0.02950   0.00000     -0.000   0.000   0.000
   10     Total     0.75033   0.00000     -0.000  -0.000  -0.000

   11  1 1s         0.42999   0.00000     -0.000   0.000   0.000
   11  2 1s         0.22235   0.00000     -0.000  -0.000   0.000
   11  3 2Ppy       0.02906   0.00000     -0.000  -0.000   0.000
   11  4 2Ppz       0.05468   0.00000     -0.000  -0.000   0.000
   11  5 2Ppx       0.00976   0.00000     -0.000  -0.000  -0.000
   11     Total     0.74585   0.00000     -0.000  -0.000   0.000

   13  1 1s         0.42061   0.00000      0.000   0.000   0.000
   13  2 1s         0.22387   0.00000     -0.000  -0.000  -0.000
   13  3 2Ppy       0.02716   0.00000     -0.000   0.000   0.000
   13  4 2Ppz       0.03640   0.00000     -0.000  -0.000   0.000
   13  5 2Ppx       0.02296   0.00000     -0.000  -0.000   0.000
   13     Total     0.73100   0.00000     -0.000   0.000   0.000

----------------------------------------------------------------
Total              35.52049   0.00000      0.000   0.000   0.000


Species: O                   

Atom      Orb        Charge      Spin       Svec
----------------------------------------------------------------
   12  1 2s         1.71412   0.00000     -0.000   0.000  -0.000
   12  2 2s         0.08066   0.00000      0.000  -0.000   0.000
   12  3 2py        1.61601   0.00000     -0.000  -0.000   0.000
   12  4 2pz        1.52179   0.00000      0.000  -0.000   0.000
   12  5 2px        1.45900   0.00000      0.000  -0.000  -0.000
   12  6 2py        0.02002   0.00000      0.000   0.000  -0.000
   12  7 2pz        0.00161   0.00000     -0.000   0.000  -0.000
   12  8 2px        0.04114   0.00000     -0.000   0.000   0.000
   12  9 3Pdxy      0.00599   0.00000      0.000   0.000  -0.000
   12 10 3Pdyz      0.00187   0.00000     -0.000  -0.000  -0.000
   12 11 3Pdz2      0.00068   0.00000      0.000  -0.000   0.000
   12 12 3Pdxz      0.00845   0.00000     -0.000  -0.000  -0.000
   12 13 3Pdx2-y2   0.00816   0.00000     -0.000  -0.000  -0.000
   12     Total     6.47951   0.00000     -0.000  -0.000  -0.000

----------------------------------------------------------------
Total              42.00000   0.00000      0.000  -0.000   0.000


                     ====================================
                        Begin CG opt. move =      2
                     ====================================

outcoor: Atomic coordinates (Ang):                          
   -1.48916607    0.54458909   -0.00000000   1       1  Si
   -1.69256483   -1.66383013    0.00000000   1       2  Si
    1.60406224    0.73336408    0.00000000   1       3  Si
    0.41606936   -2.22505621   -0.00000000   1       4  Si
    0.01918774    1.28132794   -0.00000000   2       5  N
   -2.87237059    1.63242157    0.00000000   2       6  N
    1.75271114   -1.05448854    0.00000000   2       7  N
   -2.80907205   -2.66920641   -0.00000000   3       8  H
    0.96797384   -3.61634193   -0.00000000   3       9  H
   -3.85134969    1.29271546   -0.00000000   3      10  H
   -2.72353994    2.66369464    0.00000000   3      11  H
    2.96602150    1.47966666   -0.00000000   4      12  O
    2.71606725   -1.45427779    0.00000000   3      13  H

outcell: Unit cell vectors (Ang):
       14.828907    0.000000    0.000000
        0.000000   14.495518    0.000000
        0.000000    0.000000    9.854683

outcell: Cell vector modules (Ang)   :   14.828907   14.495518    9.854683
outcell: Cell angles (23,13,12) (deg):     90.0000     90.0000     90.0000
outcell: Cell volume (Ang**3)        :   2118.2907
<dSpData1D:S at geom step 2
  <sparsity:sparsity for geom step 2
    nrows_g=129 nrows=48 sparsity=.3675 nnzs=6115, refcount: 8>
  <dData1D:(new from dSpData1D) n=6115, refcount: 1>
refcount: 1>
new_DM -- step:     3
Re-using DM from previous geometries...
Number of DMs in history: 1
 DM extrapolation coefficients: 
1   1.00000
New DM after history re-use:
<dSpData2D:SpM extrapolated using coords
  <sparsity:sparsity for geom step 2
    nrows_g=129 nrows=48 sparsity=.3675 nnzs=6115, refcount: 10>
  <dData2D:(temp array for extrapolation) n=6115 m=8, refcount: 1>
refcount: 1>
     spin moment: S , {S} =    0.00000   0.00000   0.00000   0.00000
Note: For starting DM, Qtot, Tr[D*S] =         42.00000000         41.90316745
No. of atoms with KB's overlaping orbs in proc 0. Max # of overlaps:      13     125
New grid distribution:   1
           1       1:   90    1:   41    1:   30
           2       1:   90    1:   41   31:   60
           3       1:   90   42:   81    1:   30
           4       1:   90   42:   81   31:   60

InitMesh: MESH =   180 x   162 x   120 =     3499200
InitMesh: (bp) =    90 x    81 x    60 =      437400
InitMesh: Mesh cutoff (required, used) =   340.000   345.195 Ry
ExtMesh (bp) on 0 =   202 x   145 x   142 =     4159180
New grid distribution:   2
           1       1:   63    1:   62    1:   60
           2      64:   90    1:   31    1:   60
           3      64:   90   32:   81    1:   60
           4       1:   63   63:   81    1:   60
New grid distribution:   3
           1       1:   56    1:   48    1:   60
           2      57:   90    1:   50    1:   60
           3       1:   56   49:   81    1:   60
           4      57:   90   51:   81    1:   60
Setting up quadratic distribution...
ExtMesh (bp) on 0 =   175 x   166 x   172 =     4996600
PhiOnMesh: Number of (b)points on node 0 =               234360
PhiOnMesh: nlist on node 0 =              1336920

        iscf     Eharris(eV)        E_KS(eV)     FreeEng(eV)     dDmax    Ef(eV) dHmax(eV)
   scf:    1    -1750.370342    -1750.070621    -1750.070621  0.042754 -3.991235  2.484095
     spin moment: S , {S} =    0.00000   0.00000   0.00000   0.00000
   scf:    2    -1747.302389    -1749.308890    -1749.308890  0.087938 -4.121893  6.991739
     spin moment: S , {S} =    0.00000   0.00000   0.00000  -0.00000
   scf:    3    -1750.457825    -1750.208230    -1750.208230  0.061727 -4.313873  0.213564
     spin moment: S , {S} =    0.00000   0.00000  -0.00000   0.00000
   scf:    4    -1750.211193    -1750.210580    -1750.210580  0.002376 -4.313513  0.163171
     spin moment: S , {S} =    0.00000   0.00000  -0.00000   0.00000
   scf:    5    -1750.211237    -1750.211085    -1750.211085  0.001851 -4.339963  0.034001
     spin moment: S , {S} =    0.00000   0.00000  -0.00000   0.00000
   scf:    6    -1750.211209    -1750.211161    -1750.211161  0.000296 -4.344308  0.009835
     spin moment: S , {S} =    0.00000   0.00000  -0.00000   0.00000
   scf:    7    -1750.211171    -1750.211166    -1750.211166  0.000205 -4.346631  0.002643
     spin moment: S , {S} =    0.00000   0.00000  -0.00000   0.00000
   scf:    8    -1750.211168    -1750.211168    -1750.211168  0.000113 -4.347245  0.001025
     spin moment: S , {S} =    0.00000   0.00000  -0.00000   0.00000
   scf:    9    -1750.211168    -1750.211168    -1750.211168  0.000017 -4.347333  0.000222
     spin moment: S , {S} =    0.00000   0.00000  -0.00000   0.00000
   scf:   10    -1750.211168    -1750.211168    -1750.211168  0.000013 -4.347320  0.000103
     spin moment: S , {S} =    0.00000   0.00000  -0.00000   0.00000
   scf:   11    -1750.211168    -1750.211168    -1750.211168  0.000005 -4.347315  0.000050
     spin moment: S , {S} =    0.00000   0.00000  -0.00000   0.00000
   scf:   12    -1750.211168    -1750.211168    -1750.211168  0.000002 -4.347314  0.000013
     spin moment: S , {S} =    0.00000   0.00000  -0.00000   0.00000
   scf:   13    -1750.211168    -1750.211168    -1750.211168  0.000001 -4.347310  0.000005
     spin moment: S , {S} =    0.00000   0.00000  -0.00000   0.00000
   scf:   14    -1750.211168    -1750.211168    -1750.211168  0.000000 -4.347309  0.000003
     spin moment: S , {S} =    0.00000   0.00000  -0.00000   0.00000
   scf:   15    -1750.211168    -1750.211168    -1750.211168  0.000000 -4.347309  0.000001
     spin moment: S , {S} =    0.00000   0.00000  -0.00000   0.00000
   scf:   16    -1750.211168    -1750.211168    -1750.211168  0.000000 -4.347309  0.000000
     spin moment: S , {S} =    0.00000   0.00000  -0.00000   0.00000

SCF Convergence by DM+H criterion
max |DM_out - DM_in|         :     0.0000000730
max |H_out - H_in|      (eV) :     0.0000004789
SCF cycle converged after 16 iterations

Using DM_out to compute the final energy and forces
No. of atoms with KB's overlaping orbs in proc 0. Max # of overlaps:      13     125

siesta: E_KS(eV) =            -1750.2112
     spin moment: S , {S} =    0.00000   0.00000  -0.00000   0.00000

siesta: Atomic forces (eV/Ang):
     1   -0.347992    0.495701   -0.000000
     2   -0.143897   -0.288806    0.000000
     3   -0.232839   -0.609887   -0.000000
     4    0.316713   -0.056861    0.000000
     5   -0.931850    0.432183    0.000000
     6    0.841048   -0.515351    0.000000
     7   -0.971507   -0.485809   -0.000000
     8    0.035086   -0.060493   -0.000000
     9    0.041810   -0.163687    0.000000
    10   -0.638886   -0.079005   -0.000000
    11   -0.032092    0.531669    0.000000
    12    1.134195    1.640479    0.000000
    13    0.660944   -0.010839    0.000000
----------------------------------------
   Tot   -0.269268    0.829294    0.000000
----------------------------------------
   Max    1.640479
   Res    0.489758    sqrt( Sum f_i^2 / 3N )
----------------------------------------
   Max    1.640479    constrained

Stress tensor Voigt[x,y,z,yz,xz,xy] (kbar):       -3.94       -2.50       -0.12       -0.00        0.00       -0.51
(Free)E + p*V (eV/cell)    -1747.3150
Target enthalpy (eV/cell)    -1750.2112

mulliken: Atomic and Orbital Populations:

Species: Si                  

Atom      Orb        Charge      Spin       Svec
----------------------------------------------------------------
    1  1 3s         0.62824   0.00000     -0.000  -0.000  -0.000
    1  2 3s         0.36477   0.00000      0.000   0.000   0.000
    1  3 3py        0.35195   0.00000     -0.000  -0.000   0.000
    1  4 3pz        0.42218   0.00000      0.000   0.000  -0.000
    1  5 3px        0.12107   0.00000     -0.000  -0.000  -0.000
    1  6 3py        0.32511   0.00000      0.000   0.000  -0.000
    1  7 3pz        0.21455   0.00000     -0.000   0.000   0.000
    1  8 3px        0.42878   0.00000      0.000   0.000   0.000
    1  9 3Pdxy      0.28550   0.00000      0.000   0.000  -0.000
    1 10 3Pdyz      0.13506   0.00000     -0.000   0.000  -0.000
    1 11 3Pdz2      0.00964   0.00000      0.000   0.000   0.000
    1 12 3Pdxz      0.15619   0.00000      0.000   0.000  -0.000
    1 13 3Pdx2-y2   0.19360   0.00000      0.000  -0.000  -0.000
    1     Total     3.63663   0.00000      0.000   0.000  -0.000

    2  1 3s         0.72989   0.00000     -0.000  -0.000  -0.000
    2  2 3s         0.34463   0.00000      0.000   0.000   0.000
    2  3 3py        0.33714   0.00000     -0.000   0.000  -0.000
    2  4 3pz        0.81303   0.00000     -0.000  -0.000   0.000
    2  5 3px        0.29148   0.00000      0.000   0.000  -0.000
    2  6 3py        0.38569   0.00000      0.000  -0.000   0.000
    2  7 3pz        0.20582   0.00000      0.000   0.000  -0.000
    2  8 3px        0.39094   0.00000     -0.000  -0.000   0.000
    2  9 3Pdxy      0.12195   0.00000     -0.000  -0.000  -0.000
    2 10 3Pdyz      0.02883   0.00000     -0.000   0.000   0.000
    2 11 3Pdz2      0.00891   0.00000     -0.000  -0.000   0.000
    2 12 3Pdxz      0.03099   0.00000      0.000  -0.000   0.000
    2 13 3Pdx2-y2   0.09766   0.00000      0.000  -0.000  -0.000
    2     Total     3.78694   0.00000     -0.000   0.000  -0.000

    3  1 3s         0.42485   0.00000     -0.000  -0.000  -0.000
    3  2 3s         0.36754   0.00000      0.000   0.000   0.000
    3  3 3py        0.29690   0.00000     -0.000   0.000   0.000
    3  4 3pz        0.40624   0.00000     -0.000  -0.000   0.000
    3  5 3px        0.13602   0.00000     -0.000  -0.000  -0.000
    3  6 3py        0.27280   0.00000      0.000  -0.000  -0.000
    3  7 3pz        0.19854   0.00000     -0.000   0.000   0.000
    3  8 3px        0.44429   0.00000      0.000   0.000   0.000
    3  9 3Pdxy      0.25223   0.00000      0.000   0.000   0.000
[...]
           2      57:   90    1:   50    1:   60
           3       1:   56   50:   81    1:   60
           4      57:   90   51:   81    1:   60
Setting up quadratic distribution...
ExtMesh (bp) on 0 =   175 x   167 x   172 =     5026700
PhiOnMesh: Number of (b)points on node 0 =               238140
PhiOnMesh: nlist on node 0 =              1371718

        iscf     Eharris(eV)        E_KS(eV)     FreeEng(eV)     dDmax    Ef(eV) dHmax(eV)
   scf:    1    -1750.399055    -1750.398574    -1750.398574  0.000113 -4.366609  0.001709
     spin moment: S , {S} =    0.00000   0.00000   0.00000   0.00000
   scf:    2    -1750.398570    -1750.398573    -1750.398573  0.000099 -4.366144  0.005596
     spin moment: S , {S} =    0.00000   0.00000   0.00000   0.00000
   scf:    3    -1750.398574    -1750.398574    -1750.398574  0.000077 -4.366501  0.000412
     spin moment: S , {S} =    0.00000   0.00000   0.00000   0.00000
   scf:    4    -1750.398574    -1750.398574    -1750.398574  0.000003 -4.366485  0.000124
     spin moment: S , {S} =    0.00000   0.00000   0.00000   0.00000
   scf:    5    -1750.398574    -1750.398574    -1750.398574  0.000001 -4.366481  0.000027
     spin moment: S , {S} =    0.00000   0.00000   0.00000   0.00000
   scf:    6    -1750.398574    -1750.398574    -1750.398574  0.000001 -4.366476  0.000011
     spin moment: S , {S} =    0.00000   0.00000   0.00000   0.00000
   scf:    7    -1750.398574    -1750.398574    -1750.398574  0.000000 -4.366475  0.000003
     spin moment: S , {S} =    0.00000   0.00000   0.00000   0.00000
   scf:    8    -1750.398574    -1750.398574    -1750.398574  0.000000 -4.366475  0.000002
     spin moment: S , {S} =    0.00000   0.00000   0.00000   0.00000
   scf:    9    -1750.398574    -1750.398574    -1750.398574  0.000000 -4.366474  0.000000
     spin moment: S , {S} =    0.00000   0.00000   0.00000   0.00000

SCF Convergence by DM+H criterion
max |DM_out - DM_in|         :     0.0000001253
max |H_out - H_in|      (eV) :     0.0000003394
SCF cycle converged after 9 iterations

Using DM_out to compute the final energy and forces
No. of atoms with KB's overlaping orbs in proc 0. Max # of overlaps:      13     125

siesta: E_KS(eV) =            -1750.3986
     spin moment: S , {S} =    0.00000   0.00000   0.00000   0.00000

siesta: Atomic forces (eV/Ang):
     1    0.002933    0.003482   -0.000000
     2   -0.000183    0.002771    0.000000
     3    0.002034    0.004945   -0.000000
     4   -0.002823    0.000097   -0.000000
     5    0.002063   -0.000164    0.000000
     6    0.003646    0.002528    0.000000
     7   -0.001593    0.001115    0.000000
     8   -0.004614   -0.000442   -0.000000
     9    0.002569   -0.003351   -0.000000
    10    0.002638    0.001042    0.000000
    11   -0.001115   -0.000496   -0.000000
    12   -0.002374   -0.001142    0.000004
    13    0.001465   -0.000859   -0.000000
----------------------------------------
   Tot    0.004646    0.009526    0.000004
----------------------------------------
   Max    0.004945
   Res    0.001970    sqrt( Sum f_i^2 / 3N )
----------------------------------------
   Max    0.004945    constrained

Stress tensor Voigt[x,y,z,yz,xz,xy] (kbar):       -1.31        0.05       -0.15       -0.00        0.00       -0.66
(Free)E + p*V (eV/cell)    -1749.7737
Target enthalpy (eV/cell)    -1750.3986

mulliken: Atomic and Orbital Populations:

Species: Si                  

Atom      Orb        Charge      Spin       Svec
----------------------------------------------------------------
    1  1 3s         0.65065   0.00000     -0.000   0.000  -0.000
    1  2 3s         0.35720   0.00000      0.000   0.000   0.000
    1  3 3py        0.35271   0.00000     -0.000  -0.000   0.000
    1  4 3pz        0.42981   0.00000      0.000   0.000  -0.000
    1  5 3px        0.12802   0.00000      0.000  -0.000   0.000
    1  6 3py        0.32410   0.00000      0.000   0.000  -0.000
    1  7 3pz        0.21176   0.00000      0.000   0.000   0.000
    1  8 3px        0.42142   0.00000     -0.000   0.000  -0.000
    1  9 3Pdxy      0.26618   0.00000      0.000   0.000  -0.000
    1 10 3Pdyz      0.13258   0.00000      0.000   0.000   0.000
    1 11 3Pdz2      0.00992   0.00000      0.000  -0.000   0.000
    1 12 3Pdxz      0.15548   0.00000      0.000   0.000  -0.000
    1 13 3Pdx2-y2   0.19955   0.00000     -0.000   0.000  -0.000
    1     Total     3.63938   0.00000      0.000   0.000  -0.000

    2  1 3s         0.74641   0.00000     -0.000  -0.000   0.000
    2  2 3s         0.33793   0.00000      0.000   0.000  -0.000
    2  3 3py        0.34474   0.00000     -0.000  -0.000  -0.000
    2  4 3pz        0.83061   0.00000     -0.000  -0.000  -0.000
    2  5 3px        0.28833   0.00000     -0.000  -0.000  -0.000
    2  6 3py        0.37255   0.00000      0.000  -0.000   0.000
    2  7 3pz        0.19806   0.00000     -0.000  -0.000   0.000
    2  8 3px        0.39318   0.00000      0.000  -0.000  -0.000
    2  9 3Pdxy      0.12137   0.00000     -0.000   0.000  -0.000
    2 10 3Pdyz      0.02757   0.00000     -0.000   0.000   0.000
    2 11 3Pdz2      0.00938   0.00000     -0.000  -0.000   0.000
    2 12 3Pdxz      0.02912   0.00000      0.000  -0.000  -0.000
    2 13 3Pdx2-y2   0.09426   0.00000      0.000  -0.000  -0.000
    2     Total     3.79351   0.00000     -0.000  -0.000   0.000

    3  1 3s         0.45391   0.00000      0.000  -0.000  -0.000
    3  2 3s         0.36577   0.00000     -0.000   0.000   0.000
    3  3 3py        0.30284   0.00000     -0.000   0.000   0.000
    3  4 3pz        0.41898   0.00000     -0.000   0.000  -0.000
    3  5 3px        0.12167   0.00000     -0.000  -0.000  -0.000
    3  6 3py        0.26288   0.00000      0.000  -0.000  -0.000
    3  7 3pz        0.18747   0.00000     -0.000  -0.000  -0.000
    3  8 3px        0.45111   0.00000      0.000  -0.000   0.000
    3  9 3Pdxy      0.24815   0.00000      0.000   0.000   0.000
    3 10 3Pdyz      0.08402   0.00000      0.000  -0.000   0.000
    3 11 3Pdz2      0.01598   0.00000     -0.000  -0.000   0.000
    3 12 3Pdxz      0.18861   0.00000      0.000  -0.000  -0.000
    3 13 3Pdx2-y2   0.32691   0.00000     -0.000   0.000  -0.000
    3     Total     3.42829   0.00000     -0.000  -0.000  -0.000

    4  1 3s         0.67317   0.00000     -0.000   0.000  -0.000
    4  2 3s         0.38007   0.00000      0.000  -0.000   0.000
    4  3 3py        0.09439   0.00000     -0.000   0.000   0.000
    4  4 3pz        0.57632   0.00000     -0.000  -0.000  -0.000
    4  5 3px        0.38179   0.00000      0.000  -0.000   0.000
    4  6 3py        0.46550   0.00000      0.000   0.000   0.000
    4  7 3pz        0.16364   0.00000      0.000  -0.000  -0.000
    4  8 3px        0.32508   0.00000     -0.000   0.000  -0.000
    4  9 3Pdxy      0.13098   0.00000     -0.000  -0.000  -0.000
    4 10 3Pdyz      0.02712   0.00000     -0.000   0.000   0.000
    4 11 3Pdz2      0.00727   0.00000      0.000   0.000  -0.000
    4 12 3Pdxz      0.13480   0.00000     -0.000  -0.000   0.000
    4 13 3Pdx2-y2   0.14209   0.00000     -0.000  -0.000   0.000
    4     Total     3.50222   0.00000     -0.000   0.000  -0.000

----------------------------------------------------------------
Total              14.36341   0.00000     -0.000  -0.000  -0.000


Species: N                   

Atom      Orb        Charge      Spin       Svec
----------------------------------------------------------------
    5  1 2s         1.41160   0.00000      0.000  -0.000  -0.000
    5  2 2s         0.13229   0.00000     -0.000   0.000   0.000
    5  3 2py        1.26329   0.00000     -0.000  -0.000  -0.000
    5  4 2pz        1.29323   0.00000      0.000   0.000  -0.000
    5  5 2px        0.76531   0.00000      0.000   0.000   0.000
    5  6 2py        0.10904   0.00000      0.000   0.000   0.000
    5  7 2pz        0.05003   0.00000     -0.000   0.000   0.000
    5  8 2px        0.33686   0.00000     -0.000  -0.000  -0.000
    5  9 3Pdxy      0.00662   0.00000      0.000  -0.000  -0.000
    5 10 3Pdyz      0.00709   0.00000     -0.000   0.000   0.000
    5 11 3Pdz2     -0.00003   0.00000      0.000  -0.000   0.000
    5 12 3Pdxz      0.00393   0.00000      0.000  -0.000   0.000
    5 13 3Pdx2-y2   0.00551   0.00000     -0.000   0.000  -0.000
    5     Total     5.38476   0.00000      0.000  -0.000  -0.000

    6  1 2s         1.28622   0.00000      0.000  -0.000   0.000
    6  2 2s         0.17100   0.00000      0.000   0.000  -0.000
    6  3 2py        1.04678   0.00000      0.000  -0.000   0.000
    6  4 2pz        1.56370   0.00000      0.000  -0.000   0.000
    6  5 2px        1.02001   0.00000      0.000   0.000   0.000
    6  6 2py        0.20433   0.00000     -0.000   0.000  -0.000
    6  7 2pz        0.02763   0.00000     -0.000   0.000  -0.000
    6  8 2px        0.22298   0.00000     -0.000  -0.000  -0.000
    6  9 3Pdxy      0.00140   0.00000     -0.000   0.000  -0.000
    6 10 3Pdyz      0.00126   0.00000     -0.000  -0.000   0.000
    6 11 3Pdz2      0.00261   0.00000      0.000   0.000   0.000
    6 12 3Pdxz      0.00163   0.00000     -0.000  -0.000   0.000
    6 13 3Pdx2-y2   0.00556   0.00000     -0.000  -0.000   0.000
    6     Total     5.55513   0.00000      0.000  -0.000   0.000

    7  1 2s         1.39832   0.00000      0.000  -0.000   0.000
    7  2 2s         0.11703   0.00000     -0.000   0.000  -0.000
    7  3 2py        1.02015   0.00000      0.000   0.000   0.000
    7  4 2pz        1.51829   0.00000     -0.000   0.000  -0.000
    7  5 2px        1.05021   0.00000      0.000   0.000   0.000
    7  6 2py        0.22143   0.00000     -0.000  -0.000   0.000
    7  7 2pz        0.00551   0.00000      0.000  -0.000   0.000
    7  8 2px        0.19278   0.00000     -0.000  -0.000  -0.000
    7  9 3Pdxy      0.00107   0.00000      0.000  -0.000  -0.000
    7 10 3Pdyz      0.00456   0.00000     -0.000  -0.000   0.000
    7 11 3Pdz2      0.00047   0.00000      0.000   0.000   0.000
    7 12 3Pdxz      0.00222   0.00000     -0.000  -0.000   0.000
    7 13 3Pdx2-y2   0.00539   0.00000      0.000  -0.000  -0.000
    7     Total     5.53743   0.00000      0.000   0.000   0.000

----------------------------------------------------------------
Total              30.84073   0.00000     -0.000   0.000  -0.000


Species: H                   

Atom      Orb        Charge      Spin       Svec
----------------------------------------------------------------
    8  1 1s         1.05666   0.00000      0.000  -0.000   0.000
    8  2 1s         0.07672   0.00000     -0.000   0.000   0.000
    8  3 2Ppy       0.02394   0.00000     -0.000   0.000   0.000
    8  4 2Ppz       0.03129   0.00000      0.000  -0.000   0.000
    8  5 2Ppx       0.02501   0.00000      0.000   0.000  -0.000
    8     Total     1.21363   0.00000      0.000  -0.000   0.000

    9  1 1s         1.04585   0.00000      0.000  -0.000  -0.000
    9  2 1s         0.08464   0.00000     -0.000  -0.000   0.000
    9  3 2Ppy       0.03057   0.00000      0.000   0.000   0.000
    9  4 2Ppz       0.01769   0.00000      0.000   0.000   0.000
    9  5 2Ppx       0.01767   0.00000      0.000  -0.000  -0.000
    9     Total     1.19642   0.00000      0.000  -0.000  -0.000

   10  1 1s         0.47566   0.00000     -0.000  -0.000  -0.000
   10  2 1s         0.19891   0.00000      0.000   0.000   0.000
   10  3 2Ppy       0.00718   0.00000     -0.000   0.000   0.000
   10  4 2Ppz       0.05169   0.00000     -0.000  -0.000  -0.000
   10  5 2Ppx       0.02756   0.00000      0.000   0.000   0.000
   10     Total     0.76100   0.00000     -0.000  -0.000   0.000

   11  1 1s         0.47625   0.00000      0.000   0.000  -0.000
   11  2 1s         0.19604   0.00000      0.000  -0.000   0.000
   11  3 2Ppy       0.02661   0.00000      0.000  -0.000   0.000
   11  4 2Ppz       0.04610   0.00000     -0.000   0.000  -0.000
   11  5 2Ppx       0.00885   0.00000     -0.000   0.000  -0.000
   11     Total     0.75385   0.00000     -0.000   0.000  -0.000

   13  1 1s         0.48417   0.00000      0.000  -0.000   0.000
   13  2 1s         0.18857   0.00000     -0.000   0.000  -0.000
   13  3 2Ppy       0.02622   0.00000     -0.000   0.000   0.000
   13  4 2Ppz       0.03419   0.00000     -0.000  -0.000   0.000
   13  5 2Ppx       0.02296   0.00000     -0.000  -0.000  -0.000
   13     Total     0.75611   0.00000     -0.000  -0.000   0.000

----------------------------------------------------------------
Total              35.52173   0.00000      0.000  -0.000  -0.000


Species: O                   

Atom      Orb        Charge      Spin       Svec
----------------------------------------------------------------
   12  1 2s         1.73411   0.00000     -0.000  -0.000  -0.000
   12  2 2s         0.07321   0.00000      0.000   0.000   0.000
   12  3 2py        1.59169   0.00000     -0.000  -0.000  -0.000
   12  4 2pz        1.53326   0.00000      0.000   0.000   0.000
   12  5 2px        1.45639   0.00000      0.000   0.000   0.000
   12  6 2py        0.02183   0.00000      0.000   0.000  -0.000
   12  7 2pz        0.00045   0.00000      0.000   0.000  -0.000
   12  8 2px        0.04071   0.00000     -0.000  -0.000  -0.000
   12  9 3Pdxy      0.00710   0.00000      0.000   0.000  -0.000
   12 10 3Pdyz      0.00237   0.00000      0.000  -0.000   0.000
   12 11 3Pdz2      0.00130   0.00000      0.000  -0.000   0.000
   12 12 3Pdxz      0.00793   0.00000     -0.000  -0.000   0.000
   12 13 3Pdx2-y2   0.00790   0.00000      0.000  -0.000   0.000
   12     Total     6.47827   0.00000     -0.000   0.000   0.000

----------------------------------------------------------------
Total              42.00000   0.00000      0.000   0.000   0.000


outcoor: Relaxed atomic coordinates (Ang):                  
   -1.51311446    0.54171652   -0.00000003   1       1  Si
   -1.66951810   -1.70667169    0.00000023   1       2  Si
    1.56631404    0.69146633   -0.00000001   1       3  Si
    0.42933873   -2.35241710   -0.00000005   1       4  Si
   -0.02413785    1.33263830   -0.00000002   2       5  N
   -2.87376223    1.63830712    0.00000000   2       6  N
    1.70315409   -1.12772840   -0.00000001   2       7  N
   -2.80258630   -2.68458504   -0.00000000   3       8  H
    0.98751256   -3.75690762   -0.00000000   3       9  H
   -3.87800911    1.34078184   -0.00000000   3      10  H
   -2.71828565    2.68271005   -0.00000000   3      11  H
    2.96638692    1.43135303   -0.00000003   4      12  O
    2.71855408   -1.43251806    0.00000000   3      13  H

siesta: Eigenvalues (eV):
ik =     1
  -21.9466  -21.9466  -21.5556  -21.5556  -21.0319  -21.0319  -19.4690  -19.4690  -14.6921  -14.6921
  -13.3008  -13.3008  -12.8145  -12.8145  -12.3900  -12.3900  -11.9364  -11.9364  -10.7600  -10.7600
  -10.0530  -10.0530   -9.5382   -9.5382   -8.6054   -8.6054   -8.3761   -8.3761   -7.7162   -7.7162
   -7.6208   -7.6208   -6.7500   -6.7500   -6.5162   -6.5162   -6.1389   -6.1389   -5.8312   -5.8312
   -5.4150   -5.4150   -3.1891   -3.1891   -2.2306   -2.2306   -1.8476   -1.8476   -1.7464   -1.7464
   -1.5530   -1.5530   -0.9175   -0.9175   -0.1500   -0.1500    0.2939    0.2939    0.7947    0.7947
    1.1701    1.1701    1.4184    1.4184    1.4876    1.4876    1.9152    1.9152    2.1676    2.1676
    2.9688    2.9688    3.1556    3.1556    3.3568    3.3568    4.1756    4.1756    4.4915    4.4915
    4.5363    4.5363    4.7694    4.7694    4.8731    4.8731    5.6166    5.6166    5.8298    5.8298
    6.0048    6.0048    6.2459    6.2459    6.6189    6.6189    6.8810    6.8810    7.1643    7.1643
    7.8008    7.8008    8.0592    8.0592    8.1379    8.1379    8.3025    8.3025    8.9480    8.9480
    9.2660    9.2660    9.7600    9.7600    9.7774    9.7774   10.2096   10.2096   10.9335   10.9335
   11.0072   11.0072   11.8580   11.8580   11.9491   11.9491   12.7936   12.7936   12.8206   12.8206
   13.5934   13.5934   13.9594   13.9594   14.0814   14.0814   15.0725   15.0725   15.5572   15.5572
   16.8047   16.8047   17.3911   17.3911   18.0818   18.0818   19.5219   19.5219   20.2515   20.2515
   20.9992   20.9992   21.2301   21.2301   22.3999   22.3999   23.0141   23.0141   23.7348   23.7348
   24.7831   24.7831   26.2941   26.2941   28.8580   28.8580   28.9375   28.9375   30.3713   30.3713
   30.9382   30.9382   31.2338   31.2338   31.5220   31.5220   31.7089   31.7089   32.7562   32.7562
   34.6152   34.6152   35.1702   35.1702   35.3279   35.3279   36.0494   36.0494   37.2104   37.2104
   37.9908   37.9908   39.2074   39.2074   40.1287   40.1287   40.8578   40.8578   41.2904   41.2904
   42.5095   42.5095   43.2912   43.2912   43.6643   43.6643   44.1322   44.1322   44.8515   44.8515
   46.4119   46.4119   49.1260   49.1260   51.0156   51.0156   51.1574   51.1574   51.8354   51.8354
   52.8675   52.8675   54.7315   54.7315   55.1890   55.1890   55.7901   55.7901   55.9754   55.9754
   56.7037   56.7037   59.1489   59.1489   60.2861   60.2861   61.7813   61.7813   62.0077   62.0077
   66.3740   66.3740   68.9580   68.9580   80.7704   80.7704   91.7388   91.7388   99.2808   99.2808
  100.3181  100.3181  111.2294  111.2294  126.2145  126.2145  139.7564  139.7564
siesta: Fermi energy =      -4.366474 eV

siesta: Program's energy decomposition (eV):
siesta: Ebs     =      -484.915511
siesta: Eions   =      1544.210757
siesta: Ena     =       161.806605
siesta: Ekin    =      1229.013762
siesta: Enl     =     -1144.175297
siesta: Eso     =        -0.001881
siesta: Edftu   =         0.000000
siesta: DEna    =        16.839037
siesta: DUscf   =         6.368428
siesta: DUext   =         0.000000
siesta: Exc     =      -476.038470
siesta: eta*DQ  =         0.000000
siesta: Emadel  =         0.000000
siesta: Emeta   =         0.000000
siesta: Emolmec =         0.000000
siesta: Ekinion =         0.000000
siesta: Eharris =     -1750.398574
siesta: Etot    =     -1750.398574
siesta: FreeEng =     -1750.398574

siesta: Final energy (eV):
siesta:  Band Struct. =    -484.915511
siesta:       Kinetic =    1229.013762
siesta:       Hartree =    2661.732421
siesta:       Edftu   =       0.000000
siesta:       Eso     =      -0.001881
siesta:    Ext. field =       0.000000
siesta:   Exch.-corr. =    -476.038470
siesta:  Ion-electron =   -6419.596473
siesta:       Ion-ion =    1254.492068
siesta:       Ekinion =       0.000000
siesta:         Total =   -1750.398574
siesta:         Fermi =      -4.366474

siesta: Stress tensor (static) (eV/Ang**3):
siesta:    -0.000818   -0.000409    0.000000
siesta:    -0.000409    0.000028   -0.000000
siesta:     0.000000   -0.000000   -0.000095

siesta: Cell volume =       2118.290674 Ang**3

siesta: Pressure (static):
siesta:                Solid            Molecule  Units
siesta:           0.00000321          0.00000319  Ry/Bohr**3
siesta:           0.00029497          0.00029331  eV/Ang**3
siesta:           0.47259913          0.46993171  kBar
(Free)E+ p_basis*V_orbitals  =       -1741.537832
(Free)Eharris+ p_basis*V_orbitals  =       -1741.537832
     spin moment: S , {S} =    0.00000   0.00000   0.00000   0.00000

siesta: Electric dipole (a.u.)  =   -2.529467   -1.709086   -0.000000
siesta: Electric dipole (Debye) =   -6.429269   -4.344066   -0.000000

cite: Please see "Cytosine.bib" for an exhaustive BiBTeX file.
cite: Please clearly indicate Siesta version in published work: v4.1.5-1-g384057250
cite: This calculation has made use of the following articles
cite: which are encouraged to be cited in a published work.
        Primary SIESTA paper
          DOI: www.doi.org/10.1088/0953-8984/14/11/302
        Spin-orbit coupling (on-site approximation)
          DOI: www.doi.org/10.1088/0953-8984/19/19/489001


WARNING: alloc-realloc-dealloc name mismatch
         Name: atomlist isa
         Size:               -52. Bytes
         Node:     0
         Subsequent mismatches will not be reported
>> End of run:   1-JUN-2023  11:55:48
Job completed
