Siesta Version  : v4.1.5-1-g384057250
Architecture    : gcc
Compiler version: GNU Fortran (Ubuntu 11.4.0-1ubuntu1~22.04) 11.4.0
Compiler flags  : mpifort -O2 -fPIC -ftree-vectorize -fallow-argument-mismatch
PP flags        : -DFC_HAVE_ABORT -DMPI -DSIESTA__FLOOK -DSIESTA__METIS -DSIESTA__MUMPS -DCDF -DNCDF -DNCDF_4 -DNCDF_PARALLEL -DSIESTA__MRRR -DSIESTA__ELPA
Libraries       : libncdf.a libfdict.a  -lflookall -ldl -lnetcdff -lnetcdf -lhdf5_hl -lhdf5 -lhdf5_fortran -lz -lscalapack-openmpi -lopenblas -lmetis -lzmumps -lcmumps -ldmumps -lmumps_common -lpord -lsmumps -lesmumps -lscotch -lscotcherr -fopenmp -lelpa
PARALLEL version
NetCDF support
NetCDF-4 support
NetCDF-4 MPI-IO support
METIS ordering support
Lua support

* Running on 8 nodes in parallel
>> Start of run:   1-FEB-2024  17:56:07

                           ***********************       
                           *  WELCOME TO SIESTA  *       
                           ***********************       

reinit: Reading from standard input
reinit: Dumped input in INPUT_TMP.57634
************************** Dump of input data file ****************************
# mpirun -np 4 siesta-4.1.5 < AT.fdf > AT.out &
SystemLabel      AT
NumberOfAtoms    30
NumberOfSpecies  4
%block ChemicalSpeciesLabel
    1    1  H
    2    7  N
    3   14  Si
    4    8  O
%endblock ChemicalSpeciesLabel
############################################
# This overrides Defaults.fdf configuration
############################################
MD.TypeOfRun                Verlet # CG, Verlet
MD.Steps                    0
MaxSCFIterations            200
SCF.MustConverge            F
AtomicCoordinatesFormat NotScaledCartesianAng
%block AtomicCoordinatesAndAtomicSpecies
    2.28494382 -5.19529124 0.0  1  1  H
    1.37433094 -4.6647107 0.0  2  2  N
    -0.21830245 -5.49458215 0.0  3  3  Si
    -0.17484108 -6.98516892 0.0  1  4  H
    -1.66171682 -4.58600741 0.0  2  5  N
    -1.09026419 -2.87456374 0.0  3  6  Si
    -1.53038332 -0.70765692 0.0  3  7  Si
    -3.14415959 -0.09186471 0.0  2  8  N
    -3.40268075 0.95848335 0.0  1  9  H
    -3.95073599 -0.76720972 0.0  1  10  H
    -0.17836637 0.41349951 0.0  2  11  N
    1.49520211 -0.0473996 0.0  3  12  Si
    2.45603905 1.10727302 0.0  1  13  H
    2.30451743 -1.58574382 0.0  2  14  N
    1.10725559 -2.84610319 0.0  3  15  Si
    0.7072120050007787 6.564385178274048 0.0  1  16  H
    -0.10149867499922124 5.872179298274047 0.0  2  17  N
    -1.7580885149992211 6.5852993982740475 0.0  3  18  Si
    -1.661223344999221 8.096024608274048 0.0  1  19  H
    -3.484244864999221 5.242251268274047 0.0  3  20  Si
    -5.838699114999222 5.2342643382740475 0.0  3  21  Si
    -6.401117234999222 5.968753988274047 -1.20183078  1  22  H
    -6.138512864999222 3.755173208274047 -0.08618332  1  23  H
    -6.401229694999222 5.799096798274047 1.28814761  1  24  H
    -2.554854224999221 3.1716800382740473 0.0  3  25  Si
    -3.5043225849992212 1.8831439082740473 0.0  4  26  O
    -0.7639093549992213 2.9979445682740478 0.0  2  27  N
    -0.43291799499922123 1.9655875882740477 0.0  1  28  H
    0.5445488650007787 4.192490988274047 0.0  3  29  Si
    2.1104857950007787 3.9252441382740475 0.0  4  30  O
%endblock AtomicCoordinatesAndAtomicSpecies
#############
# Unit Cell
#############
LatticeConstant 1.0 Ang
%block LatticeVectors
    30.00000    0.000000    0.000000
    0.000000    45.00000    0.000000
    0.000000    0.000000    10.00000
%endblock LatticeVectors
%include ../../../../Defaults.fdf
************************** End of input data file *****************************

reinit: -----------------------------------------------------------------------
reinit: System Name: 
reinit: -----------------------------------------------------------------------
reinit: System Label: AT
reinit: -----------------------------------------------------------------------

initatom: Reading input for the pseudopotentials and atomic orbitals ----------
Species number:   1 Atomic number:    1 Label: H
Species number:   2 Atomic number:    7 Label: N
Species number:   3 Atomic number:   14 Label: Si
Species number:   4 Atomic number:    8 Label: O

Ground state valence configuration:   1s01
Reading pseudopotential information in formatted form from H.psf

Pseudopotential generated from a relativistic atomic calculation

Valence configuration for pseudopotential generation:
1s( 1.00) rc: 0.01
2p( 0.00) rc: 0.60
3d( 0.00) rc: 1.99
4f( 0.00) rc: 2.49
Ground state valence configuration:   2s02  2p03
Reading pseudopotential information in formatted form from N.psf

Pseudopotential generated from a relativistic atomic calculation

Valence configuration for pseudopotential generation:
2s( 2.00) rc: 0.94
2p( 3.00) rc: 0.59
3d( 0.00) rc: 3.46
4f( 0.00) rc: 2.47
Ground state valence configuration:   3s02  3p02
Reading pseudopotential information in formatted form from Si.psf

Pseudopotential generated from a relativistic atomic calculation

Valence configuration for pseudopotential generation:
3s( 2.00) rc: 1.67
3p( 2.00) rc: 2.04
3d( 0.00) rc: 2.89
4f( 0.00) rc: 2.49
Ground state valence configuration:   2s02  2p04
Reading pseudopotential information in formatted form from O.psf

Pseudopotential generated from a relativistic atomic calculation

Valence configuration for pseudopotential generation:
2s( 2.00) rc: 0.45
2p( 4.00) rc: 0.92
3d( 0.00) rc: 2.24
4f( 0.00) rc: 0.25
For H, standard SIESTA heuristics set lmxkb to 2
 (one more than the basis l, including polarization orbitals).
Use PS.lmax or PS.KBprojectors blocks to override.
For N, standard SIESTA heuristics set lmxkb to 3
 (one more than the basis l, including polarization orbitals).
Use PS.lmax or PS.KBprojectors blocks to override.
For Si, standard SIESTA heuristics set lmxkb to 3
 (one more than the basis l, including polarization orbitals).
Use PS.lmax or PS.KBprojectors blocks to override.
For O, standard SIESTA heuristics set lmxkb to 3
 (one more than the basis l, including polarization orbitals).
Use PS.lmax or PS.KBprojectors blocks to override.

<basis_specs>
===============================================================================
H                    Z=   1    Mass=  1.0100        Charge= 0.17977+309
Lmxo=0 Lmxkb= 2    BasisType=split      Semic=F
L=0  Nsemic=0  Cnfigmx=1
          i=1  nzeta=2  polorb=1  (1s)
            splnorm:   0.62000    
               vcte:    0.0000    
               rinn:    0.0000    
               qcoe:    0.0000    
               qyuk:    0.0000    
               qwid:   0.10000E-01
                rcs:    0.0000      0.0000    
            lambdas:    1.0000      1.0000    
-------------------------------------------------------------------------------
L=0  Nkbl=1  erefs: 0.17977+309
L=1  Nkbl=1  erefs: 0.17977+309
L=2  Nkbl=1  erefs: 0.17977+309
===============================================================================
</basis_specs>

atom: Called for H                     (Z =   1)

read_vps: Pseudopotential generation method:
read_vps: ATM4.2.7  Troullier-Martins                       
Valence charge for ps generation:    1.00000

xc_check: Exchange-correlation functional:
xc_check: GGA Perdew, Burke & Ernzerhof 1996
V l=0 = -2*Zval/r beyond r=  0.0098
V l=1 = -2*Zval/r beyond r=  0.5817
V l=2 = -2*Zval/r beyond r=  1.9372
All V_l potentials equal beyond r=  1.9372
This should be close to max(r_c) in ps generation
All pots = -2*Zval/r beyond r=  1.9372

VLOCAL1: 99.0% of the norm of Vloc inside     11.567 Ry
VLOCAL1: 99.9% of the norm of Vloc inside     26.362 Ry
atom: Maximum radius for 4*pi*r*r*local-pseudopot. charge    2.25106
atom: Maximum radius for r*vlocal+2*Zval:    1.91306
GHOST: No ghost state for L =  0
GHOST: No ghost state for L =  1
GHOST: No ghost state for L =  2

KBgen: Kleinman-Bylander projectors: 
   l= 0   rc=  2.036604   el= -0.477180   Ekb= -6.081590   kbcos= -0.277285
   l= 1   rc=  2.195416   el=  0.001076   Ekb= -0.926943   kbcos= -0.034643
   l= 2   rc=  2.251056   el=  0.002010   Ekb= -0.130941   kbcos= -0.009788

KBgen: Total number of Kleinman-Bylander projectors:    9
atom: -------------------------------------------------------------------------

atom: SANKEY-TYPE ORBITALS:
atom: Selected multiple-zeta basis: split     

SPLIT: Orbitals with angular momentum L= 0

SPLIT: Basis orbitals for state 1s

SPLIT: PAO cut-off radius determined from an
SPLIT: energy shift=  0.002000 Ry

   izeta = 1
                 lambda =    1.000000
                     rc =    6.518340
                 energy =   -0.475305
                kinetic =    0.912139
    potential(screened) =   -1.387444
       potential(ionic) =   -1.907295

   izeta = 2
                 rmatch =    2.141150
              splitnorm =    0.620000
                 energy =    0.566467
                kinetic =    3.772856
    potential(screened) =   -3.206389
       potential(ionic) =   -3.759093

POLgen: Perturbative polarization orbital with L=  1

POLgen: Polarization orbital for state 1s

   izeta = 1
                     rc =    6.518340
                 energy =    0.533861
                kinetic =    1.121086
    potential(screened) =   -0.587225
       potential(ionic) =   -1.053027
atom: Total number of Sankey-type orbitals:  5

atm_pop: Valence configuration (for local Pseudopot. screening):
 1s( 1.00)                                                            
Vna: chval, zval:    1.00000   1.00000

Vna:  Cut-off radius for the neutral-atom potential:   6.518340

atom: _________________________________________________________________________

<basis_specs>
===============================================================================
N                    Z=   7    Mass=  14.010        Charge= 0.17977+309
Lmxo=1 Lmxkb= 3    BasisType=split      Semic=F
L=0  Nsemic=0  Cnfigmx=2
          i=1  nzeta=2  polorb=0  (2s)
            splnorm:   0.28000    
               vcte:    0.0000    
               rinn:    0.0000    
               qcoe:    0.0000    
               qyuk:    0.0000    
               qwid:   0.10000E-01
                rcs:    0.0000      0.0000    
            lambdas:    1.0000      1.0000    
L=1  Nsemic=0  Cnfigmx=2
          i=1  nzeta=2  polorb=1  (2p)
            splnorm:   0.28000    
               vcte:    0.0000    
               rinn:    0.0000    
               qcoe:    0.0000    
               qyuk:    0.0000    
               qwid:   0.10000E-01
                rcs:    0.0000      0.0000    
            lambdas:    1.0000      1.0000    
-------------------------------------------------------------------------------
L=0  Nkbl=1  erefs: 0.17977+309
L=1  Nkbl=1  erefs: 0.17977+309
L=2  Nkbl=1  erefs: 0.17977+309
L=3  Nkbl=1  erefs: 0.17977+309
===============================================================================
</basis_specs>

atom: Called for N                     (Z =   7)

read_vps: Pseudopotential generation method:
read_vps: ATM4.2.7  Troullier-Martins                       
Valence charge for ps generation:    5.00000

xc_check: Exchange-correlation functional:
xc_check: GGA Perdew, Burke & Ernzerhof 1996
V l=0 = -2*Zval/r beyond r=  1.2889
V l=1 = -2*Zval/r beyond r=  1.2889
V l=2 = -2*Zval/r beyond r=  3.4178
V l=3 = -2*Zval/r beyond r=  2.4084
All V_l potentials equal beyond r=  3.3753
This should be close to max(r_c) in ps generation
All pots = -2*Zval/r beyond r=  3.4178

VLOCAL1: 99.0% of the norm of Vloc inside      3.810 Ry
VLOCAL1: 99.9% of the norm of Vloc inside      8.683 Ry
atom: Maximum radius for 4*pi*r*r*local-pseudopot. charge    4.02088
atom: Maximum radius for r*vlocal+2*Zval:    3.54838
GHOST: No ghost state for L =  0
GHOST: No ghost state for L =  1
GHOST: No ghost state for L =  2
GHOST: No ghost state for L =  3

KBgen: Kleinman-Bylander projectors: 
   l= 0   rc=  3.417763   el= -1.365098   Ekb= -4.433130   kbcos= -0.707855
   l= 1   rc=  3.375302   el= -0.521201   Ekb=-13.264039   kbcos= -0.535594
   l= 2   rc=  3.872880   el=  0.001991   Ekb= -0.641094   kbcos= -0.062456
   l= 3   rc=  3.970931   el=  0.003093   Ekb= -0.474517   kbcos= -0.018236

KBgen: Total number of Kleinman-Bylander projectors:   16
atom: -------------------------------------------------------------------------

atom: SANKEY-TYPE ORBITALS:
atom: Selected multiple-zeta basis: split     

SPLIT: Orbitals with angular momentum L= 0

SPLIT: Basis orbitals for state 2s

SPLIT: PAO cut-off radius determined from an
SPLIT: energy shift=  0.002000 Ry

   izeta = 1
                 lambda =    1.000000
                     rc =    4.730425
                 energy =   -1.363399
                kinetic =    1.245246
    potential(screened) =   -2.608645
       potential(ionic) =   -8.121105

   izeta = 2
                 rmatch =    2.531849
              splitnorm =    0.280000
                 energy =   -0.959908
                kinetic =    2.409435
    potential(screened) =   -3.369343
       potential(ionic) =   -9.427975

SPLIT: Orbitals with angular momentum L= 1

SPLIT: Basis orbitals for state 2p

SPLIT: PAO cut-off radius determined from an
SPLIT: energy shift=  0.002000 Ry

   izeta = 1
                 lambda =    1.000000
                     rc =    5.924108
                 energy =   -0.519262
                kinetic =    3.672940
    potential(screened) =   -4.192202
       potential(ionic) =   -9.518354

   izeta = 2
                 rmatch =    2.531849
              splitnorm =    0.280000
                 energy =   -0.104258
                kinetic =    6.807538
    potential(screened) =   -6.911796
       potential(ionic) =  -13.149920

POLgen: Perturbative polarization orbital with L=  2

POLgen: Polarization orbital for state 2p

   izeta = 1
                     rc =    5.924108
                 energy =    1.427508
                kinetic =    2.872379
    potential(screened) =   -1.444871
       potential(ionic) =   -5.563644
atom: Total number of Sankey-type orbitals: 13

atm_pop: Valence configuration (for local Pseudopot. screening):
 2s( 2.00)                                                            
 2p( 3.00)                                                            
Vna: chval, zval:    5.00000   5.00000

Vna:  Cut-off radius for the neutral-atom potential:   5.924108

atom: _________________________________________________________________________

<basis_specs>
===============================================================================
Si                   Z=  14    Mass=  28.090        Charge= 0.17977+309
Lmxo=1 Lmxkb= 3    BasisType=split      Semic=F
L=0  Nsemic=0  Cnfigmx=3
          i=1  nzeta=2  polorb=0  (3s)
            splnorm:   0.28000    
               vcte:    0.0000    
               rinn:    0.0000    
               qcoe:    0.0000    
               qyuk:    0.0000    
               qwid:   0.10000E-01
                rcs:    0.0000      0.0000    
            lambdas:    1.0000      1.0000    
L=1  Nsemic=0  Cnfigmx=3
          i=1  nzeta=2  polorb=1  (3p)
            splnorm:   0.28000    
               vcte:    0.0000    
               rinn:    0.0000    
               qcoe:    0.0000    
               qyuk:    0.0000    
               qwid:   0.10000E-01
                rcs:    0.0000      0.0000    
            lambdas:    1.0000      1.0000    
-------------------------------------------------------------------------------
L=0  Nkbl=1  erefs: 0.17977+309
L=1  Nkbl=1  erefs: 0.17977+309
L=2  Nkbl=1  erefs: 0.17977+309
L=3  Nkbl=1  erefs: 0.17977+309
===============================================================================
</basis_specs>

atom: Called for Si                    (Z =  14)

read_vps: Pseudopotential generation method:
read_vps: ATM4.2.7  Troullier-Martins                       
Valence charge for ps generation:    4.00000

xc_check: Exchange-correlation functional:
xc_check: GGA Perdew, Burke & Ernzerhof 1996
V l=0 = -2*Zval/r beyond r=  2.7826
V l=1 = -2*Zval/r beyond r=  2.7826
V l=2 = -2*Zval/r beyond r=  2.9253
V l=3 = -2*Zval/r beyond r=  2.7826
All V_l potentials equal beyond r=  2.8530
This should be close to max(r_c) in ps generation
All pots = -2*Zval/r beyond r=  2.9253

VLOCAL1: 99.0% of the norm of Vloc inside      5.333 Ry
VLOCAL1: 99.9% of the norm of Vloc inside     12.154 Ry
atom: Maximum radius for 4*pi*r*r*local-pseudopot. charge    3.39869
atom: Maximum radius for r*vlocal+2*Zval:    2.96205
GHOST: No ghost state for L =  0
GHOST: No ghost state for L =  1
GHOST: No ghost state for L =  2
GHOST: No ghost state for L =  3

KBgen: Kleinman-Bylander projectors: 
   l= 0   rc=  3.075247   el= -0.794092   Ekb=  5.879390   kbcos=  0.167461
   l= 1   rc=  3.153101   el= -0.300068   Ekb=  2.642817   kbcos=  0.058301
   l= 2   rc=  3.273594   el=  0.001958   Ekb= -1.185135   kbcos= -0.104411
   l= 3   rc=  3.232927   el=  0.003046   Ekb= -0.497174   kbcos= -0.015889

KBgen: Total number of Kleinman-Bylander projectors:   16
atom: -------------------------------------------------------------------------

atom: SANKEY-TYPE ORBITALS:
atom: Selected multiple-zeta basis: split     

SPLIT: Orbitals with angular momentum L= 0

SPLIT: Basis orbitals for state 3s

SPLIT: PAO cut-off radius determined from an
SPLIT: energy shift=  0.002000 Ry

   izeta = 1
                 lambda =    1.000000
                     rc =    6.429618
                 energy =   -0.792283
                kinetic =    0.525293
    potential(screened) =   -1.317576
       potential(ionic) =   -3.744923

   izeta = 2
                 rmatch =    3.998416
              splitnorm =    0.280000
                 energy =   -0.583081
                kinetic =    1.069570
    potential(screened) =   -1.652651
       potential(ionic) =   -4.235185

SPLIT: Orbitals with angular momentum L= 1

SPLIT: Basis orbitals for state 3p

SPLIT: PAO cut-off radius determined from an
SPLIT: energy shift=  0.002000 Ry

   izeta = 1
                 lambda =    1.000000
                     rc =    8.464845
                 energy =   -0.298236
                kinetic =    0.785360
    potential(screened) =   -1.083596
       potential(ionic) =   -3.273779

   izeta = 2
                 rmatch =    4.587816
              splitnorm =    0.280000
                 energy =   -0.131871
                kinetic =    1.403687
    potential(screened) =   -1.535557
       potential(ionic) =   -4.015310

POLgen: Perturbative polarization orbital with L=  2

POLgen: Polarization orbital for state 3p

   izeta = 1
                     rc =    8.464845
                 energy =    0.321949
                kinetic =    1.055677
    potential(screened) =   -0.733728
       potential(ionic) =   -2.672950
atom: Total number of Sankey-type orbitals: 13

atm_pop: Valence configuration (for local Pseudopot. screening):
 3s( 2.00)                                                            
 3p( 2.00)                                                            
Vna: chval, zval:    4.00000   4.00000

Vna:  Cut-off radius for the neutral-atom potential:   8.464845

atom: _________________________________________________________________________

<basis_specs>
===============================================================================
O                    Z=   8    Mass=  16.000        Charge= 0.17977+309
Lmxo=1 Lmxkb= 3    BasisType=split      Semic=F
L=0  Nsemic=0  Cnfigmx=2
          i=1  nzeta=2  polorb=0  (2s)
            splnorm:   0.28000    
               vcte:    0.0000    
               rinn:    0.0000    
               qcoe:    0.0000    
               qyuk:    0.0000    
               qwid:   0.10000E-01
                rcs:    0.0000      0.0000    
            lambdas:    1.0000      1.0000    
L=1  Nsemic=0  Cnfigmx=2
          i=1  nzeta=2  polorb=1  (2p)
            splnorm:   0.28000    
               vcte:    0.0000    
               rinn:    0.0000    
               qcoe:    0.0000    
               qyuk:    0.0000    
               qwid:   0.10000E-01
                rcs:    0.0000      0.0000    
            lambdas:    1.0000      1.0000    
-------------------------------------------------------------------------------
L=0  Nkbl=1  erefs: 0.17977+309
L=1  Nkbl=1  erefs: 0.17977+309
L=2  Nkbl=1  erefs: 0.17977+309
L=3  Nkbl=1  erefs: 0.17977+309
===============================================================================
</basis_specs>

atom: Called for O                     (Z =   8)

read_vps: Pseudopotential generation method:
read_vps: ATM4.2.7  Troullier-Martins                       
Valence charge for ps generation:    6.00000

xc_check: Exchange-correlation functional:
xc_check: GGA Perdew, Burke & Ernzerhof 1996
V l=0 = -2*Zval/r beyond r=  1.1000
V l=1 = -2*Zval/r beyond r=  1.1000
V l=2 = -2*Zval/r beyond r=  2.2154
V l=3 = -2*Zval/r beyond r=  1.1000
All V_l potentials equal beyond r=  2.2154
This should be close to max(r_c) in ps generation
All pots = -2*Zval/r beyond r=  2.2154

VLOCAL1: 99.0% of the norm of Vloc inside      8.845 Ry
VLOCAL1: 99.9% of the norm of Vloc inside     20.157 Ry
atom: Maximum radius for 4*pi*r*r*local-pseudopot. charge    2.67231
atom: Maximum radius for r*vlocal+2*Zval:    2.32897
GHOST: No ghost state for L =  0
GHOST: No ghost state for L =  1
GHOST: No ghost state for L =  2
GHOST: No ghost state for L =  3

KBgen: Kleinman-Bylander projectors: 
   l= 0   rc=  2.243238   el= -1.759686   Ekb=**********   kbcos= -0.171774
   l= 1   rc=  2.328968   el= -0.663873   Ekb=-14.506792   kbcos= -0.519897
   l= 2   rc=  2.573941   el=  0.002031   Ekb= -1.137373   kbcos= -0.019581
   l= 3   rc=  2.606321   el=  0.003153   Ekb= -1.013546   kbcos= -0.003122

KBgen: Total number of Kleinman-Bylander projectors:   16
atom: -------------------------------------------------------------------------

atom: SANKEY-TYPE ORBITALS:
atom: Selected multiple-zeta basis: split     

SPLIT: Orbitals with angular momentum L= 0

SPLIT: Basis orbitals for state 2s

SPLIT: PAO cut-off radius determined from an
SPLIT: energy shift=  0.002000 Ry

   izeta = 1
                 lambda =    1.000000
                     rc =    4.243912
                 energy =   -1.758270
                kinetic =    3.286084
    potential(screened) =   -5.044353
       potential(ionic) =  -12.921184

   izeta = 2
                 rmatch =    2.187845
              splitnorm =    0.280000
                 energy =   -0.885018
                kinetic =    8.134434
    potential(screened) =   -9.019452
       potential(ionic) =  -17.710645

SPLIT: Orbitals with angular momentum L= 1

SPLIT: Basis orbitals for state 2p

SPLIT: PAO cut-off radius determined from an
SPLIT: energy shift=  0.002000 Ry

   izeta = 1
                 lambda =    1.000000
                     rc =    5.314825
                 energy =   -0.661986
                kinetic =    4.917472
    potential(screened) =   -5.579458
       potential(ionic) =  -13.236259

   izeta = 2
                 rmatch =    2.160663
              splitnorm =    0.280000
                 energy =   -0.068760
                kinetic =    9.183374
    potential(screened) =   -9.252135
       potential(ionic) =  -18.274251

POLgen: Perturbative polarization orbital with L=  2

POLgen: Polarization orbital for state 2p

   izeta = 1
                     rc =    5.314825
                 energy =    1.970580
                kinetic =    3.886128
    potential(screened) =   -1.915547
       potential(ionic) =   -7.749584
atom: Total number of Sankey-type orbitals: 13

atm_pop: Valence configuration (for local Pseudopot. screening):
 2s( 2.00)                                                            
 2p( 4.00)                                                            
Vna: chval, zval:    6.00000   6.00000

Vna:  Cut-off radius for the neutral-atom potential:   5.314825

atom: _________________________________________________________________________

prinput: Basis input ----------------------------------------------------------

PAO.BasisType split     

%block ChemicalSpeciesLabel
    1    1 H                       # Species index, atomic number, species label
    2    7 N                       # Species index, atomic number, species label
    3   14 Si                      # Species index, atomic number, species label
    4    8 O                       # Species index, atomic number, species label
%endblock ChemicalSpeciesLabel

%block PAO.Basis                 # Define Basis set
H                     1                    # Species label, number of l-shells
 n=1   0   2 P   1                   # n, l, Nzeta, Polarization, NzetaPol
   6.518      2.141   
   1.000      1.000   
N                     2                    # Species label, number of l-shells
 n=2   0   2                         # n, l, Nzeta 
   4.730      2.532   
   1.000      1.000   
 n=2   1   2 P   1                   # n, l, Nzeta, Polarization, NzetaPol
   5.924      2.532   
   1.000      1.000   
Si                    2                    # Species label, number of l-shells
 n=3   0   2                         # n, l, Nzeta 
   6.430      3.998   
   1.000      1.000   
 n=3   1   2 P   1                   # n, l, Nzeta, Polarization, NzetaPol
   8.465      4.588   
   1.000      1.000   
O                     2                    # Species label, number of l-shells
 n=2   0   2                         # n, l, Nzeta 
   4.244      2.188   
   1.000      1.000   
 n=2   1   2 P   1                   # n, l, Nzeta, Polarization, NzetaPol
   5.315      2.161   
   1.000      1.000   
%endblock PAO.Basis

prinput: ----------------------------------------------------------------------

Dumping basis to NetCDF file H.ion.nc
Dumping basis to NetCDF file N.ion.nc
Dumping basis to NetCDF file Si.ion.nc
Dumping basis to NetCDF file O.ion.nc
coor:   Atomic-coordinates input format  =     Cartesian coordinates
coor:                                          (in Angstroms)

siesta: Atomic coordinates (Bohr) and species
siesta:      4.31792  -9.81768   0.00000  1        1
siesta:      2.59711  -8.81503   0.00000  2        2
siesta:     -0.41253 -10.38326   0.00000  3        3
siesta:     -0.33040 -13.20006   0.00000  1        4
siesta:     -3.14019  -8.66630   0.00000  2        5
siesta:     -2.06030  -5.43214   0.00000  3        6
siesta:     -2.89201  -1.33728   0.00000  3        7
siesta:     -5.94160  -0.17360   0.00000  2        8
siesta:     -6.43014   1.81127   0.00000  1        9
siesta:     -7.46581  -1.44982   0.00000  1       10
siesta:     -0.33706   0.78140   0.00000  2       11
siesta:      2.82552  -0.08957   0.00000  3       12
siesta:      4.64124   2.09244   0.00000  1       13
siesta:      4.35491  -2.99662   0.00000  2       14
siesta:      2.09241  -5.37836   0.00000  3       15
siesta:      1.33644  12.40490   0.00000  1       16
siesta:     -0.19180  11.09682   0.00000  2       17
siesta:     -3.32231  12.44442   0.00000  3       18
siesta:     -3.13926  15.29928   0.00000  1       19
siesta:     -6.58427   9.90642   0.00000  3       20
siesta:    -11.03355   9.89133   0.00000  3       21
siesta:    -12.09636  11.27931  -2.27113  1       22
siesta:    -11.60011   7.09625  -0.16286  1       23
siesta:    -12.09658  10.95871   2.43425  1       24
siesta:     -4.82798   5.99361   0.00000  3       25
siesta:     -6.62221   3.55863   0.00000  4       26
siesta:     -1.44358   5.66530   0.00000  2       27
siesta:     -0.81810   3.71442   0.00000  1       28
siesta:      1.02905   7.92266   0.00000  3       29
siesta:      3.98824   7.41764   0.00000  4       30

siesta: System type = molecule  

initatomlists: Number of atoms, orbitals, and projectors:     30   302   403

siesta: ******************** Simulation parameters ****************************
siesta:
siesta: The following are some of the parameters of the simulation.
siesta: A complete list of the parameters used, including default values,
siesta: can be found in file out.fdf
siesta:
redata: Spin configuration                          = spin-orbit
redata: Number of spin components                   = 8
redata: Time-Reversal Symmetry                      = F
redata: Spin spiral                                 = F
############################################################
This spin-orbit implementation uses a local approximation.
From 4.2 and onwards the full non-local approximation is implemented
You are strongly advised to use >=4.2 versions!
############################################################
redata: Long output                                 =   F
redata: Number of Atomic Species                    =        4
redata: Charge density info will appear in .RHO file
redata: Write Mulliken Pop.                         = NO
redata: Matel table size (NRTAB)                    =     1024
redata: Mesh Cutoff                                 =   340.0000 Ry
redata: Net charge of the system                    =     0.0000 |e|
redata: Min. number of SCF Iter                     =        1
redata: Max. number of SCF Iter                     =      200
redata: SCF mix quantity                            = Hamiltonian
redata: Mix DM or H after convergence               =   F
redata: Recompute H after scf cycle                 =   F
redata: Mix DM in first SCF step                    =   T
redata: Write Pulay info on disk                    =   F
redata: New DM Occupancy tolerance                  = 0.000000000001
redata: No kicks to SCF
redata: DM Mixing Weight for Kicks                  =     0.5000
redata: Require Harris convergence for SCF          =   F
redata: Harris energy tolerance for SCF             =     0.000100 eV
redata: Require DM convergence for SCF              =   T
redata: DM tolerance for SCF                        =     0.000008
redata: Require EDM convergence for SCF             =   F
redata: EDM tolerance for SCF                       =     0.001000 eV
redata: Require H convergence for SCF               =   T
redata: Hamiltonian tolerance for SCF               =     0.000001 eV
redata: Require (free) Energy convergence for SCF   =   F
redata: (free) Energy tolerance for SCF             =     0.000100 eV
redata: Using Saved Data (generic)                  =   F
redata: Use continuation files for DM               =   T
redata: Neglect nonoverlap interactions             =   F
redata: Method of Calculation                       = Diagonalization
redata: Electronic Temperature                      =   299.9978 K
redata: Fix the spin of the system                  =   F
redata: Dynamics option                             = Verlet MD run
redata: Initial MD time step                        =        1
redata:   Final MD time step                        =        1
redata: Length of MD time step                      =     0.5000 fs
redata: Initial Temperature of MD run               =     0.0000 K
redata: Perform a MD quench                         =   F
mix.SCF: Pulay mixing                            = Pulay
mix.SCF:    Variant                              = stable
mix.SCF:    History steps                        = 6
mix.SCF:    Linear mixing weight                 =     0.250000
mix.SCF:    Mixing weight                        =     0.250000
mix.SCF:    SVD condition                        = 0.1000E-07
mix.SCF:    Restart steps                        = 24
mix.SCF:    Restart save steps                   = 3
mix.SCF: Spin-component mixing                   all
redata: Save all siesta data in one NC              =   F
redata: ***********************************************************************

%block SCF.Mixers
  Pulay
%endblock SCF.Mixers

%block SCF.Mixer.Pulay
  # Mixing method
  method pulay
  variant stable

  # Mixing options
  weight 0.2500
  weight.linear 0.2500
  history 6
  restart 24
  restart.save 3
%endblock SCF.Mixer.Pulay

Size of DM history Fstack: 3
Total number of electrons:    98.000000
Total ionic charge:    98.000000

* ProcessorY, Blocksize:    2  24


* Orbital distribution balance (max,min):    48    24


Time-reversal symmetry not used.

siesta: k-grid: Number of k-points =     1
siesta: k-grid: Cutoff (effective) =     5.000 Ang
siesta: k-grid: Supercell and displacements
siesta: k-grid:    1   0   0      0.000
siesta: k-grid:    0   1   0      0.000
siesta: k-grid:    0   0   1      0.000

diag: Algorithm                                     = ELPA-1stage
diag: Parallel over k                               =   F
diag: Use parallel 2D distribution                  =   T
diag: Parallel block-size                           = 24
diag: Parallel distribution                         =     2 x     4
diag: Used triangular part                          = Lower
diag: Absolute tolerance                            =  0.100E-15
diag: Orthogonalization factor                      =  0.100E-05
diag: Memory factor                                 =  1.0000


ts: **************************************************************
ts: Save H and S matrices                           =    F
ts: Save DM and EDM matrices                        =    F
ts: Only save the overlap matrix S                  =    F
ts: **************************************************************

************************ Begin: TS CHECKS AND WARNINGS ************************
************************ End: TS CHECKS AND WARNINGS **************************


                     ====================================
                        Begin MD step =      1
                     ====================================

outcoor: Atomic coordinates (Ang):                          
    2.28494382   -5.19529124    0.00000000   1       1  H
    1.37433094   -4.66471070    0.00000000   2       2  N
   -0.21830245   -5.49458215    0.00000000   3       3  Si
   -0.17484108   -6.98516892    0.00000000   1       4  H
   -1.66171682   -4.58600741    0.00000000   2       5  N
   -1.09026419   -2.87456374    0.00000000   3       6  Si
   -1.53038332   -0.70765692    0.00000000   3       7  Si
   -3.14415959   -0.09186471    0.00000000   2       8  N
   -3.40268075    0.95848335    0.00000000   1       9  H
   -3.95073599   -0.76720972    0.00000000   1      10  H
   -0.17836637    0.41349951    0.00000000   2      11  N
    1.49520211   -0.04739960    0.00000000   3      12  Si
    2.45603905    1.10727302    0.00000000   1      13  H
    2.30451743   -1.58574382    0.00000000   2      14  N
    1.10725559   -2.84610319    0.00000000   3      15  Si
    0.70721201    6.56438518    0.00000000   1      16  H
   -0.10149867    5.87217930    0.00000000   2      17  N
   -1.75808851    6.58529940    0.00000000   3      18  Si
   -1.66122334    8.09602461    0.00000000   1      19  H
   -3.48424486    5.24225127    0.00000000   3      20  Si
   -5.83869911    5.23426434    0.00000000   3      21  Si
   -6.40111723    5.96875399   -1.20183078   1      22  H
   -6.13851286    3.75517321   -0.08618332   1      23  H
   -6.40122969    5.79909680    1.28814761   1      24  H
   -2.55485422    3.17168004    0.00000000   3      25  Si
   -3.50432258    1.88314391    0.00000000   4      26  O
   -0.76390935    2.99794457    0.00000000   2      27  N
   -0.43291799    1.96558759    0.00000000   1      28  H
    0.54454887    4.19249099    0.00000000   3      29  Si
    2.11048580    3.92524414    0.00000000   4      30  O

outcell: Unit cell vectors (Ang):
       30.000000    0.000000    0.000000
        0.000000   45.000000    0.000000
        0.000000    0.000000   10.000000

outcell: Cell vector modules (Ang)   :   30.000000   45.000000   10.000000
outcell: Cell angles (23,13,12) (deg):     90.0000     90.0000     90.0000
outcell: Cell volume (Ang**3)        :  13500.0000
<dSpData1D:S at geom step 1
  <sparsity:sparsity for geom step 1
    nrows_g=302 nrows=48 sparsity=.1095 nnzs=9986, refcount: 8>
  <dData1D:(new from dSpData1D) n=9986, refcount: 1>
refcount: 1>
new_DM -- step:     1
Initializing Density Matrix...

Attempting to read DM from file... Failed...
DM filled with atomic data:
<dSpData2D:DM initialized from atoms
  <sparsity:sparsity for geom step 1
    nrows_g=302 nrows=48 sparsity=.1095 nnzs=9986, refcount: 9>
  <dData2D:DM n=9986 m=8, refcount: 1>
refcount: 1>
     spin moment: S , {S} =   56.00000   0.00000   0.00000  56.00000
No. of atoms with KB's overlaping orbs in proc 0. Max # of overlaps:      28     205

Initializing spin-orbit part of the Hamiltonian
  Adding spin-orbit effects for H 
  Adding spin-orbit effects for N 
  Adding spin-orbit effects for Si
  Adding spin-orbit effects for O 


New grid distribution:   1
           1       1:  180    1:  125    1:   15
           2       1:  180    1:  125   16:   30
           3       1:  180    1:  125   31:   45
           4       1:  180    1:  125   46:   60
           5       1:  180  126:  250    1:   15
           6       1:  180  126:  250   16:   30
           7       1:  180  126:  250   31:   45
           8       1:  180  126:  250   46:   60

InitMesh: MESH =   360 x   500 x   120 =    21600000
InitMesh: (bp) =   180 x   250 x    60 =     2700000
InitMesh: Mesh cutoff (required, used) =   340.000   341.206 Ry
ExtMesh (bp) on 0 =   288 x   225 x   123 =     7970400
New grid distribution:   2
           1     155:  180   34:  229    1:   60
           2       1:  159    1:   17    1:   60
           3       1:  159   18:   33    1:   60
           4     160:  180   16:   33    1:   60
           5       1:  154   34:  230    1:   60
           6       1:  154  231:  250    1:   60
           7     155:  180  230:  250    1:   60
           8     160:  180    1:   15    1:   60
New grid distribution:   3
           1     147:  180   46:  222    1:   60
           2       1:  141    1:   23    1:   60
           3       1:  141   24:   45    1:   60
           4     142:  180    1:   24    1:   60
           5       1:  146   46:  224    1:   60
           6       1:  146  225:  250    1:   60
           7     147:  180  223:  250    1:   60
           8     142:  180   25:   45    1:   60
Setting up quadratic distribution...
ExtMesh (bp) on 0 =   134 x   296 x   168 =     6663552
PhiOnMesh: Number of (b)points on node 0 =               305760
PhiOnMesh: nlist on node 0 =              1675006

stepf: Fermi-Dirac step function

siesta: Program's energy decomposition (eV):
siesta: Ebs     =      -588.762781
siesta: Eions   =      3553.971015
siesta: Ena     =       380.817087
siesta: Ekin    =      3197.991948
siesta: Enl     =     -3011.967499
siesta: Eso     =        -0.003958
siesta: Edftu   =         0.000000
siesta: DEna    =       132.369233
siesta: DUscf   =        76.486719
siesta: DUext   =         0.000000
siesta: Exc     =     -1174.951446
siesta: eta*DQ  =         0.000000
siesta: Emadel  =         0.000000
siesta: Emeta   =         0.000000
siesta: Emolmec =         0.000000
siesta: Ekinion =         0.000000
siesta: Eharris =     -3872.435868
siesta: Etot    =     -3953.228930
siesta: FreeEng =     -3953.233934

        iscf     Eharris(eV)        E_KS(eV)     FreeEng(eV)     dDmax    Ef(eV) dHmax(eV)
   scf:    1    -3872.435868    -3953.228930    -3953.233934  0.966737 -4.970110 23.373300
     spin moment: S , {S} =    2.03943  -0.00000  -0.00000   2.03943
timer: Routine,Calls,Time,% = IterSCF        1      11.509  32.00
   scf:    2    -3998.681217    -3988.503037    -3988.503048  0.444501 -4.242426 10.030773
     spin moment: S , {S} =    2.00015   0.00000   0.00000   2.00015
   scf:    3    -3991.021633    -3993.169683    -3993.171426  0.423526 -4.067982  6.096568
     spin moment: S , {S} =    0.01072  -0.00000   0.00000   0.01072
   scf:    4    -3995.851150    -3994.663794    -3994.663810  0.026790 -3.712120  4.323925
     spin moment: S , {S} =    0.00015  -0.00000   0.00000   0.00015
   scf:    5    -3996.373388    -3995.606878    -3995.618057  0.040368 -3.683736  2.269746
     spin moment: S , {S} =    0.11234  -0.00000   0.00000   0.11234
   scf:    6    -3995.812884    -3995.798182    -3995.819698  0.062182 -3.693617  1.449457
     spin moment: S , {S} =    0.29231  -0.00000   0.00000   0.29231
   scf:    7    -3996.032257    -3996.033505    -3996.033552  0.075950 -3.729017  0.917818
     spin moment: S , {S} =    0.00018  -0.00000   0.00000   0.00018
   scf:    8    -3996.150847    -3996.092805    -3996.092913  0.010878 -3.760689  0.577368
     spin moment: S , {S} =    0.00020  -0.00000   0.00000   0.00020
   scf:    9    -3996.146017    -3996.121493    -3996.121950  0.007996 -3.770999  0.264461
     spin moment: S , {S} =    0.00009  -0.00000   0.00000   0.00009
   scf:   10    -3996.150691    -3996.136649    -3996.137718  0.008456 -3.786272  0.126680
     spin moment: S , {S} =    0.00065  -0.00000   0.00000  -0.00065
   scf:   11    -3996.151324    -3996.143827    -3996.144636  0.004980 -3.788313  0.078226
     spin moment: S , {S} =    0.00054  -0.00000   0.00000  -0.00054
   scf:   12    -3996.154323    -3996.148476    -3996.149283  0.006483 -3.788276  0.044680
     spin moment: S , {S} =    0.00030  -0.00000  -0.00000  -0.00030
   scf:   13    -3996.151631    -3996.149842    -3996.150713  0.004326 -3.787154  0.030263
     spin moment: S , {S} =    0.00036  -0.00000  -0.00000  -0.00036
   scf:   14    -3996.150854    -3996.150296    -3996.151107  0.002695 -3.785499  0.016418
     spin moment: S , {S} =    0.00021  -0.00000  -0.00000  -0.00021
   scf:   15    -3996.150495    -3996.150385    -3996.151208  0.001345 -3.785106  0.011130
     spin moment: S , {S} =    0.00020  -0.00000  -0.00000  -0.00020
   scf:   16    -3996.150542    -3996.150453    -3996.151272  0.001427 -3.784863  0.006463
     spin moment: S , {S} =    0.00011  -0.00000  -0.00000  -0.00011
   scf:   17    -3996.150496    -3996.150471    -3996.151291  0.000811 -3.784853  0.003495
     spin moment: S , {S} =    0.00005  -0.00000  -0.00000  -0.00005
   scf:   18    -3996.150483    -3996.150477    -3996.151296  0.000399 -3.784891  0.002176
     spin moment: S , {S} =    0.00002  -0.00000  -0.00000  -0.00002
   scf:   19    -3996.150481    -3996.150478    -3996.151297  0.000290 -3.784894  0.001054
     spin moment: S , {S} =    0.00000  -0.00000  -0.00000  -0.00000
   scf:   20    -3996.150479    -3996.150479    -3996.151298  0.000113 -3.784897  0.000642
     spin moment: S , {S} =    0.00000  -0.00000  -0.00000  -0.00000
   scf:   21    -3996.150480    -3996.150479    -3996.151298  0.000055 -3.784912  0.000374
     spin moment: S , {S} =    0.00000  -0.00000  -0.00000  -0.00000
   scf:   22    -3996.150479    -3996.150479    -3996.151298  0.000029 -3.784918  0.000208
     spin moment: S , {S} =    0.00000  -0.00000  -0.00000  -0.00000
   scf:   23    -3996.150479    -3996.150479    -3996.151298  0.000014 -3.784920  0.000141
     spin moment: S , {S} =    0.00000  -0.00000  -0.00000  -0.00000
   scf:   24    -3996.150479    -3996.150479    -3996.151298  0.000011 -3.784918  0.000093
     spin moment: S , {S} =    0.00000  -0.00000  -0.00000  -0.00000
mix: Pulay -- resetting history
   scf:   25    -3996.150479    -3996.150479    -3996.151298  0.000006 -3.784917  0.000064
     spin moment: S , {S} =    0.00000   0.00000  -0.00000  -0.00000
   scf:   26    -3996.150479    -3996.150479    -3996.151298  0.000006 -3.784914  0.000036
     spin moment: S , {S} =    0.00000   0.00000   0.00000  -0.00000
   scf:   27    -3996.150479    -3996.150479    -3996.151298  0.000002 -3.784913  0.000023
     spin moment: S , {S} =    0.00000   0.00000  -0.00000   0.00000
   scf:   28    -3996.150479    -3996.150479    -3996.151298  0.000004 -3.784913  0.000010
     spin moment: S , {S} =    0.00000   0.00000  -0.00000   0.00000
   scf:   29    -3996.150479    -3996.150479    -3996.151298  0.000001 -3.784914  0.000008
     spin moment: S , {S} =    0.00000   0.00000  -0.00000   0.00000
   scf:   30    -3996.150479    -3996.150479    -3996.151298  0.000001 -3.784914  0.000005
     spin moment: S , {S} =    0.00000   0.00000  -0.00000   0.00000
   scf:   31    -3996.150479    -3996.150479    -3996.151298  0.000000 -3.784914  0.000004
     spin moment: S , {S} =    0.00000   0.00000   0.00000   0.00000
   scf:   32    -3996.150479    -3996.150479    -3996.151298  0.000000 -3.784914  0.000002
     spin moment: S , {S} =    0.00000   0.00000   0.00000   0.00000
   scf:   33    -3996.150479    -3996.150479    -3996.151298  0.000000 -3.784914  0.000001
     spin moment: S , {S} =    0.00000   0.00000   0.00000   0.00000
   scf:   34    -3996.150479    -3996.150479    -3996.151298  0.000000 -3.784914  0.000001
     spin moment: S , {S} =    0.00000   0.00000   0.00000   0.00000

SCF Convergence by DM+H criterion
max |DM_out - DM_in|         :     0.0000001584
max |H_out - H_in|      (eV) :     0.0000006593
SCF cycle converged after 34 iterations

Using DM_out to compute the final energy and forces
No. of atoms with KB's overlaping orbs in proc 0. Max # of overlaps:      28     205

siesta: E_KS(eV) =            -3996.1505

siesta: E_KS - E_eggbox =     -3996.1505
     spin moment: S , {S} =    0.00000   0.00000   0.00000   0.00000

siesta: Atomic forces (eV/Ang):
     1    0.146684   -0.072510   -0.000009
     2    0.065853   -0.012373   -0.000029
     3    0.043438   -0.000197   -0.000006
     4    0.065812   -0.134811    0.000007
     5    0.010342    0.065624   -0.000049
     6    0.182823   -0.036295    0.000019
     7   -1.231963   -0.493806   -0.000155
     8    2.392401   -9.570757    0.000566
     9    0.398734   -5.910977   -0.000167
    10    0.129951   -0.614194   -0.000190
    11    0.350272   -0.729229    0.000022
    12    0.402279   -0.137729    0.000002
    13   -0.186617   -0.002550    0.000010
    14   -0.047948    0.143223   -0.000026
    15   -0.047527   -0.177332    0.000124
    16   -0.107695    0.017452   -0.000876
    17    0.062628    0.096848   -0.000665
    18    0.133313    0.039660    0.004864
    19   -0.121857   -0.014990   -0.001126
    20   -0.088097   -0.190648   -0.001370
    21    0.094872    0.058112   -0.003619
    22    0.035276   -0.042675    0.121188
    23   -0.023973    0.088390   -0.012320
    24    0.033372    0.020432   -0.094406
    25    0.896225    1.399297    0.000404
    26   -1.865451   17.428802    0.000069
    27   -0.923892    1.987074   -0.000393
    28    0.356944   -1.232970   -0.000080
    29   -0.391876   -0.028555   -0.000071
    30   -2.747739    2.693341    0.000153
----------------------------------------
   Tot   -1.983417    4.635657    0.011873
----------------------------------------
   Max   17.428802
   Res    2.278313    sqrt( Sum f_i^2 / 3N )
----------------------------------------
   Max   17.428802    constrained

Stress tensor Voigt[x,y,z,yz,xz,xy] (kbar):        0.16       -3.95       -0.01       -0.01        0.00        0.70
(Free)E + p*V (eV/cell)    -3985.4591
Target enthalpy (eV/cell)    -3996.1513

siesta: Stress tensor (static) (eV/Ang**3):
         0.000098    0.000438    0.000000
         0.000438   -0.002467   -0.000004
         0.000000   -0.000004   -0.000008

siesta: Pressure (static):          1.26895995  kBar

siesta: Stress tensor (total) (eV/Ang**3):
         0.000098    0.000438    0.000000
         0.000438   -0.002467   -0.000004
         0.000000   -0.000004   -0.000008

siesta: Pressure (total):          1.26895995  kBar

siesta: Temp_ion =       0.000 K

siesta: Eigenvalues (eV):
ik =     1
  -25.4150  -25.4150  -22.7579  -22.7579  -21.6531  -21.6531  -21.0429  -21.0429  -20.8430  -20.8430
  -19.7274  -19.7274  -19.3049  -19.3049  -19.0838  -19.0838  -18.7465  -18.7465  -15.2666  -15.2666
  -14.5185  -14.5185  -14.1685  -14.1685  -13.4072  -13.4072  -13.3394  -13.3394  -12.6972  -12.6972
  -12.5901  -12.5901  -12.2044  -12.2044  -11.8750  -11.8750  -11.6937  -11.6937  -11.2502  -11.2502
  -10.7192  -10.7192  -10.5299  -10.5299  -10.0240  -10.0240   -9.5083   -9.5083   -9.4118   -9.4118
   -9.2546   -9.2546   -9.0589   -9.0589   -8.7978   -8.7978   -8.7507   -8.7507   -8.6408   -8.6408
   -8.6269   -8.6269   -8.5627   -8.5627   -8.3173   -8.3173   -8.1238   -8.1238   -7.9778   -7.9778
   -7.7802   -7.7802   -7.6038   -7.6038   -7.3146   -7.3146   -7.2769   -7.2769   -6.9618   -6.9618
   -6.7321   -6.7321   -6.4900   -6.4900   -6.3692   -6.3692   -6.1045   -6.1045   -5.8996   -5.8996
   -5.8482   -5.8482   -5.3974   -5.3974   -5.2009   -5.2009   -3.9634   -3.9634   -3.6064   -3.6064
   -2.7557   -2.7557   -2.3660   -2.3660   -2.3547   -2.3547   -2.0590   -2.0590   -1.9664   -1.9664
   -1.7803   -1.7803   -1.7147   -1.7147   -1.6539   -1.6539   -1.3409   -1.3409   -1.2510   -1.2510
   -1.0862   -1.0862   -0.4078   -0.4078   -0.2227   -0.2227   -0.1667   -0.1667   -0.0721   -0.0721
   -0.0431   -0.0431   -0.0140   -0.0140    0.1884    0.1884    0.6112    0.6112    0.7369    0.7369
    0.8165    0.8165    1.0927    1.0927    1.3323    1.3323    1.4318    1.4318    1.5359    1.5359
    1.7638    1.7638    1.8421    1.8421    2.2297    2.2297    2.4001    2.4001    2.4858    2.4858
    2.6107    2.6107    2.6508    2.6508    2.9509    2.9509    3.0942    3.0942    3.1978    3.1978
    3.2040    3.2040    3.3246    3.3246    3.4051    3.4051    3.6122    3.6122    3.8019    3.8019
    4.1132    4.1132    4.3477    4.3477    4.3601    4.3601    4.5850    4.5850    4.6672    4.6672
    4.8923    4.8923    5.1295    5.1295    5.2453    5.2453    5.2491    5.2491    5.3126    5.3126
    5.5591    5.5591    5.6227    5.6227    5.8899    5.8899    5.9628    5.9628    6.1315    6.1315
    6.3394    6.3394    6.3539    6.3539    6.6183    6.6183    6.8180    6.8180    6.9774    6.9774
    7.0838    7.0838    7.2043    7.2043    7.3598    7.3598    7.5428    7.5428    7.6451    7.6451
    7.7664    7.7664    7.8796    7.8796    7.9460    7.9460    8.2570    8.2570    8.4423    8.4423
    8.5373    8.5373    8.6041    8.6041    8.7684    8.7684    8.9004    8.9004    9.2407    9.2407
    9.3890    9.3890    9.4800    9.4800    9.6599    9.6599    9.7390    9.7390    9.8858    9.8858
    9.9381    9.9381   10.1280   10.1280   10.5002   10.5002   10.5474   10.5474   10.6799   10.6799
   10.9276   10.9276   11.4611   11.4611   11.5181   11.5181   11.7118   11.7118   11.7431   11.7431
   11.7824   11.7824   11.9569   11.9569   12.0303   12.0303   12.1803   12.1803   12.5185   12.5185
   12.5856   12.5856   12.7403   12.7403   13.1855   13.1855   13.3628   13.3628   13.4737   13.4737
   13.8229   13.8229   13.9939   13.9939   14.0813   14.0813   14.2829   14.2829   14.6524   14.6524
   14.8718   14.8718   15.0253   15.0253   15.2962   15.2962   15.3931   15.3931   15.7347   15.7347
   16.0652   16.0652   16.3811   16.3811   16.4897   16.4897   16.8791   16.8791   16.9884   16.9884
   17.2797   17.2797   17.4617   17.4617   17.7107   17.7107   18.0145   18.0145   18.2230   18.2230
   18.8154   18.8154   18.9578   18.9578   18.9838   18.9838   19.2433   19.2433   19.3903   19.3903
   19.6497   19.6497   20.1539   20.1539   20.6706   20.6706   20.9267   20.9267   21.3363   21.3363
   21.6007   21.6007   22.2314   22.2314   22.5786   22.5786   22.8382   22.8382   23.1315   23.1315
   23.3778   23.3778   23.5101   23.5101   24.2262   24.2262   24.8728   24.8728   24.9636   24.9636
   25.1099   25.1099   25.6958   25.6958   25.8114   25.8114   26.2535   26.2535   26.9631   26.9631
   27.3301   27.3301   27.6844   27.6844   28.3038   28.3038   28.8640   28.8640   29.2382   29.2382
   29.5707   29.5707   30.1680   30.1680   31.0494   31.0494   31.0920   31.0920   31.4618   31.4618
   31.5072   31.5072   31.6432   31.6432   32.2049   32.2049   32.2700   32.2700   32.8960   32.8960
   33.5987   33.5987   33.9279   33.9279   34.3284   34.3284   35.0127   35.0127   35.1964   35.1964
   36.1744   36.1744   36.2573   36.2573   36.8507   36.8507   37.2281   37.2281   37.3719   37.3719
   37.8668   37.8668   38.7942   38.7942   39.2946   39.2946   39.5794   39.5794   39.7937   39.7937
   40.4700   40.4700   40.5214   40.5214   41.0198   41.0198   41.7450   41.7450   42.1561   42.1561
   42.8060   42.8060   43.4279   43.4279   43.5501   43.5501   43.6368   43.6368   44.0348   44.0348
   44.2247   44.2247   44.6119   44.6119   44.9662   44.9662   45.0885   45.0885   45.6349   45.6349
   46.0623   46.0623   46.9120   46.9120   46.9852   46.9852   47.3046   47.3046   48.0836   48.0836
   48.2856   48.2856   48.4586   48.4586   49.2207   49.2207   49.3698   49.3698   50.0530   50.0530
   50.1690   50.1690   50.3425   50.3425   50.6598   50.6598   50.7200   50.7200   51.3347   51.3347
   51.5341   51.5341   52.5021   52.5021   53.6439   53.6439   54.5670   54.5670   55.2479   55.2479
   55.4819   55.4819   56.7170   56.7170   57.1475   57.1475   57.4147   57.4147   57.5128   57.5128
   58.4027   58.4027   59.0970   59.0970   59.6070   59.6070   59.9320   59.9320   60.8439   60.8439
   61.5811   61.5811   62.6397   62.6397   63.2196   63.2196   64.0432   64.0432   64.7305   64.7305
   65.9821   65.9821   67.1011   67.1011   67.3560   67.3560   67.9610   67.9610   68.9935   68.9935
   69.5278   69.5278   69.5590   69.5590   72.4836   72.4836   75.9603   75.9603   77.7791   77.7791
   88.6787   88.6787   89.9376   89.9376   91.2031   91.2031   93.4788   93.4788   94.9877   94.9877
   97.3741   97.3741  100.5471  100.5471  101.4173  101.4173  102.7127  102.7127  103.9512  103.9512
  104.6756  104.6756  121.3762  121.3762  122.5775  122.5775  127.7071  127.7071  136.5700  136.5700
  145.3457  145.3457  155.3873  155.3873
siesta: Fermi energy =      -3.784914 eV

siesta: Program's energy decomposition (eV):
siesta: Ebs     =     -1113.664381
siesta: Eions   =      3553.971015
siesta: Ena     =       380.817087
siesta: Ekin    =      2768.944710
siesta: Enl     =     -2545.984767
siesta: Eso     =        -0.004790
siesta: Edftu   =         0.000000
siesta: DEna    =        37.826937
siesta: DUscf   =        13.926895
siesta: DUext   =         0.000000
siesta: Exc     =     -1097.705536
siesta: eta*DQ  =         0.000000
siesta: Emadel  =         0.000000
siesta: Emeta   =         0.000000
siesta: Emolmec =         0.000000
siesta: Ekinion =         0.000000
siesta: Eharris =     -3996.150479
siesta: Etot    =     -3996.150479
siesta: FreeEng =     -3996.151298

siesta: Final energy (eV):
siesta:  Band Struct. =   -1113.664381
siesta:       Kinetic =    2768.944710
siesta:       Hartree =   15635.035191
siesta:       Edftu   =       0.000000
siesta:       Eso     =      -0.004790
siesta:    Ext. field =       0.000000
siesta:   Exch.-corr. =   -1097.705536
siesta:  Ion-electron =  -33727.705349
siesta:       Ion-ion =   12425.285296
siesta:       Ekinion =       0.000000
siesta:         Total =   -3996.150479
siesta:         Fermi =      -3.784914

siesta: Atomic forces (eV/Ang):
siesta:      1    0.146684   -0.072510   -0.000009
siesta:      2    0.065853   -0.012373   -0.000029
siesta:      3    0.043438   -0.000197   -0.000006
siesta:      4    0.065812   -0.134811    0.000007
siesta:      5    0.010342    0.065624   -0.000049
siesta:      6    0.182823   -0.036295    0.000019
siesta:      7   -1.231963   -0.493806   -0.000155
siesta:      8    2.392401   -9.570757    0.000566
siesta:      9    0.398734   -5.910977   -0.000167
siesta:     10    0.129951   -0.614194   -0.000190
siesta:     11    0.350272   -0.729229    0.000022
siesta:     12    0.402279   -0.137729    0.000002
siesta:     13   -0.186617   -0.002550    0.000010
siesta:     14   -0.047948    0.143223   -0.000026
siesta:     15   -0.047527   -0.177332    0.000124
siesta:     16   -0.107695    0.017452   -0.000876
siesta:     17    0.062628    0.096848   -0.000665
siesta:     18    0.133313    0.039660    0.004864
siesta:     19   -0.121857   -0.014990   -0.001126
siesta:     20   -0.088097   -0.190648   -0.001370
siesta:     21    0.094872    0.058112   -0.003619
siesta:     22    0.035276   -0.042675    0.121188
siesta:     23   -0.023973    0.088390   -0.012320
siesta:     24    0.033372    0.020432   -0.094406
siesta:     25    0.896225    1.399297    0.000404
siesta:     26   -1.865451   17.428802    0.000069
siesta:     27   -0.923892    1.987074   -0.000393
siesta:     28    0.356944   -1.232970   -0.000080
siesta:     29   -0.391876   -0.028555   -0.000071
siesta:     30   -2.747739    2.693341    0.000153
siesta: ----------------------------------------
siesta:    Tot   -1.983417    4.635657    0.011873

siesta: Stress tensor (static) (eV/Ang**3):
siesta:     0.000098    0.000438    0.000000
siesta:     0.000438   -0.002467   -0.000004
siesta:     0.000000   -0.000004   -0.000008

siesta: Cell volume =      13500.000000 Ang**3

siesta: Pressure (static):
siesta:                Solid            Molecule  Units
siesta:           0.00000863          0.00000036  Ry/Bohr**3
siesta:           0.00079201          0.00003327  eV/Ang**3
siesta:           1.26895995          0.05331271  kBar
(Free)E+ p_basis*V_orbitals  =       -3975.023213
(Free)Eharris+ p_basis*V_orbitals  =       -3975.023213
     spin moment: S , {S} =    0.00000   0.00000   0.00000   0.00000

siesta: Electric dipole (a.u.)  =   -1.087793    1.905687   -0.001633
siesta: Electric dipole (Debye) =   -2.764895    4.843776   -0.004151

cite: Please see "AT.bib" for an exhaustive BiBTeX file.
cite: Please clearly indicate Siesta version in published work: v4.1.5-1-g384057250
cite: This calculation has made use of the following articles
cite: which are encouraged to be cited in a published work.
        Primary SIESTA paper
          DOI: www.doi.org/10.1088/0953-8984/14/11/302
        Spin-orbit coupling (on-site approximation)
          DOI: www.doi.org/10.1088/0953-8984/19/19/489001


WARNING: alloc-realloc-dealloc name mismatch
         Name: atomlist isa
         Size:              -120. Bytes
         Node:     0
         Subsequent mismatches will not be reported
>> End of run:   1-FEB-2024  18:00:10
Job completed
