Siesta Version  : v4.1.5-1-g384057250
Architecture    : gcc
Compiler version: GNU Fortran (Ubuntu 11.3.0-1ubuntu1~22.04) 11.3.0
Compiler flags  : mpifort -O2 -fPIC -ftree-vectorize -fallow-argument-mismatch
PP flags        : -DFC_HAVE_ABORT -DMPI -DSIESTA__FLOOK -DSIESTA__METIS -DSIESTA__MUMPS -DCDF -DNCDF -DNCDF_4 -DNCDF_PARALLEL -DSIESTA__MRRR -DSIESTA__ELPA
Libraries       : libncdf.a libfdict.a  -lflookall -ldl -lnetcdff -lnetcdf -lhdf5_hl -lhdf5 -lhdf5_fortran -lz -lscalapack-openmpi -lopenblas -lmetis -lzmumps -lcmumps -ldmumps -lmumps_common -lpord -lsmumps -lesmumps -lscotch -lscotcherr -fopenmp -lelpa
PARALLEL version
NetCDF support
NetCDF-4 support
NetCDF-4 MPI-IO support
METIS ordering support
Lua support

* Running on 4 nodes in parallel
>> Start of run:  28-JUN-2023  18:29:15

                           ***********************       
                           *  WELCOME TO SIESTA  *       
                           ***********************       

reinit: Reading from standard input
reinit: Dumped input in INPUT_TMP.12748
************************** Dump of input data file ****************************
SystemLabel      GC
NumberOfAtoms    29
NumberOfSpecies  4
%block ChemicalSpeciesLabel
    1    8  O
    2    7  N
    3   14  Si
    4    1  H
%endblock ChemicalSpeciesLabel
# Single point calculation
MD.TypeOfRun                CG
MD.Steps                    0
SCF.MustConverge            F # In case it does not. There can be 2 very close atoms
AtomicCoordinatesFormat NotScaledCartesianAng
%block AtomicCoordinatesAndAtomicSpecies
1.043624880    3.939228610    0.000000000       1
-3.040641290   1.071078170    0.000000000       2
2.054601450    1.213582070    0.000000000       2
0.999014100    -1.732643800   0.000000000       2
-2.132351640   -1.812968220   0.000000000       2
3.860190550    -1.112298180   0.000000000       2
-1.236183220   1.152964460    0.000000000       3
-0.532924260   -0.939006270   0.000000000       3
0.635660470    2.374516770    0.000000000       3
2.245170240    -0.549967100   0.000000000       3
-3.449816660   -0.583665030   0.000000000       3
2.963714090    1.790992630    0.000000000       4
-4.845591350   -1.123549660   0.000000000       4
4.007020910    -2.152308560   0.000000000       4
4.772194380    -0.502318160   0.000000000       4
-2.265399090   -2.864605110   0.000000000       4
4.782885696    4.792818980    0.000000000       3
6.687769666    5.999457920    0.000000000       3
6.192015526    2.026484010    0.000000000       3
8.269485816    4.495701170    0.000000000       3
4.842508366    3.075391410    0.000000000       2
3.243750636    5.546496290    0.000000000       2
7.844310786    2.756321230    0.000000000       2
6.879114466    7.491611670    0.000000000       4
9.753853796    4.714431990    0.000000000       4
3.132405356    6.595691400    0.000000000       4
2.311192926    4.921582110    0.000000000       4
6.181788696    0.418372890    0.000000000       1
8.619736666    2.029629670    0.000000000       4
%endblock AtomicCoordinatesAndAtomicSpecies
%include ../../../Defaults.fdf
************************** End of input data file *****************************

reinit: -----------------------------------------------------------------------
reinit: System Name: 
reinit: -----------------------------------------------------------------------
reinit: System Label: GC
reinit: -----------------------------------------------------------------------

initatom: Reading input for the pseudopotentials and atomic orbitals ----------
Species number:   1 Atomic number:    8 Label: O
Species number:   2 Atomic number:    7 Label: N
Species number:   3 Atomic number:   14 Label: Si
Species number:   4 Atomic number:    1 Label: H

Ground state valence configuration:   2s02  2p04
Reading pseudopotential information in formatted form from O.psf

Pseudopotential generated from a relativistic atomic calculation

Valence configuration for pseudopotential generation:
2s( 2.00) rc: 0.45
2p( 4.00) rc: 0.92
3d( 0.00) rc: 2.24
4f( 0.00) rc: 0.25
Ground state valence configuration:   2s02  2p03
Reading pseudopotential information in formatted form from N.psf

Pseudopotential generated from a relativistic atomic calculation

Valence configuration for pseudopotential generation:
2s( 2.00) rc: 0.94
2p( 3.00) rc: 0.59
3d( 0.00) rc: 3.46
4f( 0.00) rc: 2.47
Ground state valence configuration:   3s02  3p02
Reading pseudopotential information in formatted form from Si.psf

Pseudopotential generated from a relativistic atomic calculation

Valence configuration for pseudopotential generation:
3s( 2.00) rc: 1.67
3p( 2.00) rc: 2.04
3d( 0.00) rc: 2.89
4f( 0.00) rc: 2.49
Ground state valence configuration:   1s01
Reading pseudopotential information in formatted form from H.psf

Pseudopotential generated from a relativistic atomic calculation

Valence configuration for pseudopotential generation:
1s( 1.00) rc: 0.01
2p( 0.00) rc: 0.60
3d( 0.00) rc: 1.99
4f( 0.00) rc: 2.49
For O, standard SIESTA heuristics set lmxkb to 3
 (one more than the basis l, including polarization orbitals).
Use PS.lmax or PS.KBprojectors blocks to override.
For N, standard SIESTA heuristics set lmxkb to 3
 (one more than the basis l, including polarization orbitals).
Use PS.lmax or PS.KBprojectors blocks to override.
For Si, standard SIESTA heuristics set lmxkb to 3
 (one more than the basis l, including polarization orbitals).
Use PS.lmax or PS.KBprojectors blocks to override.
For H, standard SIESTA heuristics set lmxkb to 2
 (one more than the basis l, including polarization orbitals).
Use PS.lmax or PS.KBprojectors blocks to override.

<basis_specs>
===============================================================================
O                    Z=   8    Mass=  16.000        Charge= 0.17977+309
Lmxo=1 Lmxkb= 3    BasisType=split      Semic=F
L=0  Nsemic=0  Cnfigmx=2
          i=1  nzeta=2  polorb=0  (2s)
            splnorm:   0.28000    
               vcte:    0.0000    
               rinn:    0.0000    
               qcoe:    0.0000    
               qyuk:    0.0000    
               qwid:   0.10000E-01
                rcs:    0.0000      0.0000    
            lambdas:    1.0000      1.0000    
L=1  Nsemic=0  Cnfigmx=2
          i=1  nzeta=2  polorb=1  (2p)
            splnorm:   0.28000    
               vcte:    0.0000    
               rinn:    0.0000    
               qcoe:    0.0000    
               qyuk:    0.0000    
               qwid:   0.10000E-01
                rcs:    0.0000      0.0000    
            lambdas:    1.0000      1.0000    
-------------------------------------------------------------------------------
L=0  Nkbl=1  erefs: 0.17977+309
L=1  Nkbl=1  erefs: 0.17977+309
L=2  Nkbl=1  erefs: 0.17977+309
L=3  Nkbl=1  erefs: 0.17977+309
===============================================================================
</basis_specs>

atom: Called for O                     (Z =   8)

read_vps: Pseudopotential generation method:
read_vps: ATM4.2.7  Troullier-Martins                       
Valence charge for ps generation:    6.00000

xc_check: Exchange-correlation functional:
xc_check: GGA Perdew, Burke & Ernzerhof 1996
V l=0 = -2*Zval/r beyond r=  1.1000
V l=1 = -2*Zval/r beyond r=  1.1000
V l=2 = -2*Zval/r beyond r=  2.2154
V l=3 = -2*Zval/r beyond r=  1.1000
All V_l potentials equal beyond r=  2.2154
This should be close to max(r_c) in ps generation
All pots = -2*Zval/r beyond r=  2.2154

VLOCAL1: 99.0% of the norm of Vloc inside      8.845 Ry
VLOCAL1: 99.9% of the norm of Vloc inside     20.157 Ry
atom: Maximum radius for 4*pi*r*r*local-pseudopot. charge    2.67231
atom: Maximum radius for r*vlocal+2*Zval:    2.32897
GHOST: No ghost state for L =  0
GHOST: No ghost state for L =  1
GHOST: No ghost state for L =  2
GHOST: No ghost state for L =  3

KBgen: Kleinman-Bylander projectors: 
   l= 0   rc=  2.243238   el= -1.759686   Ekb=**********   kbcos= -0.171774
   l= 1   rc=  2.328968   el= -0.663873   Ekb=-14.506792   kbcos= -0.519897
   l= 2   rc=  2.573941   el=  0.002031   Ekb= -1.137373   kbcos= -0.019581
   l= 3   rc=  2.606321   el=  0.003153   Ekb= -1.013546   kbcos= -0.003122

KBgen: Total number of Kleinman-Bylander projectors:   16
atom: -------------------------------------------------------------------------

atom: SANKEY-TYPE ORBITALS:
atom: Selected multiple-zeta basis: split     

SPLIT: Orbitals with angular momentum L= 0

SPLIT: Basis orbitals for state 2s

SPLIT: PAO cut-off radius determined from an
SPLIT: energy shift=  0.002000 Ry

   izeta = 1
                 lambda =    1.000000
                     rc =    4.243912
                 energy =   -1.758270
                kinetic =    3.286084
    potential(screened) =   -5.044353
       potential(ionic) =  -12.921184

   izeta = 2
                 rmatch =    2.187845
              splitnorm =    0.280000
                 energy =   -0.885018
                kinetic =    8.134434
    potential(screened) =   -9.019452
       potential(ionic) =  -17.710645

SPLIT: Orbitals with angular momentum L= 1

SPLIT: Basis orbitals for state 2p

SPLIT: PAO cut-off radius determined from an
SPLIT: energy shift=  0.002000 Ry

   izeta = 1
                 lambda =    1.000000
                     rc =    5.314825
                 energy =   -0.661986
                kinetic =    4.917472
    potential(screened) =   -5.579458
       potential(ionic) =  -13.236259

   izeta = 2
                 rmatch =    2.160663
              splitnorm =    0.280000
                 energy =   -0.068760
                kinetic =    9.183374
    potential(screened) =   -9.252135
       potential(ionic) =  -18.274251

POLgen: Perturbative polarization orbital with L=  2

POLgen: Polarization orbital for state 2p

   izeta = 1
                     rc =    5.314825
                 energy =    1.970580
                kinetic =    3.886128
    potential(screened) =   -1.915547
       potential(ionic) =   -7.749584
atom: Total number of Sankey-type orbitals: 13

atm_pop: Valence configuration (for local Pseudopot. screening):
 2s( 2.00)                                                            
 2p( 4.00)                                                            
Vna: chval, zval:    6.00000   6.00000

Vna:  Cut-off radius for the neutral-atom potential:   5.314825

atom: _________________________________________________________________________

<basis_specs>
===============================================================================
N                    Z=   7    Mass=  14.010        Charge= 0.17977+309
Lmxo=1 Lmxkb= 3    BasisType=split      Semic=F
L=0  Nsemic=0  Cnfigmx=2
          i=1  nzeta=2  polorb=0  (2s)
            splnorm:   0.28000    
               vcte:    0.0000    
               rinn:    0.0000    
               qcoe:    0.0000    
               qyuk:    0.0000    
               qwid:   0.10000E-01
                rcs:    0.0000      0.0000    
            lambdas:    1.0000      1.0000    
L=1  Nsemic=0  Cnfigmx=2
          i=1  nzeta=2  polorb=1  (2p)
            splnorm:   0.28000    
               vcte:    0.0000    
               rinn:    0.0000    
               qcoe:    0.0000    
               qyuk:    0.0000    
               qwid:   0.10000E-01
                rcs:    0.0000      0.0000    
            lambdas:    1.0000      1.0000    
-------------------------------------------------------------------------------
L=0  Nkbl=1  erefs: 0.17977+309
L=1  Nkbl=1  erefs: 0.17977+309
L=2  Nkbl=1  erefs: 0.17977+309
L=3  Nkbl=1  erefs: 0.17977+309
===============================================================================
</basis_specs>

atom: Called for N                     (Z =   7)

read_vps: Pseudopotential generation method:
read_vps: ATM4.2.7  Troullier-Martins                       
Valence charge for ps generation:    5.00000

xc_check: Exchange-correlation functional:
xc_check: GGA Perdew, Burke & Ernzerhof 1996
V l=0 = -2*Zval/r beyond r=  1.2889
V l=1 = -2*Zval/r beyond r=  1.2889
V l=2 = -2*Zval/r beyond r=  3.4178
V l=3 = -2*Zval/r beyond r=  2.4084
All V_l potentials equal beyond r=  3.3753
This should be close to max(r_c) in ps generation
All pots = -2*Zval/r beyond r=  3.4178

VLOCAL1: 99.0% of the norm of Vloc inside      3.810 Ry
VLOCAL1: 99.9% of the norm of Vloc inside      8.683 Ry
atom: Maximum radius for 4*pi*r*r*local-pseudopot. charge    4.02088
atom: Maximum radius for r*vlocal+2*Zval:    3.54838
GHOST: No ghost state for L =  0
GHOST: No ghost state for L =  1
GHOST: No ghost state for L =  2
GHOST: No ghost state for L =  3

KBgen: Kleinman-Bylander projectors: 
   l= 0   rc=  3.417763   el= -1.365098   Ekb= -4.433130   kbcos= -0.707855
   l= 1   rc=  3.375302   el= -0.521201   Ekb=-13.264039   kbcos= -0.535594
   l= 2   rc=  3.872880   el=  0.001991   Ekb= -0.641094   kbcos= -0.062456
   l= 3   rc=  3.970931   el=  0.003093   Ekb= -0.474517   kbcos= -0.018236

KBgen: Total number of Kleinman-Bylander projectors:   16
atom: -------------------------------------------------------------------------

atom: SANKEY-TYPE ORBITALS:
atom: Selected multiple-zeta basis: split     

SPLIT: Orbitals with angular momentum L= 0

SPLIT: Basis orbitals for state 2s

SPLIT: PAO cut-off radius determined from an
SPLIT: energy shift=  0.002000 Ry

   izeta = 1
                 lambda =    1.000000
                     rc =    4.730425
                 energy =   -1.363399
                kinetic =    1.245246
    potential(screened) =   -2.608645
       potential(ionic) =   -8.121105

   izeta = 2
                 rmatch =    2.531849
              splitnorm =    0.280000
                 energy =   -0.959908
                kinetic =    2.409435
    potential(screened) =   -3.369343
       potential(ionic) =   -9.427975

SPLIT: Orbitals with angular momentum L= 1

SPLIT: Basis orbitals for state 2p

SPLIT: PAO cut-off radius determined from an
SPLIT: energy shift=  0.002000 Ry

   izeta = 1
                 lambda =    1.000000
                     rc =    5.924108
                 energy =   -0.519262
                kinetic =    3.672940
    potential(screened) =   -4.192202
       potential(ionic) =   -9.518354

   izeta = 2
                 rmatch =    2.531849
              splitnorm =    0.280000
                 energy =   -0.104258
                kinetic =    6.807538
    potential(screened) =   -6.911796
       potential(ionic) =  -13.149920

POLgen: Perturbative polarization orbital with L=  2

POLgen: Polarization orbital for state 2p

   izeta = 1
                     rc =    5.924108
                 energy =    1.427508
                kinetic =    2.872379
    potential(screened) =   -1.444871
       potential(ionic) =   -5.563644
atom: Total number of Sankey-type orbitals: 13

atm_pop: Valence configuration (for local Pseudopot. screening):
 2s( 2.00)                                                            
 2p( 3.00)                                                            
Vna: chval, zval:    5.00000   5.00000

Vna:  Cut-off radius for the neutral-atom potential:   5.924108

atom: _________________________________________________________________________

<basis_specs>
===============================================================================
Si                   Z=  14    Mass=  28.090        Charge= 0.17977+309
Lmxo=1 Lmxkb= 3    BasisType=split      Semic=F
L=0  Nsemic=0  Cnfigmx=3
          i=1  nzeta=2  polorb=0  (3s)
            splnorm:   0.28000    
               vcte:    0.0000    
               rinn:    0.0000    
               qcoe:    0.0000    
               qyuk:    0.0000    
               qwid:   0.10000E-01
                rcs:    0.0000      0.0000    
            lambdas:    1.0000      1.0000    
L=1  Nsemic=0  Cnfigmx=3
          i=1  nzeta=2  polorb=1  (3p)
            splnorm:   0.28000    
               vcte:    0.0000    
               rinn:    0.0000    
               qcoe:    0.0000    
               qyuk:    0.0000    
               qwid:   0.10000E-01
                rcs:    0.0000      0.0000    
            lambdas:    1.0000      1.0000    
-------------------------------------------------------------------------------
L=0  Nkbl=1  erefs: 0.17977+309
L=1  Nkbl=1  erefs: 0.17977+309
L=2  Nkbl=1  erefs: 0.17977+309
L=3  Nkbl=1  erefs: 0.17977+309
===============================================================================
</basis_specs>

atom: Called for Si                    (Z =  14)

read_vps: Pseudopotential generation method:
read_vps: ATM4.2.7  Troullier-Martins                       
Valence charge for ps generation:    4.00000

xc_check: Exchange-correlation functional:
xc_check: GGA Perdew, Burke & Ernzerhof 1996
V l=0 = -2*Zval/r beyond r=  2.7826
V l=1 = -2*Zval/r beyond r=  2.7826
V l=2 = -2*Zval/r beyond r=  2.9253
V l=3 = -2*Zval/r beyond r=  2.7826
All V_l potentials equal beyond r=  2.8530
This should be close to max(r_c) in ps generation
All pots = -2*Zval/r beyond r=  2.9253

VLOCAL1: 99.0% of the norm of Vloc inside      5.333 Ry
VLOCAL1: 99.9% of the norm of Vloc inside     12.154 Ry
atom: Maximum radius for 4*pi*r*r*local-pseudopot. charge    3.39869
atom: Maximum radius for r*vlocal+2*Zval:    2.96205
GHOST: No ghost state for L =  0
GHOST: No ghost state for L =  1
GHOST: No ghost state for L =  2
GHOST: No ghost state for L =  3

KBgen: Kleinman-Bylander projectors: 
   l= 0   rc=  3.075247   el= -0.794092   Ekb=  5.879390   kbcos=  0.167461
   l= 1   rc=  3.153101   el= -0.300068   Ekb=  2.642817   kbcos=  0.058301
   l= 2   rc=  3.273594   el=  0.001958   Ekb= -1.185135   kbcos= -0.104411
   l= 3   rc=  3.232927   el=  0.003046   Ekb= -0.497174   kbcos= -0.015889

KBgen: Total number of Kleinman-Bylander projectors:   16
atom: -------------------------------------------------------------------------

atom: SANKEY-TYPE ORBITALS:
atom: Selected multiple-zeta basis: split     

SPLIT: Orbitals with angular momentum L= 0

SPLIT: Basis orbitals for state 3s

SPLIT: PAO cut-off radius determined from an
SPLIT: energy shift=  0.002000 Ry

   izeta = 1
                 lambda =    1.000000
                     rc =    6.429618
                 energy =   -0.792283
                kinetic =    0.525293
    potential(screened) =   -1.317576
       potential(ionic) =   -3.744923

   izeta = 2
                 rmatch =    3.998416
              splitnorm =    0.280000
                 energy =   -0.583081
                kinetic =    1.069570
    potential(screened) =   -1.652651
       potential(ionic) =   -4.235185

SPLIT: Orbitals with angular momentum L= 1

SPLIT: Basis orbitals for state 3p

SPLIT: PAO cut-off radius determined from an
SPLIT: energy shift=  0.002000 Ry

   izeta = 1
                 lambda =    1.000000
                     rc =    8.464845
                 energy =   -0.298236
                kinetic =    0.785360
    potential(screened) =   -1.083596
       potential(ionic) =   -3.273779

   izeta = 2
                 rmatch =    4.587816
              splitnorm =    0.280000
                 energy =   -0.131871
                kinetic =    1.403687
    potential(screened) =   -1.535557
       potential(ionic) =   -4.015310

POLgen: Perturbative polarization orbital with L=  2

POLgen: Polarization orbital for state 3p

   izeta = 1
                     rc =    8.464845
                 energy =    0.321949
                kinetic =    1.055677
    potential(screened) =   -0.733728
       potential(ionic) =   -2.672950
atom: Total number of Sankey-type orbitals: 13

atm_pop: Valence configuration (for local Pseudopot. screening):
 3s( 2.00)                                                            
 3p( 2.00)                                                            
Vna: chval, zval:    4.00000   4.00000

Vna:  Cut-off radius for the neutral-atom potential:   8.464845

atom: _________________________________________________________________________

<basis_specs>
===============================================================================
H                    Z=   1    Mass=  1.0100        Charge= 0.17977+309
Lmxo=0 Lmxkb= 2    BasisType=split      Semic=F
L=0  Nsemic=0  Cnfigmx=1
          i=1  nzeta=2  polorb=1  (1s)
            splnorm:   0.62000    
               vcte:    0.0000    
               rinn:    0.0000    
               qcoe:    0.0000    
               qyuk:    0.0000    
               qwid:   0.10000E-01
                rcs:    0.0000      0.0000    
            lambdas:    1.0000      1.0000    
-------------------------------------------------------------------------------
L=0  Nkbl=1  erefs: 0.17977+309
L=1  Nkbl=1  erefs: 0.17977+309
L=2  Nkbl=1  erefs: 0.17977+309
===============================================================================
</basis_specs>

atom: Called for H                     (Z =   1)

read_vps: Pseudopotential generation method:
read_vps: ATM4.2.7  Troullier-Martins                       
Valence charge for ps generation:    1.00000

xc_check: Exchange-correlation functional:
xc_check: GGA Perdew, Burke & Ernzerhof 1996
V l=0 = -2*Zval/r beyond r=  0.0098
V l=1 = -2*Zval/r beyond r=  0.5817
V l=2 = -2*Zval/r beyond r=  1.9372
All V_l potentials equal beyond r=  1.9372
This should be close to max(r_c) in ps generation
All pots = -2*Zval/r beyond r=  1.9372

VLOCAL1: 99.0% of the norm of Vloc inside     11.567 Ry
VLOCAL1: 99.9% of the norm of Vloc inside     26.362 Ry
atom: Maximum radius for 4*pi*r*r*local-pseudopot. charge    2.25106
atom: Maximum radius for r*vlocal+2*Zval:    1.91306
GHOST: No ghost state for L =  0
GHOST: No ghost state for L =  1
GHOST: No ghost state for L =  2

KBgen: Kleinman-Bylander projectors: 
   l= 0   rc=  2.036604   el= -0.477180   Ekb= -6.081590   kbcos= -0.277285
   l= 1   rc=  2.195416   el=  0.001076   Ekb= -0.926943   kbcos= -0.034643
   l= 2   rc=  2.251056   el=  0.002010   Ekb= -0.130941   kbcos= -0.009788

KBgen: Total number of Kleinman-Bylander projectors:    9
atom: -------------------------------------------------------------------------

atom: SANKEY-TYPE ORBITALS:
atom: Selected multiple-zeta basis: split     

SPLIT: Orbitals with angular momentum L= 0

SPLIT: Basis orbitals for state 1s

SPLIT: PAO cut-off radius determined from an
SPLIT: energy shift=  0.002000 Ry

   izeta = 1
                 lambda =    1.000000
                     rc =    6.518340
                 energy =   -0.475305
                kinetic =    0.912139
    potential(screened) =   -1.387444
       potential(ionic) =   -1.907295

   izeta = 2
                 rmatch =    2.141150
              splitnorm =    0.620000
                 energy =    0.566467
                kinetic =    3.772856
    potential(screened) =   -3.206389
       potential(ionic) =   -3.759093

POLgen: Perturbative polarization orbital with L=  1

POLgen: Polarization orbital for state 1s

   izeta = 1
                     rc =    6.518340
                 energy =    0.533861
                kinetic =    1.121086
    potential(screened) =   -0.587225
       potential(ionic) =   -1.053027
atom: Total number of Sankey-type orbitals:  5

atm_pop: Valence configuration (for local Pseudopot. screening):
 1s( 1.00)                                                            
Vna: chval, zval:    1.00000   1.00000

Vna:  Cut-off radius for the neutral-atom potential:   6.518340

atom: _________________________________________________________________________

prinput: Basis input ----------------------------------------------------------

PAO.BasisType split     

%block ChemicalSpeciesLabel
    1    8 O                       # Species index, atomic number, species label
    2    7 N                       # Species index, atomic number, species label
    3   14 Si                      # Species index, atomic number, species label
    4    1 H                       # Species index, atomic number, species label
%endblock ChemicalSpeciesLabel

%block PAO.Basis                 # Define Basis set
O                     2                    # Species label, number of l-shells
 n=2   0   2                         # n, l, Nzeta 
   4.244      2.188   
   1.000      1.000   
 n=2   1   2 P   1                   # n, l, Nzeta, Polarization, NzetaPol
   5.315      2.161   
   1.000      1.000   
N                     2                    # Species label, number of l-shells
 n=2   0   2                         # n, l, Nzeta 
   4.730      2.532   
   1.000      1.000   
 n=2   1   2 P   1                   # n, l, Nzeta, Polarization, NzetaPol
   5.924      2.532   
   1.000      1.000   
Si                    2                    # Species label, number of l-shells
 n=3   0   2                         # n, l, Nzeta 
   6.430      3.998   
   1.000      1.000   
 n=3   1   2 P   1                   # n, l, Nzeta, Polarization, NzetaPol
   8.465      4.588   
   1.000      1.000   
H                     1                    # Species label, number of l-shells
 n=1   0   2 P   1                   # n, l, Nzeta, Polarization, NzetaPol
   6.518      2.141   
   1.000      1.000   
%endblock PAO.Basis

prinput: ----------------------------------------------------------------------

Dumping basis to NetCDF file O.ion.nc
Dumping basis to NetCDF file N.ion.nc
Dumping basis to NetCDF file Si.ion.nc
Dumping basis to NetCDF file H.ion.nc
coor:   Atomic-coordinates input format  =     Cartesian coordinates
coor:                                          (in Angstroms)

siesta: Atomic coordinates (Bohr) and species
siesta:      1.97217   7.44407   0.00000  1        1
siesta:     -5.74598   2.02405   0.00000  2        2
siesta:      3.88264   2.29334   0.00000  2        3
siesta:      1.88786  -3.27422   0.00000  2        4
siesta:     -4.02956  -3.42601   0.00000  2        5
siesta:      7.29471  -2.10194   0.00000  2        6
siesta:     -2.33605   2.17879   0.00000  3        7
siesta:     -1.00708  -1.77447   0.00000  3        8
siesta:      1.20122   4.48719   0.00000  3        9
siesta:      4.24276  -1.03929   0.00000  3       10
siesta:     -6.51921  -1.10297   0.00000  3       11
siesta:      5.60061   3.38449   0.00000  4       12
siesta:     -9.15684  -2.12320   0.00000  4       13
siesta:      7.57218  -4.06728   0.00000  4       14
siesta:      9.01814  -0.94924   0.00000  4       15
siesta:     -4.28099  -5.41332   0.00000  4       16
siesta:      9.03835   9.05712   0.00000  3       17
siesta:     12.63806  11.33734   0.00000  3       18
siesta:     11.70122   3.82950   0.00000  3       19
siesta:     15.62707   8.49565   0.00000  3       20
siesta:      9.15102   5.81165   0.00000  2       21
siesta:      6.12980  10.48136   0.00000  2       22
siesta:     14.82360   5.20869   0.00000  2       23
siesta:     12.99965  14.15710   0.00000  4       24
siesta:     18.43212   8.90899   0.00000  4       25
siesta:      5.91939  12.46406   0.00000  4       26
siesta:      4.36752   9.30045   0.00000  4       27
siesta:     11.68189   0.79061   0.00000  1       28
siesta:     16.28895   3.83545   0.00000  4       29

siesta: Automatic unit cell vectors (Ang):
siesta:   23.647972    0.000000    0.000000
siesta:    0.000000   18.980421    0.000000
siesta:    0.000000    0.000000    9.854683

siesta: System type = molecule  

initatomlists: Number of atoms, orbitals, and projectors:     29   297   394

siesta: ******************** Simulation parameters ****************************
siesta:
siesta: The following are some of the parameters of the simulation.
siesta: A complete list of the parameters used, including default values,
siesta: can be found in file out.fdf
siesta:
redata: Spin configuration                          = spin-orbit
redata: Number of spin components                   = 8
redata: Time-Reversal Symmetry                      = F
redata: Spin spiral                                 = F
############################################################
This spin-orbit implementation uses a local approximation.
From 4.2 and onwards the full non-local approximation is implemented
You are strongly advised to use >=4.2 versions!
############################################################
redata: Long output                                 =   F
redata: Number of Atomic Species                    =        4
redata: Charge density info will appear in .RHO file
redata: Write Mulliken Pop.                         = Atomic and Orbital charges
redata: Matel table size (NRTAB)                    =     1024
redata: Mesh Cutoff                                 =   340.0000 Ry
redata: Net charge of the system                    =     0.0000 |e|
redata: Min. number of SCF Iter                     =        1
redata: Max. number of SCF Iter                     =      200
redata: SCF mix quantity                            = Hamiltonian
redata: Mix DM or H after convergence               =   F
redata: Recompute H after scf cycle                 =   F
redata: Mix DM in first SCF step                    =   T
redata: Write Pulay info on disk                    =   F
redata: New DM Occupancy tolerance                  = 0.000000000001
redata: No kicks to SCF
redata: DM Mixing Weight for Kicks                  =     0.5000
redata: Require Harris convergence for SCF          =   F
redata: Harris energy tolerance for SCF             =     0.000100 eV
redata: Require DM convergence for SCF              =   T
redata: DM tolerance for SCF                        =     0.000008
redata: Require EDM convergence for SCF             =   F
redata: EDM tolerance for SCF                       =     0.001000 eV
redata: Require H convergence for SCF               =   T
redata: Hamiltonian tolerance for SCF               =     0.000001 eV
redata: Require (free) Energy convergence for SCF   =   F
redata: (free) Energy tolerance for SCF             =     0.000100 eV
redata: Using Saved Data (generic)                  =   F
redata: Use continuation files for DM               =   F
redata: Neglect nonoverlap interactions             =   F
redata: Method of Calculation                       = Diagonalization
redata: Electronic Temperature                      =   299.9978 K
redata: Fix the spin of the system                  =   F
redata: Dynamics option                             = Single-point calculation
mix.SCF: Pulay mixing                            = Pulay
mix.SCF:    Variant                              = stable
mix.SCF:    History steps                        = 6
mix.SCF:    Linear mixing weight                 =     0.250000
mix.SCF:    Mixing weight                        =     0.250000
mix.SCF:    SVD condition                        = 0.1000E-07
mix.SCF:    Restart steps                        = 24
mix.SCF:    Restart save steps                   = 3
mix.SCF: Spin-component mixing                   all
redata: Save all siesta data in one NC              =   F
redata: ***********************************************************************

%block SCF.Mixers
  Pulay
%endblock SCF.Mixers

%block SCF.Mixer.Pulay
  # Mixing method
  method pulay
  variant stable

  # Mixing options
  weight 0.2500
  weight.linear 0.2500
  history 6
  restart 24
  restart.save 3
%endblock SCF.Mixer.Pulay

DM_history_depth set to one: no extrapolation allowed by default for geometry relaxation
Size of DM history Fstack: 1
Total number of electrons:    98.000000
Total ionic charge:    98.000000

* ProcessorY, Blocksize:    2  24


* Orbital distribution balance (max,min):    81    72


Time-reversal symmetry not used.

siesta: k-grid: Number of k-points =     1
siesta: k-grid: Cutoff (effective) =     4.927 Ang
siesta: k-grid: Supercell and displacements
siesta: k-grid:    1   0   0      0.000
siesta: k-grid:    0   1   0      0.000
siesta: k-grid:    0   0   1      0.000

diag: Algorithm                                     = ELPA-1stage
diag: Parallel over k                               =   F
diag: Use parallel 2D distribution                  =   T
diag: Parallel block-size                           = 24
diag: Parallel distribution                         =     2 x     2
diag: Used triangular part                          = Lower
diag: Absolute tolerance                            =  0.100E-15
diag: Orthogonalization factor                      =  0.100E-05
diag: Memory factor                                 =  1.0000


ts: **************************************************************
ts: Save H and S matrices                           =    F
ts: Save DM and EDM matrices                        =    F
ts: Only save the overlap matrix S                  =    F
ts: **************************************************************

************************ Begin: TS CHECKS AND WARNINGS ************************
************************ End: TS CHECKS AND WARNINGS **************************


                     ====================================
                        Single-point calculation
                     ====================================

outcoor: Atomic coordinates (Ang):                          
    1.04362488    3.93922861    0.00000000   1       1  O
   -3.04064129    1.07107817    0.00000000   2       2  N
    2.05460145    1.21358207    0.00000000   2       3  N
    0.99901410   -1.73264380    0.00000000   2       4  N
   -2.13235164   -1.81296822    0.00000000   2       5  N
    3.86019055   -1.11229818    0.00000000   2       6  N
   -1.23618322    1.15296446    0.00000000   3       7  Si
   -0.53292426   -0.93900627    0.00000000   3       8  Si
    0.63566047    2.37451677    0.00000000   3       9  Si
    2.24517024   -0.54996710    0.00000000   3      10  Si
   -3.44981666   -0.58366503    0.00000000   3      11  Si
    2.96371409    1.79099263    0.00000000   4      12  H
   -4.84559135   -1.12354966    0.00000000   4      13  H
    4.00702091   -2.15230856    0.00000000   4      14  H
    4.77219438   -0.50231816    0.00000000   4      15  H
   -2.26539909   -2.86460511    0.00000000   4      16  H
    4.78288570    4.79281898    0.00000000   3      17  Si
    6.68776967    5.99945792    0.00000000   3      18  Si
    6.19201553    2.02648401    0.00000000   3      19  Si
    8.26948582    4.49570117    0.00000000   3      20  Si
    4.84250837    3.07539141    0.00000000   2      21  N
    3.24375064    5.54649629    0.00000000   2      22  N
    7.84431079    2.75632123    0.00000000   2      23  N
    6.87911447    7.49161167    0.00000000   4      24  H
    9.75385380    4.71443199    0.00000000   4      25  H
    3.13240536    6.59569140    0.00000000   4      26  H
    2.31119293    4.92158211    0.00000000   4      27  H
    6.18178870    0.41837289    0.00000000   1      28  O
    8.61973667    2.02962967    0.00000000   4      29  H

outcell: Unit cell vectors (Ang):
       23.647972    0.000000    0.000000
        0.000000   18.980421    0.000000
        0.000000    0.000000    9.854683

outcell: Cell vector modules (Ang)   :   23.647972   18.980421    9.854683
outcell: Cell angles (23,13,12) (deg):     90.0000     90.0000     90.0000
outcell: Cell volume (Ang**3)        :   4423.2596
<dSpData1D:S at geom step 0
  <sparsity:sparsity for geom step 0
    nrows_g=297 nrows=81 sparsity=.2315 nnzs=20419, refcount: 8>
  <dData1D:(new from dSpData1D) n=20419, refcount: 1>
refcount: 1>
new_DM -- step:     1
Initializing Density Matrix...
DM filled with atomic data:
<dSpData2D:DM initialized from atoms
  <sparsity:sparsity for geom step 0
    nrows_g=297 nrows=81 sparsity=.2315 nnzs=20419, refcount: 9>
  <dData2D:DM n=20419 m=8, refcount: 1>
refcount: 1>
     spin moment: S , {S} =   56.00000   0.00000   0.00000  56.00000
No. of atoms with KB's overlaping orbs in proc 0. Max # of overlaps:      29     206

Initializing spin-orbit part of the Hamiltonian
  Adding spin-orbit effects for O 
  Adding spin-orbit effects for N 
  Adding spin-orbit effects for Si
  Adding spin-orbit effects for H 


New grid distribution:   1
           1       1:  135    1:   54    1:   30
           2       1:  135    1:   54   31:   60
           3       1:  135   55:  108    1:   30
           4       1:  135   55:  108   31:   60

InitMesh: MESH =   270 x   216 x   120 =     6998400
InitMesh: (bp) =   135 x   108 x    60 =      874800
InitMesh: Mesh cutoff (required, used) =   340.000   357.929 Ry
ExtMesh (bp) on 0 =   239 x   158 x   142 =     5362204
New grid distribution:   2
           1      33:  135    1:   24    1:   60
           2       1:   32    1:   22    1:   60
           3      33:  135   25:  108    1:   60
           4       1:   32   23:  108    1:   60
New grid distribution:   3
           1      45:  135    1:   31    1:   60
           2       1:   44    1:   37    1:   60
           3      45:  135   32:  108    1:   60
           4       1:   44   38:  108    1:   60
Setting up quadratic distribution...
ExtMesh (bp) on 0 =   207 x   128 x   172 =     4557312
PhiOnMesh: Number of (b)points on node 0 =               148320
PhiOnMesh: nlist on node 0 =              2554639

stepf: Fermi-Dirac step function

siesta: Program's energy decomposition (eV):
siesta: Ebs     =      -613.943036
siesta: Eions   =      3585.165840
siesta: Ena     =       381.642191
siesta: Ekin    =      3362.489609
siesta: Enl     =     -3292.582348
siesta: Eso     =        -0.003447
siesta: Edftu   =         0.000000
siesta: DEna    =       154.619358
siesta: DUscf   =        77.799675
siesta: DUext   =         0.000000
siesta: Exc     =     -1203.341789
siesta: eta*DQ  =         0.000000
siesta: Emadel  =         0.000000
siesta: Emeta   =         0.000000
siesta: Emolmec =         0.000000
siesta: Ekinion =         0.000000
siesta: Eharris =     -4029.234446
siesta: Etot    =     -4104.542590
siesta: FreeEng =     -4104.544005

        iscf     Eharris(eV)        E_KS(eV)     FreeEng(eV)     dDmax    Ef(eV) dHmax(eV)
   scf:    1    -4029.234446    -4104.542590    -4104.544005  0.955186 -4.906540 19.918363
     spin moment: S , {S} =    2.00703  -0.00000  -0.00000   2.00703
timer: Routine,Calls,Time,% = IterSCF        1      11.624  16.29
   scf:    2    -4150.586758    -4138.722982    -4138.724827  0.467435 -4.196222 11.264010
     spin moment: S , {S} =    1.98885  -0.00000  -0.00000   1.98885
   scf:    3    -4112.100679    -4135.946826    -4135.968406  0.430869 -4.260730 11.391560
     spin moment: S , {S} =    2.00010  -0.00000  -0.00000   2.00010
   scf:    4    -4151.509040    -4146.635160    -4146.635160  0.305756 -3.888480  5.982279
     spin moment: S , {S} =    0.00009  -0.00000  -0.00000   0.00009
   scf:    5    -4147.807397    -4147.314155    -4147.314155  0.038052 -3.686517  4.359529
     spin moment: S , {S} =    0.00006   0.00000  -0.00000   0.00006
   scf:    6    -4148.091067    -4147.705767    -4147.705767  0.025456 -3.579670  2.112851
     spin moment: S , {S} =    0.00003   0.00000   0.00000   0.00003
   scf:    7    -4148.059916    -4147.883020    -4147.883020  0.021142 -3.709918  0.846699
     spin moment: S , {S} =    0.00001  -0.00000  -0.00000   0.00001
   scf:    8    -4147.999695    -4147.939932    -4147.939932  0.012198 -3.724523  0.458870
     spin moment: S , {S} =    0.00000  -0.00000   0.00000   0.00000
   scf:    9    -4147.979503    -4147.959115    -4147.959115  0.007090 -3.772458  0.303340
     spin moment: S , {S} =    0.00000  -0.00000   0.00000   0.00000
   scf:   10    -4148.005544    -4147.978938    -4147.978938  0.016409 -3.801238  0.139749
     spin moment: S , {S} =    0.00000  -0.00000  -0.00000  -0.00000
   scf:   11    -4147.982358    -4147.980552    -4147.980552  0.004900 -3.793787  0.051995
     spin moment: S , {S} =    0.00000  -0.00000   0.00000   0.00000
   scf:   12    -4147.981467    -4147.981003    -4147.981003  0.002158 -3.789904  0.032178
     spin moment: S , {S} =    0.00000  -0.00000   0.00000   0.00000
   scf:   13    -4147.981606    -4147.981287    -4147.981287  0.001986 -3.788754  0.025766
     spin moment: S , {S} =    0.00000   0.00000   0.00000   0.00000
   scf:   14    -4147.981810    -4147.981522    -4147.981522  0.002393 -3.787981  0.017610
     spin moment: S , {S} =    0.00000   0.00000   0.00000   0.00000
   scf:   15    -4147.981896    -4147.981676    -4147.981676  0.002671 -3.787432  0.009533
     spin moment: S , {S} =    0.00000   0.00000   0.00000   0.00000
   scf:   16    -4147.981786    -4147.981719    -4147.981719  0.001637 -3.787572  0.004453
     spin moment: S , {S} =    0.00000   0.00000   0.00000   0.00000
   scf:   17    -4147.981735    -4147.981725    -4147.981725  0.000596 -3.787786  0.002460
     spin moment: S , {S} =    0.00000   0.00000   0.00000   0.00000
   scf:   18    -4147.981730    -4147.981727    -4147.981727  0.000281 -3.787866  0.001206
     spin moment: S , {S} =    0.00000   0.00000   0.00000  -0.00000
   scf:   19    -4147.981729    -4147.981728    -4147.981728  0.000136 -3.787866  0.000653
     spin moment: S , {S} =    0.00000   0.00000   0.00000  -0.00000
   scf:   20    -4147.981728    -4147.981728    -4147.981728  0.000053 -3.787814  0.000417
     spin moment: S , {S} =    0.00000   0.00000   0.00000  -0.00000
   scf:   21    -4147.981728    -4147.981728    -4147.981728  0.000079 -3.787766  0.000219
     spin moment: S , {S} =    0.00000   0.00000   0.00000  -0.00000
   scf:   22    -4147.981728    -4147.981728    -4147.981728  0.000017 -3.787744  0.000086
     spin moment: S , {S} =    0.00000   0.00000   0.00000  -0.00000
   scf:   23    -4147.981728    -4147.981728    -4147.981728  0.000006 -3.787742  0.000046
     spin moment: S , {S} =    0.00000   0.00000   0.00000  -0.00000
   scf:   24    -4147.981728    -4147.981728    -4147.981728  0.000005 -3.787738  0.000023
     spin moment: S , {S} =    0.00000   0.00000   0.00000  -0.00000
mix: Pulay -- resetting history
   scf:   25    -4147.981728    -4147.981728    -4147.981728  0.000002 -3.787736  0.000009
     spin moment: S , {S} =    0.00000   0.00000   0.00000   0.00000
   scf:   26    -4147.981728    -4147.981728    -4147.981728  0.000001 -3.787736  0.000006
     spin moment: S , {S} =    0.00000   0.00000   0.00000   0.00000
   scf:   27    -4147.981728    -4147.981728    -4147.981728  0.000001 -3.787736  0.000004
     spin moment: S , {S} =    0.00000   0.00000   0.00000   0.00000
   scf:   28    -4147.981728    -4147.981728    -4147.981728  0.000000 -3.787736  0.000003
     spin moment: S , {S} =    0.00000   0.00000   0.00000   0.00000
   scf:   29    -4147.981728    -4147.981728    -4147.981728  0.000000 -3.787736  0.000002
     spin moment: S , {S} =    0.00000   0.00000   0.00000   0.00000
   scf:   30    -4147.981728    -4147.981728    -4147.981728  0.000000 -3.787736  0.000001
     spin moment: S , {S} =    0.00000   0.00000   0.00000   0.00000

SCF Convergence by DM+H criterion
max |DM_out - DM_in|         :     0.0000003061
max |H_out - H_in|      (eV) :     0.0000009155
SCF cycle converged after 30 iterations

Using DM_out to compute the final energy and forces
No. of atoms with KB's overlaping orbs in proc 0. Max # of overlaps:      29     206

siesta: E_KS(eV) =            -4147.9817

siesta: E_KS - E_eggbox =     -4147.9817
     spin moment: S , {S} =    0.00000   0.00000   0.00000   0.00000

siesta: Atomic forces (eV/Ang):
     1    1.376737    2.254971    0.000000
     2   -0.030166    0.032625   -0.000000
     3    0.125467   -0.022682   -0.000000
     4    0.084876    0.013518   -0.000000
     5   -0.003768    0.013084   -0.000000
     6    0.363031    0.197182    0.000000
     7    0.006642   -0.026887   -0.000000
     8   -0.044680    0.032518    0.000000
     9    0.002852    0.156456   -0.000000
    10   -0.097670    0.058582    0.000000
    11   -0.005199   -0.002200    0.000000
    12    0.087743   -0.118151    0.000000
    13    0.062021   -0.033136    0.000000
    14    0.053023   -0.130025   -0.000000
    15   -0.148500   -0.082234   -0.000000
    16   -0.054913    0.106522   -0.000000
    17    0.087983   -0.149625   -0.000000
    18   -0.028473    0.023692    0.000000
    19   -0.047234   -0.123021   -0.000000
    20   -0.008059   -0.052011    0.000000
    21   -0.047987    0.098685    0.000000
    22   -0.454604   -0.218470    0.000000
    23    0.000017    0.035756    0.000000
    24    0.093739   -0.092784   -0.000000
    25    0.059401   -0.034347   -0.000000
    26    0.068293   -0.132599    0.000000
    27    0.137606    0.187996   -0.000000
    28    1.464353    4.197190   -0.000000
    29   -0.056147    0.105713   -0.000000
----------------------------------------
   Tot    3.046385    6.296317    0.000000
----------------------------------------
   Max    4.197190
   Res    0.562227    sqrt( Sum f_i^2 / 3N )
----------------------------------------
   Max    4.197190    constrained

Stress tensor Voigt[x,y,z,yz,xz,xy] (kbar):       -0.15        1.09       -0.10       -0.00        0.00        0.53
(Free)E + p*V (eV/cell)    -4148.7568
Target enthalpy (eV/cell)    -4147.9817

mulliken: Atomic and Orbital Populations:

Species: O                   

Atom      Orb        Charge      Spin       Svec
----------------------------------------------------------------
    1  1 2s         1.73502   0.00000      0.000  -0.000  -0.000
    1  2 2s         0.06107   0.00000     -0.000  -0.000   0.000
    1  3 2py        1.37930   0.00000     -0.000  -0.000  -0.000
    1  4 2pz        1.61622   0.00000      0.000   0.000  -0.000
    1  5 2px        1.63565   0.00000      0.000   0.000  -0.000
    1  6 2py        0.07335   0.00000      0.000   0.000   0.000
    1  7 2pz       -0.01726   0.00000     -0.000  -0.000   0.000
    1  8 2px        0.00056   0.00000     -0.000  -0.000   0.000
    1  9 3Pdxy      0.00861   0.00000      0.000   0.000  -0.000
    1 10 3Pdyz      0.00741   0.00000     -0.000   0.000   0.000
    1 11 3Pdz2      0.00201   0.00000     -0.000   0.000   0.000
    1 12 3Pdxz      0.00009   0.00000      0.000  -0.000  -0.000
    1 13 3Pdx2-y2   0.00573   0.00000      0.000   0.000   0.000
    1     Total     6.50776   0.00000      0.000   0.000  -0.000

   28  1 2s         1.74884   0.00000     -0.000   0.000  -0.000
   28  2 2s         0.05606   0.00000      0.000  -0.000   0.000
   28  3 2py        1.36827   0.00000      0.000   0.000  -0.000
   28  4 2pz        1.60365   0.00000      0.000  -0.000  -0.000
   28  5 2px        1.65978   0.00000     -0.000  -0.000  -0.000
   28  6 2py        0.06938   0.00000      0.000   0.000  -0.000
   28  7 2pz       -0.01522   0.00000     -0.000   0.000   0.000
   28  8 2px       -0.00243   0.00000     -0.000   0.000   0.000
   28  9 3Pdxy      0.00813   0.00000      0.000  -0.000  -0.000
   28 10 3Pdyz      0.00860   0.00000     -0.000  -0.000   0.000
   28 11 3Pdz2      0.00169   0.00000      0.000   0.000   0.000
   28 12 3Pdxz     -0.00009   0.00000     -0.000  -0.000   0.000
   28 13 3Pdx2-y2   0.00731   0.00000     -0.000   0.000  -0.000
   28     Total     6.51397   0.00000      0.000   0.000  -0.000

----------------------------------------------------------------
Total              13.02172   0.00000      0.000   0.000  -0.000


Species: N                   

Atom      Orb        Charge      Spin       Svec
----------------------------------------------------------------
    2  1 2s         1.54835   0.00000      0.000  -0.000   0.000
    2  2 2s         0.08507   0.00000     -0.000   0.000   0.000
    2  3 2py        1.04341   0.00000      0.000  -0.000   0.000
    2  4 2pz        1.22486   0.00000     -0.000  -0.000   0.000
    2  5 2px        0.99325   0.00000      0.000   0.000   0.000
    2  6 2py        0.18813   0.00000     -0.000   0.000  -0.000
    2  7 2pz        0.05523   0.00000     -0.000   0.000  -0.000
    2  8 2px        0.19558   0.00000     -0.000  -0.000  -0.000
    2  9 3Pdxy      0.00834   0.00000      0.000   0.000   0.000
    2 10 3Pdyz      0.01094   0.00000     -0.000   0.000  -0.000
    2 11 3Pdz2      0.00190   0.00000     -0.000   0.000  -0.000
    2 12 3Pdxz      0.00757   0.00000      0.000   0.000  -0.000
    2 13 3Pdx2-y2   0.00907   0.00000      0.000  -0.000   0.000
    2     Total     5.37170   0.00000      0.000  -0.000   0.000

    3  1 2s         1.38371   0.00000      0.000   0.000  -0.000
    3  2 2s         0.12352   0.00000     -0.000   0.000   0.000
    3  3 2py        0.93570   0.00000     -0.000  -0.000  -0.000
    3  4 2pz        1.53859   0.00000      0.000  -0.000  -0.000
    3  5 2px        1.07637   0.00000      0.000   0.000  -0.000
    3  6 2py        0.25467   0.00000      0.000   0.000   0.000
    3  7 2pz        0.00542   0.00000     -0.000  -0.000   0.000
    3  8 2px        0.18558   0.00000     -0.000  -0.000   0.000
    3  9 3Pdxy      0.00406   0.00000     -0.000   0.000  -0.000
    3 10 3Pdyz      0.00392   0.00000     -0.000   0.000   0.000
    3 11 3Pdz2      0.00053   0.00000     -0.000   0.000  -0.000
    3 12 3Pdxz      0.00274   0.00000     -0.000  -0.000   0.000
    3 13 3Pdx2-y2   0.00248   0.00000     -0.000   0.000  -0.000
    3     Total     5.51728   0.00000      0.000  -0.000  -0.000

    4  1 2s         1.46170   0.00000     -0.000   0.000  -0.000
    4  2 2s         0.11916   0.00000      0.000  -0.000   0.000
    4  3 2py        1.12630   0.00000      0.000   0.000  -0.000
    4  4 2pz        1.29124   0.00000      0.000  -0.000  -0.000
    4  5 2px        0.82690   0.00000     -0.000  -0.000  -0.000
    4  6 2py        0.15102   0.00000     -0.000  -0.000   0.000
    4  7 2pz        0.05317   0.00000      0.000   0.000   0.000
    4  8 2px        0.29265   0.00000     -0.000   0.000   0.000
    4  9 3Pdxy      0.00871   0.00000     -0.000  -0.000  -0.000
    4 10 3Pdyz      0.01047   0.00000     -0.000   0.000   0.000
    4 11 3Pdz2      0.00126   0.00000      0.000  -0.000  -0.000
    4 12 3Pdxz      0.00477   0.00000     -0.000   0.000  -0.000
    4 13 3Pdx2-y2   0.00795   0.00000      0.000  -0.000   0.000
    4     Total     5.35531   0.00000      0.000   0.000  -0.000

    5  1 2s         1.37544   0.00000      0.000  -0.000   0.000
    5  2 2s         0.12843   0.00000     -0.000   0.000   0.000
    5  3 2py        1.02635   0.00000     -0.000   0.000   0.000
    5  4 2pz        1.50136   0.00000     -0.000  -0.000   0.000
    5  5 2px        1.05970   0.00000     -0.000  -0.000   0.000
    5  6 2py        0.20363   0.00000      0.000  -0.000  -0.000
    5  7 2pz        0.01329   0.00000      0.000   0.000  -0.000
    5  8 2px        0.20166   0.00000     -0.000   0.000  -0.000
    5  9 3Pdxy      0.00387   0.00000      0.000  -0.000  -0.000
    5 10 3Pdyz      0.00246   0.00000      0.000   0.000  -0.000
    5 11 3Pdz2      0.00143   0.00000      0.000   0.000  -0.000
    5 12 3Pdxz      0.00656   0.00000      0.000  -0.000  -0.000
    5 13 3Pdx2-y2   0.00563   0.00000      0.000   0.000  -0.000
    5     Total     5.52981   0.00000     -0.000  -0.000   0.000

    6  1 2s         1.26480   0.00000     -0.000   0.000  -0.000
    6  2 2s         0.18173   0.00000      0.000  -0.000   0.000
    6  3 2py        1.06343   0.00000     -0.000   0.000  -0.000
    6  4 2pz        1.51692   0.00000     -0.000  -0.000  -0.000
    6  5 2px        0.97559   0.00000      0.000  -0.000  -0.000
    6  6 2py        0.19725   0.00000      0.000  -0.000   0.000
    6  7 2pz        0.03457   0.00000      0.000   0.000   0.000
    6  8 2px        0.25731   0.00000      0.000   0.000   0.000
    6  9 3Pdxy      0.00222   0.00000     -0.000   0.000   0.000
    6 10 3Pdyz      0.00004   0.00000      0.000   0.000  -0.000
    6 11 3Pdz2      0.00159   0.00000      0.000   0.000   0.000
    6 12 3Pdxz      0.00391   0.00000      0.000   0.000   0.000
    6 13 3Pdx2-y2   0.00440   0.00000      0.000   0.000   0.000
    6     Total     5.50376   0.00000     -0.000   0.000  -0.000

   21  1 2s         1.41610   0.00000      0.000  -0.000   0.000
   21  2 2s         0.12808   0.00000     -0.000   0.000  -0.000
   21  3 2py        0.88556   0.00000      0.000   0.000  -0.000
   21  4 2pz        1.32513   0.00000      0.000   0.000  -0.000
   21  5 2px        1.17011   0.00000     -0.000   0.000  -0.000
   21  6 2py        0.27250   0.00000     -0.000  -0.000   0.000
   21  7 2pz        0.04238   0.00000     -0.000   0.000   0.000
   21  8 2px        0.15580   0.00000      0.000  -0.000   0.000
   21  9 3Pdxy      0.00639   0.00000      0.000  -0.000   0.000
   21 10 3Pdyz      0.00451   0.00000      0.000   0.000   0.000
   21 11 3Pdz2      0.00001   0.00000      0.000   0.000   0.000
   21 12 3Pdxz      0.00572   0.00000     -0.000   0.000   0.000
   21 13 3Pdx2-y2   0.00568   0.00000     -0.000   0.000   0.000
   21     Total     5.41795   0.00000      0.000   0.000  -0.000

   22  1 2s         1.28891   0.00000      0.000  -0.000   0.000
   22  2 2s         0.17199   0.00000     -0.000   0.000  -0.000
   22  3 2py        1.05281   0.00000      0.000  -0.000  -0.000
   22  4 2pz        1.47844   0.00000      0.000  -0.000  -0.000
   22  5 2px        1.02057   0.00000      0.000  -0.000  -0.000
   22  6 2py        0.20216   0.00000     -0.000   0.000   0.000
   22  7 2pz        0.03363   0.00000      0.000   0.000   0.000
   22  8 2px        0.23258   0.00000     -0.000   0.000   0.000
   22  9 3Pdxy      0.00339   0.00000      0.000  -0.000  -0.000
   22 10 3Pdyz      0.00019   0.00000     -0.000  -0.000  -0.000
   22 11 3Pdz2      0.00230   0.00000     -0.000   0.000  -0.000
   22 12 3Pdxz      0.00414   0.00000     -0.000   0.000   0.000
   22 13 3Pdx2-y2   0.00493   0.00000     -0.000   0.000  -0.000
   22     Total     5.49604   0.00000      0.000  -0.000  -0.000

   23  1 2s         1.37501   0.00000      0.000   0.000   0.000
   23  2 2s         0.12880   0.00000     -0.000  -0.000   0.000
   23  3 2py        1.00903   0.00000     -0.000   0.000  -0.000
   23  4 2pz        1.53749   0.00000     -0.000   0.000  -0.000
   23  5 2px        1.05168   0.00000     -0.000  -0.000  -0.000
   23  6 2py        0.21359   0.00000      0.000  -0.000   0.000
   23  7 2pz        0.00422   0.00000      0.000  -0.000   0.000
   23  8 2px        0.20215   0.00000      0.000   0.000   0.000
   23  9 3Pdxy      0.00541   0.00000      0.000  -0.000  -0.000
   23 10 3Pdyz      0.00454   0.00000      0.000   0.000   0.000
   23 11 3Pdz2      0.00079   0.00000      0.000   0.000  -0.000
   23 12 3Pdxz      0.00243   0.00000     -0.000  -0.000  -0.000
   23 13 3Pdx2-y2   0.00144   0.00000     -0.000  -0.000  -0.000
   23     Total     5.53660   0.00000     -0.000   0.000  -0.000

----------------------------------------------------------------
Total              56.75017   0.00000      0.000   0.000   0.000


Species: Si                  

Atom      Orb        Charge      Spin       Svec
----------------------------------------------------------------
    7  1 3s         0.66265   0.00000      0.000  -0.000  -0.000
    7  2 3s         0.36703   0.00000     -0.000   0.000  -0.000
    7  3 3py        0.46551   0.00000      0.000   0.000   0.000
    7  4 3pz        0.69964   0.00000     -0.000  -0.000  -0.000
    7  5 3px        0.12047   0.00000      0.000  -0.000  -0.000
    7  6 3py        0.27802   0.00000     -0.000  -0.000  -0.000
    7  7 3pz        0.26142   0.00000      0.000   0.000  -0.000
    7  8 3px        0.44028   0.00000     -0.000  -0.000  -0.000
    7  9 3Pdxy      0.24605   0.00000     -0.000   0.000  -0.000
    7 10 3Pdyz      0.02842   0.00000     -0.000  -0.000  -0.000
    7 11 3Pdz2      0.01129   0.00000     -0.000  -0.000  -0.000
    7 12 3Pdxz      0.14684   0.00000     -0.000   0.000   0.000
    7 13 3Pdx2-y2   0.11382   0.00000      0.000   0.000  -0.000
    7     Total     3.84144   0.00000     -0.000  -0.000  -0.000

    8  1 3s         0.65386   0.00000      0.000   0.000   0.000
    8  2 3s         0.36914   0.00000     -0.000  -0.000  -0.000
    8  3 3py        0.39327   0.00000      0.000   0.000  -0.000
    8  4 3pz        0.50256   0.00000     -0.000   0.000  -0.000
    8  5 3px       -0.02254   0.00000      0.000   0.000  -0.000
    8  6 3py        0.30613   0.00000      0.000  -0.000   0.000
    8  7 3pz        0.20556   0.00000      0.000   0.000  -0.000
    8  8 3px        0.51444   0.00000     -0.000  -0.000   0.000
    8  9 3Pdxy      0.24904   0.00000      0.000  -0.000   0.000
    8 10 3Pdyz      0.11200   0.00000      0.000   0.000  -0.000
    8 11 3Pdz2      0.01361   0.00000     -0.000   0.000  -0.000
    8 12 3Pdxz      0.15702   0.00000      0.000  -0.000  -0.000
    8 13 3Pdx2-y2   0.20306   0.00000      0.000   0.000  -0.000
    8     Total     3.65716   0.00000      0.000   0.000  -0.000

    9  1 3s         0.59992   0.00000      0.000   0.000   0.000
    9  2 3s         0.36998   0.00000     -0.000   0.000   0.000
    9  3 3py        0.11215   0.00000     -0.000  -0.000   0.000
    9  4 3pz        0.47494   0.00000     -0.000   0.000   0.000
    9  5 3px        0.34863   0.00000     -0.000   0.000   0.000
    9  6 3py        0.40435   0.00000      0.000  -0.000   0.000
    9  7 3pz        0.19061   0.00000      0.000  -0.000   0.000
    9  8 3px        0.28931   0.00000      0.000   0.000  -0.000
    9  9 3Pdxy      0.27908   0.00000      0.000   0.000   0.000
    9 10 3Pdyz      0.18746   0.00000      0.000  -0.000   0.000
    9 11 3Pdz2      0.01087   0.00000      0.000  -0.000   0.000
    9 12 3Pdxz      0.10768   0.00000      0.000  -0.000   0.000
    9 13 3Pdx2-y2   0.17943   0.00000     -0.000   0.000  -0.000
    9     Total     3.55441   0.00000     -0.000   0.000   0.000

   10  1 3s         0.48435   0.00000      0.000   0.000   0.000
   10  2 3s         0.37701   0.00000     -0.000   0.000   0.000
   10  3 3py        0.23765   0.00000     -0.000  -0.000   0.000
   10  4 3pz        0.41722   0.00000     -0.000  -0.000   0.000
   10  5 3px        0.10224   0.00000     -0.000   0.000   0.000
   10  6 3py        0.32471   0.00000     -0.000  -0.000  -0.000
   10  7 3pz        0.21816   0.00000      0.000   0.000   0.000
   10  8 3px        0.43926   0.00000      0.000  -0.000   0.000
   10  9 3Pdxy      0.17685   0.00000     -0.000  -0.000   0.000
   10 10 3Pdyz      0.13213   0.00000      0.000   0.000   0.000
   10 11 3Pdz2      0.00963   0.00000      0.000  -0.000   0.000
   10 12 3Pdxz      0.18199   0.00000     -0.000  -0.000   0.000
   10 13 3Pdx2-y2   0.30837   0.00000      0.000   0.000   0.000
   10     Total     3.40956   0.00000     -0.000   0.000   0.000

   11  1 3s         0.55361   0.00000      0.000  -0.000  -0.000
   11  2 3s         0.38513   0.00000     -0.000   0.000  -0.000
   11  3 3py        0.32396   0.00000     -0.000  -0.000  -0.000
   11  4 3pz        0.53886   0.00000     -0.000   0.000  -0.000
   11  5 3px        0.12627   0.00000     -0.000  -0.000  -0.000
   11  6 3py        0.28626   0.00000     -0.000  -0.000  -0.000
   11  7 3pz        0.17740   0.00000      0.000   0.000  -0.000
   11  8 3px        0.44584   0.00000     -0.000   0.000   0.000
   11  9 3Pdxy      0.22601   0.00000      0.000   0.000  -0.000
   11 10 3Pdyz      0.12696   0.00000      0.000   0.000  -0.000
   11 11 3Pdz2      0.00960   0.00000      0.000   0.000   0.000
   11 12 3Pdxz      0.05307   0.00000     -0.000  -0.000  -0.000
   11 13 3Pdx2-y2   0.20461   0.00000     -0.000  -0.000  -0.000
   11     Total     3.45757   0.00000     -0.000  -0.000  -0.000

   17  1 3s         0.63461   0.00000      0.000   0.000   0.000
   17  2 3s         0.36102   0.00000     -0.000   0.000  -0.000
   17  3 3py        0.21528   0.00000      0.000   0.000   0.000
   17  4 3pz        0.42348   0.00000     -0.000  -0.000   0.000
   17  5 3px        0.23894   0.00000      0.000   0.000  -0.000
   17  6 3py        0.38022   0.00000     -0.000  -0.000  -0.000
   17  7 3pz        0.21333   0.00000      0.000   0.000   0.000
   17  8 3px        0.38294   0.00000     -0.000  -0.000   0.000
   17  9 3Pdxy      0.28564   0.00000     -0.000   0.000  -0.000
   17 10 3Pdyz      0.13859   0.00000     -0.000   0.000  -0.000
   17 11 3Pdz2      0.00808   0.00000      0.000   0.000  -0.000
   17 12 3Pdxz      0.14476   0.00000     -0.000  -0.000  -0.000
   17 13 3Pdx2-y2   0.17343   0.00000      0.000   0.000  -0.000
   17     Total     3.60033   0.00000      0.000   0.000  -0.000

   18  1 3s         0.74232   0.00000     -0.000  -0.000  -0.000
   18  2 3s         0.34303   0.00000      0.000   0.000   0.000
   18  3 3py        0.06380   0.00000      0.000  -0.000  -0.000
   18  4 3pz        0.80083   0.00000     -0.000  -0.000  -0.000
   18  5 3px        0.55900   0.00000     -0.000   0.000  -0.000
   18  6 3py        0.52782   0.00000     -0.000   0.000   0.000
   18  7 3pz        0.19726   0.00000     -0.000  -0.000  -0.000
   18  8 3px        0.25202   0.00000      0.000  -0.000   0.000
   18  9 3Pdxy      0.10188   0.00000      0.000  -0.000  -0.000
   18 10 3Pdyz      0.02783   0.00000      0.000   0.000   0.000
   18 11 3Pdz2      0.00826   0.00000     -0.000   0.000  -0.000
   18 12 3Pdxz      0.03257   0.00000     -0.000   0.000   0.000
   18 13 3Pdx2-y2   0.10861   0.00000     -0.000  -0.000  -0.000
   18     Total     3.76522   0.00000     -0.000   0.000  -0.000

   19  1 3s         0.46098   0.00000     -0.000  -0.000   0.000
   19  2 3s         0.36402   0.00000     -0.000   0.000  -0.000
   19  3 3py        0.07962   0.00000     -0.000  -0.000   0.000
   19  4 3pz        0.40789   0.00000     -0.000  -0.000   0.000
   19  5 3px        0.27617   0.00000     -0.000  -0.000   0.000
   19  6 3py        0.45563   0.00000      0.000  -0.000  -0.000
   19  7 3pz        0.19096   0.00000      0.000  -0.000   0.000
   19  8 3px        0.28713   0.00000      0.000   0.000  -0.000
   19  9 3Pdxy      0.31708   0.00000      0.000   0.000   0.000
   19 10 3Pdyz      0.18550   0.00000     -0.000   0.000   0.000
   19 11 3Pdz2      0.01160   0.00000      0.000   0.000   0.000
   19 12 3Pdxz      0.09953   0.00000      0.000   0.000   0.000
   19 13 3Pdx2-y2   0.24117   0.00000      0.000   0.000   0.000
   19     Total     3.37728   0.00000     -0.000  -0.000   0.000

   20  1 3s         0.67730   0.00000     -0.000  -0.000   0.000
   20  2 3s         0.37615   0.00000      0.000   0.000   0.000
   20  3 3py        0.33419   0.00000     -0.000  -0.000  -0.000
   20  4 3pz        0.61020   0.00000      0.000  -0.000   0.000
   20  5 3px        0.14230   0.00000      0.000  -0.000   0.000
   20  6 3py        0.28571   0.00000      0.000  -0.000   0.000
   20  7 3pz        0.16231   0.00000     -0.000   0.000   0.000
   20  8 3px        0.49876   0.00000     -0.000  -0.000  -0.000
   20  9 3Pdxy      0.09908   0.00000     -0.000   0.000  -0.000
   20 10 3Pdyz      0.12976   0.00000      0.000   0.000   0.000
   20 11 3Pdz2      0.00776   0.00000     -0.000  -0.000  -0.000
   20 12 3Pdxz      0.02644   0.00000      0.000   0.000  -0.000
   20 13 3Pdx2-y2   0.17651   0.00000      0.000   0.000  -0.000
   20     Total     3.52646   0.00000     -0.000  -0.000   0.000

----------------------------------------------------------------
Total              88.93958   0.00000     -0.000   0.000  -0.000


Species: H                   

Atom      Orb        Charge      Spin       Svec
----------------------------------------------------------------
   12  1 1s         0.48039   0.00000      0.000  -0.000   0.000
   12  2 1s         0.17986   0.00000      0.000  -0.000   0.000
   12  3 2Ppy       0.03870   0.00000     -0.000   0.000   0.000
   12  4 2Ppz       0.03093   0.00000      0.000  -0.000  -0.000
   12  5 2Ppx       0.04517   0.00000      0.000  -0.000   0.000
   12     Total     0.77503   0.00000      0.000  -0.000   0.000

   13  1 1s         1.02019   0.00000      0.000  -0.000   0.000
   13  2 1s         0.09534   0.00000     -0.000   0.000   0.000
   13  3 2Ppy       0.01805   0.00000     -0.000  -0.000   0.000
   13  4 2Ppz       0.02005   0.00000      0.000  -0.000  -0.000
   13  5 2Ppx       0.03505   0.00000     -0.000   0.000   0.000
   13     Total     1.18868   0.00000      0.000  -0.000   0.000

   14  1 1s         0.48478   0.00000      0.000  -0.000  -0.000
   14  2 1s         0.19619   0.00000      0.000   0.000   0.000
   14  3 2Ppy       0.02010   0.00000      0.000   0.000  -0.000
   14  4 2Ppz       0.04765   0.00000     -0.000   0.000  -0.000
   14  5 2Ppx       0.02023   0.00000     -0.000  -0.000  -0.000
   14     Total     0.76895   0.00000     -0.000   0.000   0.000

   15  1 1s         0.45091   0.00000      0.000   0.000   0.000
   15  2 1s         0.17550   0.00000     -0.000  -0.000   0.000
   15  3 2Ppy       0.03594   0.00000     -0.000   0.000   0.000
   15  4 2Ppz       0.04296   0.00000     -0.000  -0.000  -0.000
   15  5 2Ppx       0.08496   0.00000      0.000  -0.000  -0.000
   15     Total     0.79027   0.00000      0.000  -0.000   0.000

   16  1 1s         0.50809   0.00000     -0.000  -0.000  -0.000
   16  2 1s         0.18751   0.00000      0.000   0.000   0.000
   16  3 2Ppy       0.02976   0.00000     -0.000   0.000  -0.000
   16  4 2Ppz       0.03941   0.00000      0.000   0.000  -0.000
   16  5 2Ppx       0.02343   0.00000     -0.000   0.000   0.000
   16     Total     0.78821   0.00000      0.000   0.000  -0.000

   24  1 1s         1.06213   0.00000      0.000   0.000   0.000
   24  2 1s         0.07378   0.00000     -0.000   0.000   0.000
   24  3 2Ppy       0.03251   0.00000     -0.000  -0.000  -0.000
   24  4 2Ppz       0.02995   0.00000      0.000  -0.000  -0.000
   24  5 2Ppx       0.01747   0.00000      0.000  -0.000   0.000
   24     Total     1.21583   0.00000      0.000   0.000   0.000

   25  1 1s         1.04246   0.00000     -0.000   0.000  -0.000
   25  2 1s         0.08659   0.00000      0.000  -0.000   0.000
   25  3 2Ppy       0.01221   0.00000     -0.000  -0.000  -0.000
   25  4 2Ppz       0.01908   0.00000     -0.000  -0.000   0.000
   25  5 2Ppx       0.03560   0.00000      0.000   0.000   0.000
   25     Total     1.19593   0.00000     -0.000   0.000  -0.000

   26  1 1s         0.49403   0.00000     -0.000   0.000   0.000
   26  2 1s         0.19346   0.00000      0.000  -0.000   0.000
   26  3 2Ppy       0.02381   0.00000      0.000  -0.000  -0.000
   26  4 2Ppz       0.04824   0.00000     -0.000  -0.000   0.000
   26  5 2Ppx       0.01955   0.00000     -0.000  -0.000  -0.000
   26     Total     0.77909   0.00000     -0.000  -0.000   0.000

   27  1 1s         0.44545   0.00000      0.000  -0.000   0.000
   27  2 1s         0.17031   0.00000      0.000   0.000   0.000
   27  3 2Ppy       0.04736   0.00000     -0.000   0.000   0.000
   27  4 2Ppz       0.04119   0.00000      0.000  -0.000   0.000
   27  5 2Ppx       0.08987   0.00000     -0.000  -0.000  -0.000
   27     Total     0.79418   0.00000      0.000  -0.000   0.000

   29  1 1s         0.49004   0.00000      0.000  -0.000   0.000
   29  2 1s         0.18735   0.00000      0.000  -0.000   0.000
   29  3 2Ppy       0.02495   0.00000      0.000  -0.000   0.000
   29  4 2Ppz       0.03511   0.00000     -0.000  -0.000   0.000
   29  5 2Ppx       0.02679   0.00000      0.000   0.000   0.000
   29     Total     0.76424   0.00000      0.000  -0.000   0.000

----------------------------------------------------------------
Total              98.00000   0.00000      0.000   0.000   0.000


siesta: Eigenvalues (eV):
ik =     1
  -22.7217  -22.7217  -22.3033  -22.3033  -21.3983  -21.3983  -21.2308  -21.2308  -20.9894  -20.9894
  -20.7892  -20.7892  -20.3015  -20.3015  -19.6230  -19.6230  -19.5226  -19.5226  -19.3600  -19.3600
  -14.7985  -14.7985  -13.7898  -13.7898  -13.2686  -13.2686  -13.1086  -13.1086  -12.9307  -12.9307
  -12.6587  -12.6587  -12.5659  -12.5659  -12.1254  -12.1254  -11.8261  -11.8261  -11.6870  -11.6870
  -11.0341  -11.0341  -10.8468  -10.8468  -10.5962  -10.5962  -10.4070  -10.4070  -10.2009  -10.2009
   -9.6768   -9.6768   -9.0806   -9.0806   -8.9728   -8.9728   -8.8281   -8.8281   -8.6479   -8.6479
   -8.5161   -8.5161   -8.4151   -8.4151   -8.3591   -8.3591   -7.9786   -7.9786   -7.8842   -7.8842
   -7.6092   -7.6092   -7.3696   -7.3696   -7.2343   -7.2343   -7.1037   -7.1037   -6.9066   -6.9066
   -6.6567   -6.6567   -6.6078   -6.6078   -6.4038   -6.4038   -6.3449   -6.3449   -6.3025   -6.3025
   -6.1146   -6.1146   -5.9657   -5.9657   -5.5787   -5.5787   -4.3156   -4.3156   -3.2601   -3.2601
   -2.3614   -2.3614   -2.3596   -2.3596   -2.1856   -2.1856   -1.8874   -1.8874   -1.8664   -1.8664
   -1.8547   -1.8547   -1.6494   -1.6494   -1.6187   -1.6187   -1.2508   -1.2508   -1.1608   -1.1608
   -1.0184   -1.0184   -0.5624   -0.5624   -0.4729   -0.4729   -0.3018   -0.3018    0.3536    0.3536
    0.4722    0.4722    0.5079    0.5079    0.6484    0.6484    0.9567    0.9567    1.1061    1.1061
    1.3786    1.3786    1.3950    1.3950    1.4393    1.4393    1.5363    1.5363    1.9697    1.9697
    2.0953    2.0953    2.6584    2.6584    2.7275    2.7275    2.7420    2.7420    2.8594    2.8594
    2.9078    2.9078    3.0299    3.0299    3.2327    3.2327    3.4309    3.4309    3.6183    3.6183
    3.7761    3.7761    4.0121    4.0121    4.1210    4.1210    4.1904    4.1904    4.3427    4.3427
    4.5571    4.5571    4.5727    4.5727    4.7455    4.7455    5.0576    5.0576    5.1358    5.1358
    5.3190    5.3190    5.3975    5.3975    5.6644    5.6644    5.6738    5.6738    5.8983    5.8983
    5.9627    5.9627    6.3141    6.3141    6.4124    6.4124    6.5170    6.5170    6.5321    6.5321
    6.7446    6.7446    6.7776    6.7776    6.9234    6.9234    7.0797    7.0797    7.0911    7.0911
    7.2716    7.2716    7.6677    7.6677    7.7128    7.7128    7.9747    7.9747    8.0214    8.0214
    8.1192    8.1192    8.3563    8.3563    8.4790    8.4790    8.4846    8.4846    8.6974    8.6974
    8.7853    8.7853    8.7991    8.7991    9.0551    9.0551    9.0843    9.0843    9.4301    9.4301
    9.5209    9.5209    9.8630    9.8630    9.9540    9.9540    9.9818    9.9818   10.0679   10.0679
   10.2864   10.2864   10.5807   10.5807   10.7778   10.7778   11.1868   11.1868   11.3027   11.3027
   11.3323   11.3323   11.6769   11.6769   12.2648   12.2648   12.3644   12.3644   12.3772   12.3772
   12.5033   12.5033   12.5904   12.5904   12.7292   12.7292   12.7964   12.7964   13.2329   13.2329
   13.5850   13.5850   13.5888   13.5888   13.7241   13.7241   13.8530   13.8530   14.0350   14.0350
   14.2048   14.2048   14.4460   14.4460   14.7775   14.7775   14.8551   14.8551   15.0705   15.0705
   15.3816   15.3816   16.0836   16.0836   16.5032   16.5032   16.6351   16.6351   16.8354   16.8354
   17.2567   17.2567   17.6922   17.6922   18.1051   18.1051   18.5634   18.5634   18.9806   18.9806
   19.2149   19.2149   20.1107   20.1107   20.2098   20.2098   20.5420   20.5420   20.6568   20.6568
   21.1956   21.1956   21.9796   21.9796   22.2235   22.2235   22.6722   22.6722   23.4787   23.4787
   23.7481   23.7481   23.9144   23.9144   24.1856   24.1856   24.6345   24.6345   25.1922   25.1922
   25.7590   25.7590   25.9489   25.9489   26.4308   26.4308   27.7497   27.7497   28.7961   28.7961
   29.4511   29.4511   29.7581   29.7581   29.9620   29.9620   30.3256   30.3256   30.6480   30.6480
   30.7889   30.7889   30.9884   30.9884   31.2543   31.2543   31.4520   31.4520   31.7020   31.7020
   32.2753   32.2753   32.8025   32.8025   33.6262   33.6262   33.9250   33.9250   34.0089   34.0089
   35.0072   35.0072   35.4344   35.4344   35.6662   35.6662   35.7621   35.7621   36.2838   36.2838
   36.5922   36.5922   36.9383   36.9383   37.0754   37.0754   37.2934   37.2934   38.4530   38.4530
   38.7781   38.7781   38.9882   38.9882   39.5819   39.5819   39.7012   39.7012   40.2267   40.2267
   40.4784   40.4784   40.7006   40.7006   41.3193   41.3193   41.3764   41.3764   41.6338   41.6338
   42.0684   42.0684   42.5789   42.5789   42.7497   42.7497   43.1482   43.1482   43.7275   43.7275
   44.0076   44.0076   44.0455   44.0456   44.2883   44.2883   44.6102   44.6102   44.7402   44.7402
   44.9858   44.9858   45.2818   45.2818   45.4406   45.4406   46.0117   46.0117   46.2056   46.2056
   46.7588   46.7588   47.2716   47.2716   47.6965   47.6965   48.0955   48.0955   49.5763   49.5763
   49.6941   49.6941   50.1453   50.1453   50.3659   50.3659   50.5072   50.5072   50.6307   50.6307
   51.2260   51.2260   51.3917   51.3917   52.2988   52.2988   52.7080   52.7080   53.9372   53.9372
   54.1862   54.1862   54.2196   54.2196   55.1954   55.1954   55.7308   55.7308   56.0784   56.0784
   56.0903   56.0903   56.6636   56.6636   58.2006   58.2006   58.4161   58.4161   58.5643   58.5643
   59.9188   59.9188   60.1878   60.1878   60.3264   60.3264   61.2151   61.2151   61.5848   61.5848
   62.1498   62.1498   62.5788   62.5788   62.9682   62.9682   63.1212   63.1212   66.2922   66.2922
   66.6365   66.6365   67.8388   67.8388   68.2523   68.2523   68.6680   68.6680   69.4431   69.4431
   70.4063   70.4063   70.5573   70.5573   71.3472   71.3472   75.5565   75.5565   86.3853   86.3853
   86.9777   86.9777   89.5193   89.5193   93.8655   93.8655   94.3992   94.3992   95.1673   95.1673
   99.7629   99.7629  100.6810  100.6810  102.3022  102.3022  104.1666  104.1666  105.5804  105.5804
  115.0922  115.0922  117.2709  117.2709  124.7995  124.7995  127.5839  127.5839  138.3901  138.3901
  144.2600  144.2600  146.7017  146.7017
siesta: Fermi energy =      -3.787736 eV

siesta: Program's energy decomposition (eV):
siesta: Ebs     =     -1133.914441
siesta: Eions   =      3585.165840
siesta: Ena     =       381.642191
siesta: Ekin    =      2908.991473
siesta: Enl     =     -2793.319055
siesta: Eso     =        -0.004316
siesta: Edftu   =         0.000000
siesta: DEna    =        48.061971
siesta: DUscf   =        13.689768
siesta: DUext   =         0.000000
siesta: Exc     =     -1121.877922
siesta: eta*DQ  =         0.000000
siesta: Emadel  =         0.000000
siesta: Emeta   =         0.000000
siesta: Emolmec =         0.000000
siesta: Ekinion =         0.000000
siesta: Eharris =     -4147.981728
siesta: Etot    =     -4147.981728
siesta: FreeEng =     -4147.981728

siesta: Final energy (eV):
siesta:  Band Struct. =   -1133.914441
siesta:       Kinetic =    2908.991473
siesta:       Hartree =    9005.959998
siesta:       Edftu   =       0.000000
siesta:       Eso     =      -0.004316
siesta:    Ext. field =       0.000000
siesta:   Exch.-corr. =   -1121.877922
siesta:  Ion-electron =  -20598.324358
siesta:       Ion-ion =    5657.273395
siesta:       Ekinion =       0.000000
siesta:         Total =   -4147.981728
siesta:         Fermi =      -3.787736

siesta: Atomic forces (eV/Ang):
siesta:      1    1.376737    2.254971    0.000000
siesta:      2   -0.030166    0.032625   -0.000000
siesta:      3    0.125467   -0.022682   -0.000000
siesta:      4    0.084876    0.013518   -0.000000
siesta:      5   -0.003768    0.013084   -0.000000
siesta:      6    0.363031    0.197182    0.000000
siesta:      7    0.006642   -0.026887   -0.000000
siesta:      8   -0.044680    0.032518    0.000000
siesta:      9    0.002852    0.156456   -0.000000
siesta:     10   -0.097670    0.058582    0.000000
siesta:     11   -0.005199   -0.002200    0.000000
siesta:     12    0.087743   -0.118151    0.000000
siesta:     13    0.062021   -0.033136    0.000000
siesta:     14    0.053023   -0.130025   -0.000000
siesta:     15   -0.148500   -0.082234   -0.000000
siesta:     16   -0.054913    0.106522   -0.000000
siesta:     17    0.087983   -0.149625   -0.000000
siesta:     18   -0.028473    0.023692    0.000000
siesta:     19   -0.047234   -0.123021   -0.000000
siesta:     20   -0.008059   -0.052011    0.000000
siesta:     21   -0.047987    0.098685    0.000000
siesta:     22   -0.454604   -0.218470    0.000000
siesta:     23    0.000017    0.035756    0.000000
siesta:     24    0.093739   -0.092784   -0.000000
siesta:     25    0.059401   -0.034347   -0.000000
siesta:     26    0.068293   -0.132599    0.000000
siesta:     27    0.137606    0.187996   -0.000000
siesta:     28    1.464353    4.197190   -0.000000
siesta:     29   -0.056147    0.105713   -0.000000
siesta: ----------------------------------------
siesta:    Tot    3.046385    6.296317    0.000000

siesta: Stress tensor (static) (eV/Ang**3):
siesta:    -0.000092    0.000328   -0.000000
siesta:     0.000328    0.000682   -0.000000
siesta:     0.000000   -0.000000   -0.000064

siesta: Cell volume =       4423.259601 Ang**3

siesta: Pressure (static):
siesta:                Solid            Molecule  Units
siesta:          -0.00000191         -0.00000100  Ry/Bohr**3
siesta:          -0.00017523         -0.00009195  eV/Ang**3
siesta:          -0.28075922         -0.14732020  kBar
(Free)E+ p_basis*V_orbitals  =       -4128.131311
(Free)Eharris+ p_basis*V_orbitals  =       -4128.131311
     spin moment: S , {S} =    0.00000   0.00000   0.00000   0.00000

siesta: Electric dipole (a.u.)  =    1.649409    0.168135    0.000000
siesta: Electric dipole (Debye) =    4.192384    0.427357    0.000000

cite: Please see "GC.bib" for an exhaustive BiBTeX file.
cite: Please clearly indicate Siesta version in published work: v4.1.5-1-g384057250
cite: This calculation has made use of the following articles
cite: which are encouraged to be cited in a published work.
        Primary SIESTA paper
          DOI: www.doi.org/10.1088/0953-8984/14/11/302
        Spin-orbit coupling (on-site approximation)
          DOI: www.doi.org/10.1088/0953-8984/19/19/489001


WARNING: alloc-realloc-dealloc name mismatch
         Name: atomlist isa
         Size:              -116. Bytes
         Node:     0
         Subsequent mismatches will not be reported
>> End of run:  28-JUN-2023  18:33:35
Job completed
