Siesta Version  : v4.1.5-1-g384057250
Architecture    : gcc
Compiler version: GNU Fortran (Debian 12.2.0-14) 12.2.0
Compiler flags  : mpifort -O2 -fPIC -ftree-vectorize -fallow-argument-mismatch
PP flags        : -DFC_HAVE_ABORT -DMPI -DSIESTA__FLOOK -DSIESTA__METIS -DSIESTA__MUMPS -DCDF -DNCDF -DNCDF_4 -DNCDF_PARALLEL -DSIESTA__MRRR -DSIESTA__ELPA
Libraries       : libncdf.a libfdict.a  -lflookall -ldl -lnetcdff -lnetcdf -lz -lscalapack-openmpi -lopenblas -lmetis -lzmumps -lcmumps -ldmumps -lmumps_common -lpord -lsmumps -lesmumps -lscotch -lscotcherr -fopenmp -lelpa
PARALLEL version
NetCDF support
NetCDF-4 support
NetCDF-4 MPI-IO support
METIS ordering support
Lua support

* Running on 32 nodes in parallel
>> Start of run:  14-OCT-2023  13:24:35

                           ***********************       
                           *  WELCOME TO SIESTA  *       
                           ***********************       

reinit: Reading from standard input
reinit: Dumped input in INPUT_TMP.87292
************************** Dump of input data file ****************************
# mpirun -np 4 siesta-4.1.5 < Guanine.fdf > Guanine.out
SystemLabel      Guanine
NumberOfAtoms    16
NumberOfSpecies  4
%block ChemicalSpeciesLabel
    1    1  H
    2    7  N
    3    14 Si
    4    8  O
%endblock ChemicalSpeciesLabel
############################################
# This overrides Defaults.fdf configuration
############################################
MD.TypeOfRun                Verlet # CG, Verlet
MD.Steps                    300
MD.Quench                   True
AtomicCoordinatesFormat NotScaledCartesianAng
%block AtomicCoordinatesAndAtomicSpecies
4.388428 -6.123140 0.000000 1
3.389779 -5.838137 0.000000 2
2.206662 -6.693717 0.000000 3
2.258316 -7.799443 0.000000 1
1.017366 -5.956786 0.000000 2
1.517429 -4.535749 0.000000 3
0.734114 -3.341854 0.000000 3
-0.484388 -3.242578 0.000000 4
1.550363 -2.092742 0.000000 2
0.968106 -1.138715 0.000000 1
2.973749 -2.098375 0.000000 3
3.598911 -0.778318 0.000000 2
2.967614 0.091034 0.000000 1
4.582890 -0.781815 0.000000 1
3.784563 -3.287467 0.000000 2
2.900933 -4.444813 0.000000 3
%endblock AtomicCoordinatesAndAtomicSpecies
#############
# Unit Cell
#############
LatticeConstant 1.0 Ang
%block LatticeVectors
    16.818328    0.000000    0.000000
    0.000000   14.230200    0.000000
    0.000000    0.000000   10.224979
%endblock LatticeVectors
%include ../../../../Defaults.fdf
************************** End of input data file *****************************

reinit: -----------------------------------------------------------------------
reinit: System Name: 
reinit: -----------------------------------------------------------------------
reinit: System Label: Guanine
reinit: -----------------------------------------------------------------------

initatom: Reading input for the pseudopotentials and atomic orbitals ----------
Species number:   1 Atomic number:    1 Label: H
Species number:   2 Atomic number:    7 Label: N
Species number:   3 Atomic number:   14 Label: Si
Species number:   4 Atomic number:    8 Label: O

Ground state valence configuration:   1s01
Reading pseudopotential information in formatted form from H.psf

Pseudopotential generated from a relativistic atomic calculation

Valence configuration for pseudopotential generation:
1s( 1.00) rc: 0.01
2p( 0.00) rc: 0.60
3d( 0.00) rc: 1.99
4f( 0.00) rc: 2.49
Ground state valence configuration:   2s02  2p03
Reading pseudopotential information in formatted form from N.psf

Pseudopotential generated from a relativistic atomic calculation

Valence configuration for pseudopotential generation:
2s( 2.00) rc: 0.94
2p( 3.00) rc: 0.59
3d( 0.00) rc: 3.46
4f( 0.00) rc: 2.47
Ground state valence configuration:   3s02  3p02
Reading pseudopotential information in formatted form from Si.psf

Pseudopotential generated from a relativistic atomic calculation

Valence configuration for pseudopotential generation:
3s( 2.00) rc: 1.67
3p( 2.00) rc: 2.04
3d( 0.00) rc: 2.89
4f( 0.00) rc: 2.49
Ground state valence configuration:   2s02  2p04
Reading pseudopotential information in formatted form from O.psf

Pseudopotential generated from a relativistic atomic calculation

Valence configuration for pseudopotential generation:
2s( 2.00) rc: 0.45
2p( 4.00) rc: 0.92
3d( 0.00) rc: 2.24
4f( 0.00) rc: 0.25
For H, standard SIESTA heuristics set lmxkb to 2
 (one more than the basis l, including polarization orbitals).
Use PS.lmax or PS.KBprojectors blocks to override.
For N, standard SIESTA heuristics set lmxkb to 3
 (one more than the basis l, including polarization orbitals).
Use PS.lmax or PS.KBprojectors blocks to override.
For Si, standard SIESTA heuristics set lmxkb to 3
 (one more than the basis l, including polarization orbitals).
Use PS.lmax or PS.KBprojectors blocks to override.
For O, standard SIESTA heuristics set lmxkb to 3
 (one more than the basis l, including polarization orbitals).
Use PS.lmax or PS.KBprojectors blocks to override.

<basis_specs>
===============================================================================
H                    Z=   1    Mass=  1.0100        Charge= 0.17977+309
Lmxo=0 Lmxkb= 2    BasisType=split      Semic=F
L=0  Nsemic=0  Cnfigmx=1
          i=1  nzeta=2  polorb=1  (1s)
            splnorm:   0.62000    
               vcte:    0.0000    
               rinn:    0.0000    
               qcoe:    0.0000    
               qyuk:    0.0000    
               qwid:   0.10000E-01
                rcs:    0.0000      0.0000    
            lambdas:    1.0000      1.0000    
-------------------------------------------------------------------------------
L=0  Nkbl=1  erefs: 0.17977+309
L=1  Nkbl=1  erefs: 0.17977+309
L=2  Nkbl=1  erefs: 0.17977+309
===============================================================================
</basis_specs>

atom: Called for H                     (Z =   1)

read_vps: Pseudopotential generation method:
read_vps: ATM4.2.7  Troullier-Martins                       
Valence charge for ps generation:    1.00000

xc_check: Exchange-correlation functional:
xc_check: GGA Perdew, Burke & Ernzerhof 1996
V l=0 = -2*Zval/r beyond r=  0.0098
V l=1 = -2*Zval/r beyond r=  0.5817
V l=2 = -2*Zval/r beyond r=  1.9372
All V_l potentials equal beyond r=  1.9372
This should be close to max(r_c) in ps generation
All pots = -2*Zval/r beyond r=  1.9372

VLOCAL1: 99.0% of the norm of Vloc inside     11.567 Ry
VLOCAL1: 99.9% of the norm of Vloc inside     26.362 Ry
atom: Maximum radius for 4*pi*r*r*local-pseudopot. charge    2.25106
atom: Maximum radius for r*vlocal+2*Zval:    1.91306
GHOST: No ghost state for L =  0
GHOST: No ghost state for L =  1
GHOST: No ghost state for L =  2

KBgen: Kleinman-Bylander projectors: 
   l= 0   rc=  2.036604   el= -0.477180   Ekb= -6.081590   kbcos= -0.277285
   l= 1   rc=  2.195416   el=  0.001076   Ekb= -0.926943   kbcos= -0.034643
   l= 2   rc=  2.251056   el=  0.002010   Ekb= -0.130941   kbcos= -0.009788

KBgen: Total number of Kleinman-Bylander projectors:    9
atom: -------------------------------------------------------------------------

atom: SANKEY-TYPE ORBITALS:
atom: Selected multiple-zeta basis: split     

SPLIT: Orbitals with angular momentum L= 0

SPLIT: Basis orbitals for state 1s

SPLIT: PAO cut-off radius determined from an
SPLIT: energy shift=  0.002000 Ry

   izeta = 1
                 lambda =    1.000000
                     rc =    6.518340
                 energy =   -0.475305
                kinetic =    0.912139
    potential(screened) =   -1.387444
       potential(ionic) =   -1.907295

   izeta = 2
                 rmatch =    2.141150
              splitnorm =    0.620000
                 energy =    0.566467
                kinetic =    3.772856
    potential(screened) =   -3.206389
       potential(ionic) =   -3.759093

POLgen: Perturbative polarization orbital with L=  1

POLgen: Polarization orbital for state 1s

   izeta = 1
                     rc =    6.518340
                 energy =    0.533861
                kinetic =    1.121086
    potential(screened) =   -0.587225
       potential(ionic) =   -1.053027
atom: Total number of Sankey-type orbitals:  5

atm_pop: Valence configuration (for local Pseudopot. screening):
 1s( 1.00)                                                            
Vna: chval, zval:    1.00000   1.00000

Vna:  Cut-off radius for the neutral-atom potential:   6.518340

atom: _________________________________________________________________________

<basis_specs>
===============================================================================
N                    Z=   7    Mass=  14.010        Charge= 0.17977+309
Lmxo=1 Lmxkb= 3    BasisType=split      Semic=F
L=0  Nsemic=0  Cnfigmx=2
          i=1  nzeta=2  polorb=0  (2s)
            splnorm:   0.28000    
               vcte:    0.0000    
               rinn:    0.0000    
               qcoe:    0.0000    
               qyuk:    0.0000    
               qwid:   0.10000E-01
                rcs:    0.0000      0.0000    
            lambdas:    1.0000      1.0000    
L=1  Nsemic=0  Cnfigmx=2
          i=1  nzeta=2  polorb=1  (2p)
            splnorm:   0.28000    
               vcte:    0.0000    
               rinn:    0.0000    
               qcoe:    0.0000    
               qyuk:    0.0000    
               qwid:   0.10000E-01
                rcs:    0.0000      0.0000    
            lambdas:    1.0000      1.0000    
-------------------------------------------------------------------------------
L=0  Nkbl=1  erefs: 0.17977+309
L=1  Nkbl=1  erefs: 0.17977+309
L=2  Nkbl=1  erefs: 0.17977+309
L=3  Nkbl=1  erefs: 0.17977+309
===============================================================================
</basis_specs>

atom: Called for N                     (Z =   7)

read_vps: Pseudopotential generation method:
read_vps: ATM4.2.7  Troullier-Martins                       
Valence charge for ps generation:    5.00000

xc_check: Exchange-correlation functional:
xc_check: GGA Perdew, Burke & Ernzerhof 1996
V l=0 = -2*Zval/r beyond r=  1.2889
V l=1 = -2*Zval/r beyond r=  1.2889
V l=2 = -2*Zval/r beyond r=  3.4178
V l=3 = -2*Zval/r beyond r=  2.4084
All V_l potentials equal beyond r=  3.3753
This should be close to max(r_c) in ps generation
All pots = -2*Zval/r beyond r=  3.4178

VLOCAL1: 99.0% of the norm of Vloc inside      3.810 Ry
VLOCAL1: 99.9% of the norm of Vloc inside      8.683 Ry
atom: Maximum radius for 4*pi*r*r*local-pseudopot. charge    4.02088
atom: Maximum radius for r*vlocal+2*Zval:    3.54838
GHOST: No ghost state for L =  0
GHOST: No ghost state for L =  1
GHOST: No ghost state for L =  2
GHOST: No ghost state for L =  3

KBgen: Kleinman-Bylander projectors: 
   l= 0   rc=  3.417763   el= -1.365098   Ekb= -4.433130   kbcos= -0.707855
   l= 1   rc=  3.375302   el= -0.521201   Ekb=-13.264039   kbcos= -0.535594
   l= 2   rc=  3.872880   el=  0.001991   Ekb= -0.641094   kbcos= -0.062456
   l= 3   rc=  3.970931   el=  0.003093   Ekb= -0.474517   kbcos= -0.018236

KBgen: Total number of Kleinman-Bylander projectors:   16
atom: -------------------------------------------------------------------------

atom: SANKEY-TYPE ORBITALS:
atom: Selected multiple-zeta basis: split     

SPLIT: Orbitals with angular momentum L= 0

SPLIT: Basis orbitals for state 2s

SPLIT: PAO cut-off radius determined from an
SPLIT: energy shift=  0.002000 Ry

   izeta = 1
                 lambda =    1.000000
                     rc =    4.730425
                 energy =   -1.363399
                kinetic =    1.245246
    potential(screened) =   -2.608645
       potential(ionic) =   -8.121105

   izeta = 2
                 rmatch =    2.531849
              splitnorm =    0.280000
                 energy =   -0.959908
                kinetic =    2.409435
    potential(screened) =   -3.369343
       potential(ionic) =   -9.427975

SPLIT: Orbitals with angular momentum L= 1

SPLIT: Basis orbitals for state 2p

SPLIT: PAO cut-off radius determined from an
SPLIT: energy shift=  0.002000 Ry

   izeta = 1
                 lambda =    1.000000
                     rc =    5.924108
                 energy =   -0.519262
                kinetic =    3.672940
    potential(screened) =   -4.192202
       potential(ionic) =   -9.518354

   izeta = 2
                 rmatch =    2.531849
              splitnorm =    0.280000
                 energy =   -0.104258
                kinetic =    6.807538
    potential(screened) =   -6.911796
       potential(ionic) =  -13.149920

POLgen: Perturbative polarization orbital with L=  2

POLgen: Polarization orbital for state 2p

   izeta = 1
                     rc =    5.924108
                 energy =    1.427508
                kinetic =    2.872379
    potential(screened) =   -1.444871
       potential(ionic) =   -5.563644
atom: Total number of Sankey-type orbitals: 13

atm_pop: Valence configuration (for local Pseudopot. screening):
 2s( 2.00)                                                            
 2p( 3.00)                                                            
Vna: chval, zval:    5.00000   5.00000

Vna:  Cut-off radius for the neutral-atom potential:   5.924108

atom: _________________________________________________________________________

<basis_specs>
===============================================================================
Si                   Z=  14    Mass=  28.090        Charge= 0.17977+309
Lmxo=1 Lmxkb= 3    BasisType=split      Semic=F
L=0  Nsemic=0  Cnfigmx=3
          i=1  nzeta=2  polorb=0  (3s)
            splnorm:   0.28000    
               vcte:    0.0000    
               rinn:    0.0000    
               qcoe:    0.0000    
               qyuk:    0.0000    
               qwid:   0.10000E-01
                rcs:    0.0000      0.0000    
            lambdas:    1.0000      1.0000    
L=1  Nsemic=0  Cnfigmx=3
          i=1  nzeta=2  polorb=1  (3p)
            splnorm:   0.28000    
               vcte:    0.0000    
               rinn:    0.0000    
               qcoe:    0.0000    
               qyuk:    0.0000    
               qwid:   0.10000E-01
                rcs:    0.0000      0.0000    
            lambdas:    1.0000      1.0000    
-------------------------------------------------------------------------------
L=0  Nkbl=1  erefs: 0.17977+309
L=1  Nkbl=1  erefs: 0.17977+309
L=2  Nkbl=1  erefs: 0.17977+309
L=3  Nkbl=1  erefs: 0.17977+309
===============================================================================
</basis_specs>

atom: Called for Si                    (Z =  14)

read_vps: Pseudopotential generation method:
read_vps: ATM4.2.7  Troullier-Martins                       
Valence charge for ps generation:    4.00000

xc_check: Exchange-correlation functional:
xc_check: GGA Perdew, Burke & Ernzerhof 1996
V l=0 = -2*Zval/r beyond r=  2.7826
V l=1 = -2*Zval/r beyond r=  2.7826
V l=2 = -2*Zval/r beyond r=  2.9253
V l=3 = -2*Zval/r beyond r=  2.7826
All V_l potentials equal beyond r=  2.8530
This should be close to max(r_c) in ps generation
All pots = -2*Zval/r beyond r=  2.9253

VLOCAL1: 99.0% of the norm of Vloc inside      5.333 Ry
VLOCAL1: 99.9% of the norm of Vloc inside     12.154 Ry
atom: Maximum radius for 4*pi*r*r*local-pseudopot. charge    3.39869
atom: Maximum radius for r*vlocal+2*Zval:    2.96205
GHOST: No ghost state for L =  0
GHOST: No ghost state for L =  1
GHOST: No ghost state for L =  2
GHOST: No ghost state for L =  3

KBgen: Kleinman-Bylander projectors: 
   l= 0   rc=  3.075247   el= -0.794092   Ekb=  5.879390   kbcos=  0.167461
   l= 1   rc=  3.153101   el= -0.300068   Ekb=  2.642817   kbcos=  0.058301
   l= 2   rc=  3.273594   el=  0.001958   Ekb= -1.185135   kbcos= -0.104411
   l= 3   rc=  3.232927   el=  0.003046   Ekb= -0.497174   kbcos= -0.015889

KBgen: Total number of Kleinman-Bylander projectors:   16
atom: -------------------------------------------------------------------------

atom: SANKEY-TYPE ORBITALS:
atom: Selected multiple-zeta basis: split     

SPLIT: Orbitals with angular momentum L= 0

SPLIT: Basis orbitals for state 3s

SPLIT: PAO cut-off radius determined from an
SPLIT: energy shift=  0.002000 Ry

   izeta = 1
                 lambda =    1.000000
                     rc =    6.429618
                 energy =   -0.792283
                kinetic =    0.525293
    potential(screened) =   -1.317576
       potential(ionic) =   -3.744923

   izeta = 2
                 rmatch =    3.998416
              splitnorm =    0.280000
                 energy =   -0.583081
                kinetic =    1.069570
    potential(screened) =   -1.652651
       potential(ionic) =   -4.235185

SPLIT: Orbitals with angular momentum L= 1

SPLIT: Basis orbitals for state 3p

SPLIT: PAO cut-off radius determined from an
SPLIT: energy shift=  0.002000 Ry

   izeta = 1
                 lambda =    1.000000
                     rc =    8.464845
                 energy =   -0.298236
                kinetic =    0.785360
    potential(screened) =   -1.083596
       potential(ionic) =   -3.273779

   izeta = 2
                 rmatch =    4.587816
              splitnorm =    0.280000
                 energy =   -0.131871
                kinetic =    1.403687
    potential(screened) =   -1.535557
       potential(ionic) =   -4.015310

POLgen: Perturbative polarization orbital with L=  2

POLgen: Polarization orbital for state 3p

   izeta = 1
                     rc =    8.464845
                 energy =    0.321949
                kinetic =    1.055677
    potential(screened) =   -0.733728
       potential(ionic) =   -2.672950
atom: Total number of Sankey-type orbitals: 13

atm_pop: Valence configuration (for local Pseudopot. screening):
 3s( 2.00)                                                            
 3p( 2.00)                                                            
Vna: chval, zval:    4.00000   4.00000

Vna:  Cut-off radius for the neutral-atom potential:   8.464845

atom: _________________________________________________________________________

<basis_specs>
===============================================================================
O                    Z=   8    Mass=  16.000        Charge= 0.17977+309
Lmxo=1 Lmxkb= 3    BasisType=split      Semic=F
L=0  Nsemic=0  Cnfigmx=2
          i=1  nzeta=2  polorb=0  (2s)
            splnorm:   0.28000    
               vcte:    0.0000    
               rinn:    0.0000    
               qcoe:    0.0000    
               qyuk:    0.0000    
               qwid:   0.10000E-01
                rcs:    0.0000      0.0000    
            lambdas:    1.0000      1.0000    
L=1  Nsemic=0  Cnfigmx=2
          i=1  nzeta=2  polorb=1  (2p)
            splnorm:   0.28000    
               vcte:    0.0000    
               rinn:    0.0000    
               qcoe:    0.0000    
               qyuk:    0.0000    
               qwid:   0.10000E-01
                rcs:    0.0000      0.0000    
            lambdas:    1.0000      1.0000    
-------------------------------------------------------------------------------
L=0  Nkbl=1  erefs: 0.17977+309
L=1  Nkbl=1  erefs: 0.17977+309
L=2  Nkbl=1  erefs: 0.17977+309
L=3  Nkbl=1  erefs: 0.17977+309
===============================================================================
</basis_specs>

atom: Called for O                     (Z =   8)

read_vps: Pseudopotential generation method:
read_vps: ATM4.2.7  Troullier-Martins                       
Valence charge for ps generation:    6.00000

xc_check: Exchange-correlation functional:
xc_check: GGA Perdew, Burke & Ernzerhof 1996
V l=0 = -2*Zval/r beyond r=  1.1000
V l=1 = -2*Zval/r beyond r=  1.1000
V l=2 = -2*Zval/r beyond r=  2.2154
V l=3 = -2*Zval/r beyond r=  1.1000
All V_l potentials equal beyond r=  2.2154
This should be close to max(r_c) in ps generation
All pots = -2*Zval/r beyond r=  2.2154

VLOCAL1: 99.0% of the norm of Vloc inside      8.845 Ry
VLOCAL1: 99.9% of the norm of Vloc inside     20.157 Ry
atom: Maximum radius for 4*pi*r*r*local-pseudopot. charge    2.67231
atom: Maximum radius for r*vlocal+2*Zval:    2.32897
GHOST: No ghost state for L =  0
GHOST: No ghost state for L =  1
GHOST: No ghost state for L =  2
GHOST: No ghost state for L =  3

KBgen: Kleinman-Bylander projectors: 
   l= 0   rc=  2.243238   el= -1.759686   Ekb=**********   kbcos= -0.171774
   l= 1   rc=  2.328968   el= -0.663873   Ekb=-14.506792   kbcos= -0.519897
   l= 2   rc=  2.573941   el=  0.002031   Ekb= -1.137373   kbcos= -0.019581
   l= 3   rc=  2.606321   el=  0.003153   Ekb= -1.013546   kbcos= -0.003122

KBgen: Total number of Kleinman-Bylander projectors:   16
atom: -------------------------------------------------------------------------

atom: SANKEY-TYPE ORBITALS:
atom: Selected multiple-zeta basis: split     

SPLIT: Orbitals with angular momentum L= 0

SPLIT: Basis orbitals for state 2s

SPLIT: PAO cut-off radius determined from an
SPLIT: energy shift=  0.002000 Ry

   izeta = 1
                 lambda =    1.000000
                     rc =    4.243912
                 energy =   -1.758270
                kinetic =    3.286084
    potential(screened) =   -5.044353
       potential(ionic) =  -12.921184

   izeta = 2
                 rmatch =    2.187845
              splitnorm =    0.280000
                 energy =   -0.885018
                kinetic =    8.134434
    potential(screened) =   -9.019452
       potential(ionic) =  -17.710645

SPLIT: Orbitals with angular momentum L= 1

SPLIT: Basis orbitals for state 2p

SPLIT: PAO cut-off radius determined from an
SPLIT: energy shift=  0.002000 Ry

   izeta = 1
                 lambda =    1.000000
                     rc =    5.314825
                 energy =   -0.661986
                kinetic =    4.917472
    potential(screened) =   -5.579458
       potential(ionic) =  -13.236259

   izeta = 2
                 rmatch =    2.160663
              splitnorm =    0.280000
                 energy =   -0.068760
                kinetic =    9.183374
    potential(screened) =   -9.252135
       potential(ionic) =  -18.274251

POLgen: Perturbative polarization orbital with L=  2

POLgen: Polarization orbital for state 2p

   izeta = 1
                     rc =    5.314825
                 energy =    1.970580
                kinetic =    3.886128
    potential(screened) =   -1.915547
       potential(ionic) =   -7.749584
atom: Total number of Sankey-type orbitals: 13

atm_pop: Valence configuration (for local Pseudopot. screening):
 2s( 2.00)                                                            
 2p( 4.00)                                                            
Vna: chval, zval:    6.00000   6.00000

Vna:  Cut-off radius for the neutral-atom potential:   5.314825

atom: _________________________________________________________________________

prinput: Basis input ----------------------------------------------------------

PAO.BasisType split     

%block ChemicalSpeciesLabel
    1    1 H                       # Species index, atomic number, species label
    2    7 N                       # Species index, atomic number, species label
    3   14 Si                      # Species index, atomic number, species label
    4    8 O                       # Species index, atomic number, species label
%endblock ChemicalSpeciesLabel

%block PAO.Basis                 # Define Basis set
H                     1                    # Species label, number of l-shells
 n=1   0   2 P   1                   # n, l, Nzeta, Polarization, NzetaPol
   6.518      2.141   
   1.000      1.000   
N                     2                    # Species label, number of l-shells
 n=2   0   2                         # n, l, Nzeta 
   4.730      2.532   
   1.000      1.000   
 n=2   1   2 P   1                   # n, l, Nzeta, Polarization, NzetaPol
   5.924      2.532   
   1.000      1.000   
Si                    2                    # Species label, number of l-shells
 n=3   0   2                         # n, l, Nzeta 
   6.430      3.998   
   1.000      1.000   
 n=3   1   2 P   1                   # n, l, Nzeta, Polarization, NzetaPol
   8.465      4.588   
   1.000      1.000   
O                     2                    # Species label, number of l-shells
 n=2   0   2                         # n, l, Nzeta 
   4.244      2.188   
   1.000      1.000   
 n=2   1   2 P   1                   # n, l, Nzeta, Polarization, NzetaPol
   5.315      2.161   
   1.000      1.000   
%endblock PAO.Basis

prinput: ----------------------------------------------------------------------

Dumping basis to NetCDF file H.ion.nc
Dumping basis to NetCDF file N.ion.nc
Dumping basis to NetCDF file Si.ion.nc
Dumping basis to NetCDF file O.ion.nc
coor:   Atomic-coordinates input format  =     Cartesian coordinates
coor:                                          (in Angstroms)

siesta: Atomic coordinates (Bohr) and species
siesta:      8.29293 -11.57106   0.00000  1        1
siesta:      6.40576 -11.03248   0.00000  2        2
siesta:      4.16999 -12.64930   0.00000  3        3
siesta:      4.26760 -14.73882   0.00000  1        4
siesta:      1.92254 -11.25670   0.00000  2        5
siesta:      2.86753  -8.57133   0.00000  3        6
siesta:      1.38727  -6.31519   0.00000  3        7
siesta:     -0.91536  -6.12759   0.00000  4        8
siesta:      2.92976  -3.95471   0.00000  2        9
siesta:      1.82946  -2.15186   0.00000  1       10
siesta:      5.61957  -3.96536   0.00000  3       11
siesta:      6.80096  -1.47081   0.00000  2       12
siesta:      5.60798   0.17203   0.00000  1       13
siesta:      8.66041  -1.47742   0.00000  1       14
siesta:      7.15179  -6.21241   0.00000  2       15
siesta:      5.48197  -8.39948   0.00000  3       16

siesta: System type = chain     

initatomlists: Number of atoms, orbitals, and projectors:     16   168   221

siesta: ******************** Simulation parameters ****************************
siesta:
siesta: The following are some of the parameters of the simulation.
siesta: A complete list of the parameters used, including default values,
siesta: can be found in file out.fdf
siesta:
redata: Spin configuration                          = spin-orbit
redata: Number of spin components                   = 8
redata: Time-Reversal Symmetry                      = F
redata: Spin spiral                                 = F
############################################################
This spin-orbit implementation uses a local approximation.
From 4.2 and onwards the full non-local approximation is implemented
You are strongly advised to use >=4.2 versions!
############################################################
redata: Long output                                 =   F
redata: Number of Atomic Species                    =        4
redata: Charge density info will appear in .RHO file
redata: Write Mulliken Pop.                         = NO
redata: Matel table size (NRTAB)                    =     1024
redata: Mesh Cutoff                                 =   340.0000 Ry
redata: Net charge of the system                    =     0.0000 |e|
redata: Min. number of SCF Iter                     =        1
redata: Max. number of SCF Iter                     =      200
redata: SCF convergence failure will abort job
redata: SCF mix quantity                            = Hamiltonian
redata: Mix DM or H after convergence               =   F
redata: Recompute H after scf cycle                 =   F
redata: Mix DM in first SCF step                    =   T
redata: Write Pulay info on disk                    =   F
redata: New DM Occupancy tolerance                  = 0.000000000001
redata: No kicks to SCF
redata: DM Mixing Weight for Kicks                  =     0.5000
redata: Require Harris convergence for SCF          =   F
redata: Harris energy tolerance for SCF             =     0.000100 eV
redata: Require DM convergence for SCF              =   T
redata: DM tolerance for SCF                        =     0.000008
redata: Require EDM convergence for SCF             =   F
redata: EDM tolerance for SCF                       =     0.001000 eV
redata: Require H convergence for SCF               =   T
redata: Hamiltonian tolerance for SCF               =     0.000001 eV
redata: Require (free) Energy convergence for SCF   =   F
redata: (free) Energy tolerance for SCF             =     0.000100 eV
redata: Using Saved Data (generic)                  =   F
redata: Use continuation files for DM               =   T
redata: Neglect nonoverlap interactions             =   F
redata: Method of Calculation                       = Diagonalization
redata: Electronic Temperature                      =   299.9978 K
redata: Fix the spin of the system                  =   F
redata: Dynamics option                             = Verlet MD run
redata: Initial MD time step                        =        1
redata:   Final MD time step                        =      300
redata: Length of MD time step                      =     0.5000 fs
redata: Initial Temperature of MD run               =   100.0000 K
redata: Perform a MD quench                         =   T
mix.SCF: Pulay mixing                            = Pulay
mix.SCF:    Variant                              = stable
mix.SCF:    History steps                        = 6
mix.SCF:    Linear mixing weight                 =     0.250000
mix.SCF:    Mixing weight                        =     0.250000
mix.SCF:    SVD condition                        = 0.1000E-07
mix.SCF:    Restart steps                        = 24
mix.SCF:    Restart save steps                   = 3
mix.SCF: Spin-component mixing                   all
redata: Save all siesta data in one NC              =   F
redata: ***********************************************************************

%block SCF.Mixers
  Pulay
%endblock SCF.Mixers

%block SCF.Mixer.Pulay
  # Mixing method
  method pulay
  variant stable

  # Mixing options
  weight 0.2500
  weight.linear 0.2500
  history 6
  restart 24
  restart.save 3
%endblock SCF.Mixer.Pulay

Size of DM history Fstack: 3
Total number of electrons:    56.000000
Total ionic charge:    56.000000

* ProcessorY, Blocksize:    4   5


* Orbital distribution balance (max,min):    10     5


Time-reversal symmetry not used.

siesta: k-grid: Number of k-points =     1
siesta: k-grid: Cutoff (effective) =     5.112 Ang
siesta: k-grid: Supercell and displacements
siesta: k-grid:    1   0   0      0.000
siesta: k-grid:    0   1   0      0.000
siesta: k-grid:    0   0   1      0.000

diag: Algorithm                                     = ELPA-1stage
diag: Parallel over k                               =   F
diag: Use parallel 2D distribution                  =   T
diag: Parallel block-size                           = 5
diag: Parallel distribution                         =     4 x     8
diag: Used triangular part                          = Lower
diag: Absolute tolerance                            =  0.100E-15
diag: Orthogonalization factor                      =  0.100E-05
diag: Memory factor                                 =  1.0000


ts: **************************************************************
ts: Save H and S matrices                           =    F
ts: Save DM and EDM matrices                        =    F
ts: Only save the overlap matrix S                  =    F
ts: **************************************************************

************************ Begin: TS CHECKS AND WARNINGS ************************
************************ End: TS CHECKS AND WARNINGS **************************


                     ====================================
                        Begin MD quenched step =      1
                     ====================================

outcoor: Atomic coordinates (Ang):                          
    4.38842800   -6.12314000    0.00000000   1       1  H
    3.38977900   -5.83813700    0.00000000   2       2  N
    2.20666200   -6.69371700    0.00000000   3       3  Si
    2.25831600   -7.79944300    0.00000000   1       4  H
    1.01736600   -5.95678600    0.00000000   2       5  N
    1.51742900   -4.53574900    0.00000000   3       6  Si
    0.73411400   -3.34185400    0.00000000   3       7  Si
   -0.48438800   -3.24257800    0.00000000   4       8  O
    1.55036300   -2.09274200    0.00000000   2       9  N
    0.96810600   -1.13871500    0.00000000   1      10  H
    2.97374900   -2.09837500    0.00000000   3      11  Si
    3.59891100   -0.77831800    0.00000000   2      12  N
    2.96761400    0.09103400    0.00000000   1      13  H
    4.58289000   -0.78181500    0.00000000   1      14  H
    3.78456300   -3.28746700    0.00000000   2      15  N
    2.90093300   -4.44481300    0.00000000   3      16  Si

outcell: Unit cell vectors (Ang):
       16.818328    0.000000    0.000000
        0.000000   14.230200    0.000000
        0.000000    0.000000   10.224979

outcell: Cell vector modules (Ang)   :   16.818328   14.230200   10.224979
outcell: Cell angles (23,13,12) (deg):     90.0000     90.0000     90.0000
outcell: Cell volume (Ang**3)        :   2447.1255
Gamma-point calculation with multiply-connected orbital pairs
Folding of H and S implicitly performed
<dSpData1D:S at geom step 1
  <sparsity:sparsity for geom step 1
    nrows_g=168 nrows=10 sparsity=.0593 nnzs=1674, refcount: 8>
  <dData1D:(new from dSpData1D) n=1674, refcount: 1>
refcount: 1>
new_DM -- step:     1
Initializing Density Matrix...

Attempting to read DM from file... Succeeded...
DM from file:
<dSpData2D:IO-DM: Guanine.DM
  <sparsity:IO-DM: Guanine.DM
    nrows_g=168 nrows=10 sparsity=.0593 nnzs=1674, refcount: 1>
  <dData2D:(new from dSpData2D) n=1674 m=8, refcount: 1>
refcount: 1>
DM to be used:
<dSpData2D:Re-structured SpM
  <sparsity:sparsity for geom step 1
    nrows_g=168 nrows=10 sparsity=.0593 nnzs=1674, refcount: 9>
  <dData2D:(new in restruct) n=1674 m=8, refcount: 1>
refcount: 1>
     spin moment: S , {S} =    0.00000   0.00000  -0.00000   0.00000
No. of atoms with KB's overlaping orbs in proc 0. Max # of overlaps:      16     158

Initializing spin-orbit part of the Hamiltonian
  Adding spin-orbit effects for H 
  Adding spin-orbit effects for N 
  Adding spin-orbit effects for Si
  Adding spin-orbit effects for O 


New grid distribution:   1
           1       1:   96    1:   20    1:    8
           2       1:   96    1:   20    9:   16
           3       1:   96    1:   20   17:   24
           4       1:   96    1:   20   25:   32
           5       1:   96    1:   20   33:   39
           6       1:   96    1:   20   40:   46
           7       1:   96    1:   20   47:   53
           8       1:   96    1:   20   54:   60
           9       1:   96   21:   40    1:    8
          10       1:   96   21:   40    9:   16
          11       1:   96   21:   40   17:   24
          12       1:   96   21:   40   25:   32
          13       1:   96   21:   40   33:   39
          14       1:   96   21:   40   40:   46
          15       1:   96   21:   40   47:   53
          16       1:   96   21:   40   54:   60
          17       1:   96   41:   60    1:    8
          18       1:   96   41:   60    9:   16
          19       1:   96   41:   60   17:   24
          20       1:   96   41:   60   25:   32
          21       1:   96   41:   60   33:   39
          22       1:   96   41:   60   40:   46
          23       1:   96   41:   60   47:   53
          24       1:   96   41:   60   54:   60
          25       1:   96   61:   80    1:    8
          26       1:   96   61:   80    9:   16
          27       1:   96   61:   80   17:   24
          28       1:   96   61:   80   25:   32
          29       1:   96   61:   80   33:   39
          30       1:   96   61:   80   40:   46
          31       1:   96   61:   80   47:   53
          32       1:   96   61:   80   54:   60

InitMesh: MESH =   192 x   160 x   120 =     3686400
InitMesh: (bp) =    96 x    80 x    60 =      460800
InitMesh: Mesh cutoff (required, used) =   340.000   349.397 Ry
ExtMesh (bp) on 0 =   200 x   124 x   116 =     2876800
New grid distribution:   2
           1       1:    9    1:   48    1:   21
           2       1:    9   58:   65   22:   60
           3      17:   24   68:   80    1:   19
           4      25:   96    1:   49   20:   60
           5      25:   96   67:   80    1:   19
           6      17:   24    1:   48    1:   19
           7      17:   24   59:   66   20:   60
           8      17:   24   49:   58    1:   19
           9      25:   96    1:   49    1:   19
          10      10:   16   49:   57   22:   60
          11       1:    9   58:   65    1:   21
          12      10:   16    1:   48   22:   60
          13       1:    9    1:   48   22:   60
          14      10:   16    1:   48    1:   21
          15      10:   16   58:   66   22:   60
          16      17:   24   59:   67    1:   19
          17      25:   96   50:   58    1:   19
          18       1:    9   49:   57    1:   21
          19       1:    9   49:   57   22:   60
          20      25:   96   50:   58   20:   60
          21      17:   24    1:   48   20:   60
          22      17:   24   67:   80   20:   60
          23      17:   24   49:   58   20:   60
          24      10:   16   49:   57    1:   21
          25      25:   96   59:   66    1:   19
          26       1:    9   66:   80    1:   21
          27      10:   16   67:   80    1:   21
          28      25:   96   67:   80   20:   60
          29      25:   96   59:   66   20:   60
          30       1:    9   66:   80   22:   60
          31      10:   16   67:   80   22:   60
          32      10:   16   58:   66    1:   21
New grid distribution:   3
           1      24:   36    1:   34    1:   22
           2      13:   23    1:   27    1:   25
           3       1:   12   47:   63    1:   26
           4      37:   96    1:   40   23:   60
           5      43:   96   67:   80    1:   24
           6       1:   12    1:   29   26:   60
           7       1:   12   47:   62   27:   60
           8       1:   12   64:   80    1:   26
           9      37:   96    1:   40    1:   22
          10      13:   23   47:   63   27:   60
          11      13:   23   28:   46    1:   25
          12      13:   23    1:   28   26:   60
          13      24:   36    1:   35   23:   60
          14      24:   36   36:   53   23:   60
          15       1:   12   30:   46   26:   60
          16       1:   12   30:   46    1:   25
          17      43:   96   54:   66    1:   24
          18      24:   42   54:   67    1:   24
          19      24:   36   35:   53    1:   22
          20      37:   96   41:   53   23:   60
          21      43:   96   54:   65   25:   60
          22      24:   42   54:   67   25:   60
          23      13:   23   29:   46   26:   60
          24      13:   23   64:   80    1:   26
          25       1:   12    1:   29    1:   25
          26      13:   23   64:   80   27:   60
          27      24:   42   68:   80    1:   24
          28      43:   96   66:   80   25:   60
          29      37:   96   41:   53    1:   22
          30      24:   42   68:   80   25:   60
          31       1:   12   63:   80   27:   60
          32      13:   23   47:   63    1:   26
Setting up quadratic distribution...
ExtMesh (bp) on 0 =   113 x   152 x   129 =     2215704
PhiOnMesh: Number of (b)points on node 0 =                 9072
PhiOnMesh: nlist on node 0 =               195553

stepf: Fermi-Dirac step function

siesta: Program's energy decomposition (eV):
siesta: Ebs     =      -710.628979
siesta: Eions   =      2040.955082
siesta: Ena     =       304.909108
siesta: Ekin    =      1902.869320
siesta: Enl     =     -1844.774789
siesta: Eso     =        -0.006835
siesta: Edftu   =         0.000000
siesta: DEna    =        24.765958
siesta: DUscf   =        18.270128
siesta: DUext   =         0.000000
siesta: Exc     =      -702.335049
siesta: eta*DQ  =         0.000000
siesta: Emadel  =         0.000000
siesta: Emeta   =         0.000000
siesta: Emolmec =         0.000000
siesta: Ekinion =         0.000000
siesta: Eharris =     -2337.088917
siesta: Etot    =     -2337.257240
siesta: FreeEng =     -2337.257240

        iscf     Eharris(eV)        E_KS(eV)     FreeEng(eV)     dDmax    Ef(eV) dHmax(eV)
   scf:    1    -2337.088917    -2337.257240    -2337.257240  0.010731 -3.836626  0.271255
     spin moment: S , {S} =    0.00000  -0.00000  -0.00000  -0.00000
timer: Routine,Calls,Time,% = IterSCF        1       1.240   4.73
   scf:    2    -2337.219819    -2337.246873    -2337.246873  0.007369 -3.833300  0.720651
     spin moment: S , {S} =    0.00000  -0.00000  -0.00000  -0.00000
   scf:    3    -2337.262055    -2337.259105    -2337.259105  0.005411 -3.829155  0.061256
     spin moment: S , {S} =    0.00000  -0.00000  -0.00000  -0.00000
   scf:    4    -2337.259189    -2337.259153    -2337.259153  0.000515 -3.825780  0.020437
     spin moment: S , {S} =    0.00000  -0.00000  -0.00000  -0.00000
   scf:    5    -2337.259162    -2337.259158    -2337.259158  0.000249 -3.825535  0.002437
     spin moment: S , {S} =    0.00000  -0.00000  -0.00000  -0.00000
   scf:    6    -2337.259158    -2337.259158    -2337.259158  0.000040 -3.825614  0.000940
     spin moment: S , {S} =    0.00000  -0.00000  -0.00000  -0.00000
   scf:    7    -2337.259158    -2337.259158    -2337.259158  0.000027 -3.825642  0.000153
     spin moment: S , {S} =    0.00000  -0.00000  -0.00000  -0.00000
   scf:    8    -2337.259158    -2337.259158    -2337.259158  0.000012 -3.825661  0.000054
     spin moment: S , {S} =    0.00000  -0.00000  -0.00000  -0.00000
   scf:    9    -2337.259158    -2337.259158    -2337.259158  0.000004 -3.825667  0.000030
     spin moment: S , {S} =    0.00000  -0.00000  -0.00000  -0.00000
   scf:   10    -2337.259158    -2337.259158    -2337.259158  0.000002 -3.825669  0.000011
     spin moment: S , {S} =    0.00000  -0.00000  -0.00000  -0.00000
   scf:   11    -2337.259158    -2337.259158    -2337.259158  0.000001 -3.825671  0.000004
     spin moment: S , {S} =    0.00000  -0.00000  -0.00000  -0.00000
   scf:   12    -2337.259158    -2337.259158    -2337.259158  0.000000 -3.825671  0.000001
     spin moment: S , {S} =    0.00000  -0.00000  -0.00000  -0.00000

SCF Convergence by DM+H criterion
max |DM_out - DM_in|         :     0.0000002530
max |H_out - H_in|      (eV) :     0.0000009058
SCF cycle converged after 12 iterations

Using DM_out to compute the final energy and forces
No. of atoms with KB's overlaping orbs in proc 0. Max # of overlaps:      16     158

siesta: E_KS(eV) =            -2337.2592

siesta: E_KS - E_eggbox =     -2337.2592
     spin moment: S , {S} =    0.00000  -0.00000  -0.00000  -0.00000

siesta: Atomic forces (eV/Ang):
     1    0.891535   -0.459983   -0.000000
     2   18.410471   -6.251811    0.000000
     3    1.218674   -4.803105    0.000000
     4    1.363545  -16.173181   -0.000000
     5  -18.079548   -2.878388    0.000000
     6  -34.146186  -41.044393   -0.000000
     7    1.459647   34.861658   -0.000000
     8  -43.893926    4.797146    0.000000
     9  -10.320605   13.769376   -0.000000
    10    0.601923   -1.742244   -0.000000
    11    5.297142    0.907541    0.000000
    12    1.873733   12.208760   -0.000000
    13    1.653458   -0.143453   -0.000000
    14    3.249131    1.196219   -0.000000
    15   15.036204   -0.145902    0.000000
    16   54.664918    6.630563   -0.000000
----------------------------------------
   Tot   -0.719884    0.728803    0.000000
----------------------------------------
   Max   54.664918
   Res   14.981908    sqrt( Sum f_i^2 / 3N )
----------------------------------------
   Max   54.664918    constrained

Stress tensor Voigt[x,y,z,yz,xz,xy] (kbar):     -174.03     -132.61       -0.20       -0.03       -0.01       13.53
(Free)E + p*V (eV/cell)    -2181.0415
Target enthalpy (eV/cell)    -2337.2592

siesta: Stress tensor (static) (eV/Ang**3):
        -0.108582    0.008443    0.000000
         0.008443   -0.082716    0.000000
        -0.000000    0.000000   -0.000056

siesta: Pressure (static):        102.19558200  kBar

siesta: Stress tensor (total) (eV/Ang**3):
        -0.108620    0.008445   -0.000008
         0.008445   -0.082766   -0.000021
        -0.000008   -0.000021   -0.000126

siesta: Pressure (total):        102.27959818  kBar

siesta: Temp_ion =      35.513 K

                     ====================================
                        Begin MD quenched step =      2
                     ====================================

outcoor: Atomic coordinates (Ang):                          
    4.39470894   -6.13271263   -0.00000000   1       1  H
    3.39135247   -5.83867132    0.00000000   2       2  N
    2.20726830   -6.69459151    0.00000000   3       3  Si
    2.25993252   -7.81861670   -0.00000000   1       4  H
    1.01495263   -5.95703200    0.00000000   2       5  N
    1.51517991   -4.53749858   -0.00000000   3       6  Si
    0.73454710   -3.33945650   -0.00000000   3       7  Si
   -0.48864210   -3.24221900    0.00000000   4       8  O
    1.54948094   -2.09156519   -0.00144666   2       9  N
    0.97246099   -1.14078047   -0.00000000   1      10  H
    2.97441915   -2.09780317    0.00008437   3      11  Si
    3.60044821   -0.77727457   -0.00000000   2      12  N
    2.96957422    0.09086393   -0.00000000   1      13  H
    4.58674192   -0.78039685   -0.00562445   1      14  H
    3.78584809   -3.28814330    0.00040679   2      15  N
    2.90326318   -4.44453036   -0.00041083   3      16  Si

outcell: Unit cell vectors (Ang):
       16.818328    0.000000    0.000000
        0.000000   14.230200    0.000000
        0.000000    0.000000   10.224979

outcell: Cell vector modules (Ang)   :   16.818328   14.230200   10.224979
outcell: Cell angles (23,13,12) (deg):     90.0000     90.0000     90.0000
outcell: Cell volume (Ang**3)        :   2447.1255
Gamma-point calculation with multiply-connected orbital pairs
Folding of H and S implicitly performed
<dSpData1D:S at geom step 2
  <sparsity:sparsity for geom step 2
    nrows_g=168 nrows=10 sparsity=.0593 nnzs=1674, refcount: 8>
  <dData1D:(new from dSpData1D) n=1674, refcount: 1>
refcount: 1>
new_DM -- step:     2
Re-using DM from previous geometries...
Number of DMs in history: 1
 DM extrapolation coefficients: 
1   1.00000
New DM after history re-use:
<dSpData2D:SpM extrapolated using coords
  <sparsity:sparsity for geom step 2
    nrows_g=168 nrows=10 sparsity=.0593 nnzs=1674, refcount: 10>
  <dData2D:(temp array for extrapolation) n=1674 m=8, refcount: 1>
refcount: 1>
     spin moment: S , {S} =    0.00000  -0.00000  -0.00000  -0.00000
No. of atoms with KB's overlaping orbs in proc 0. Max # of overlaps:      16     158
New grid distribution:   1
           1       1:   96    1:   20    1:    8
           2       1:   96    1:   20    9:   16
           3       1:   96    1:   20   17:   24
           4       1:   96    1:   20   25:   32
           5       1:   96    1:   20   33:   39
           6       1:   96    1:   20   40:   46
           7       1:   96    1:   20   47:   53
           8       1:   96    1:   20   54:   60
           9       1:   96   21:   40    1:    8
          10       1:   96   21:   40    9:   16
          11       1:   96   21:   40   17:   24
          12       1:   96   21:   40   25:   32
          13       1:   96   21:   40   33:   39
          14       1:   96   21:   40   40:   46
          15       1:   96   21:   40   47:   53
          16       1:   96   21:   40   54:   60
          17       1:   96   41:   60    1:    8
          18       1:   96   41:   60    9:   16
          19       1:   96   41:   60   17:   24
          20       1:   96   41:   60   25:   32
          21       1:   96   41:   60   33:   39
          22       1:   96   41:   60   40:   46
          23       1:   96   41:   60   47:   53
          24       1:   96   41:   60   54:   60
          25       1:   96   61:   80    1:    8
          26       1:   96   61:   80    9:   16
          27       1:   96   61:   80   17:   24
          28       1:   96   61:   80   25:   32
          29       1:   96   61:   80   33:   39
          30       1:   96   61:   80   40:   46
          31       1:   96   61:   80   47:   53
          32       1:   96   61:   80   54:   60

InitMesh: MESH =   192 x   160 x   120 =     3686400
InitMesh: (bp) =    96 x    80 x    60 =      460800
InitMesh: Mesh cutoff (required, used) =   340.000   349.397 Ry
ExtMesh (bp) on 0 =   200 x   124 x   116 =     2876800
New grid distribution:   2
           1       1:    9    1:   48    1:   21
           2       1:    9   58:   65   22:   60
           3      17:   24   68:   80    1:   19
           4      25:   96    1:   49   20:   60
           5      25:   96   67:   80    1:   19
           6      17:   24    1:   48    1:   19
           7      17:   24   59:   66   20:   60
           8      17:   24   49:   58    1:   19
           9      25:   96    1:   49    1:   19
          10      10:   16   49:   57   22:   60
          11       1:    9   58:   65    1:   21
          12      10:   16    1:   48   22:   60
          13       1:    9    1:   48   22:   60
          14      10:   16    1:   48    1:   21
          15      10:   16   58:   66   22:   60
          16      17:   24   59:   67    1:   19
          17      25:   96   50:   58    1:   19
          18       1:    9   49:   57    1:   21
          19       1:    9   49:   57   22:   60
          20      25:   96   50:   58   20:   60
          21      17:   24    1:   48   20:   60
          22      17:   24   67:   80   20:   60
          23      17:   24   49:   58   20:   60
          24      10:   16   49:   57    1:   21
          25      25:   96   59:   66    1:   19
          26       1:    9   66:   80    1:   21
          27      10:   16   67:   80    1:   21
          28      25:   96   67:   80   20:   60
          29      25:   96   59:   66   20:   60
          30       1:    9   66:   80   22:   60
          31      10:   16   67:   80   22:   60
          32      10:   16   58:   66    1:   21
New grid distribution:   3
           1      24:   36    1:   34    1:   22
           2      13:   23    1:   27    1:   25
           3       1:   12   47:   63    1:   26
           4      37:   96    1:   40   23:   60
           5      43:   96   67:   80    1:   24
           6       1:   12    1:   29   26:   60
           7       1:   12   47:   62   27:   60
           8       1:   12   64:   80    1:   26
           9      37:   96    1:   40    1:   22
          10      13:   23   47:   63   27:   60
          11      13:   23   28:   46    1:   25
          12      13:   23    1:   28   26:   60
          13      24:   36    1:   35   23:   60
          14      24:   36   36:   53   23:   60
          15       1:   12   30:   46   26:   60
          16       1:   12   30:   46    1:   25
          17      43:   96   54:   66    1:   24
          18      24:   42   54:   67    1:   24
          19      24:   36   35:   53    1:   22
          20      37:   96   41:   53   23:   60
          21      44:   96   54:   65   25:   60
          22      24:   43   54:   67   25:   60
          23      13:   23   29:   46   26:   60
          24      13:   23   64:   80    1:   26
          25       1:   12    1:   29    1:   25
          26      13:   23   64:   80   27:   60
          27      24:   42   68:   80    1:   24
          28      44:   96   66:   80   25:   60
          29      37:   96   41:   53    1:   22
          30      24:   43   68:   80   25:   60
          31       1:   12   63:   80   27:   60
          32      13:   23   47:   63    1:   26
Setting up quadratic distribution...
ExtMesh (bp) on 0 =   113 x   152 x   129 =     2215704
PhiOnMesh: Number of (b)points on node 0 =                 9072
PhiOnMesh: nlist on node 0 =               195534

        iscf     Eharris(eV)        E_KS(eV)     FreeEng(eV)     dDmax    Ef(eV) dHmax(eV)
   scf:    1    -2338.443441    -2338.280516    -2338.280516  0.010690 -3.806768  0.268065
     spin moment: S , {S} =    0.00000  -0.00000  -0.00000  -0.00000
   scf:    2    -2338.243967    -2338.270431    -2338.270431  0.007231 -3.816373  0.707097
     spin moment: S , {S} =    0.00000  -0.00000  -0.00000  -0.00000
   scf:    3    -2338.285337    -2338.282385    -2338.282385  0.005248 -3.814063  0.062996
     spin moment: S , {S} =    0.00000  -0.00000  -0.00000  -0.00000
   scf:    4    -2338.282470    -2338.282433    -2338.282433  0.000556 -3.817526  0.020123
     spin moment: S , {S} =    0.00000  -0.00000  -0.00000  -0.00000
   scf:    5    -2338.282442    -2338.282438    -2338.282438  0.000264 -3.817709  0.002376
     spin moment: S , {S} =    0.00000  -0.00000  -0.00000  -0.00000
   scf:    6    -2338.282438    -2338.282438    -2338.282438  0.000049 -3.817699  0.000515
     spin moment: S , {S} =    0.00000  -0.00000  -0.00000  -0.00000
   scf:    7    -2338.282438    -2338.282438    -2338.282438  0.000017 -3.817665  0.000156
     spin moment: S , {S} =    0.00000  -0.00000  -0.00000  -0.00000
   scf:    8    -2338.282438    -2338.282438    -2338.282438  0.000009 -3.817654  0.000079
     spin moment: S , {S} =    0.00000  -0.00000  -0.00000  -0.00000
   scf:    9    -2338.282438    -2338.282438    -2338.282438  0.000006 -3.817646  0.000030
     spin moment: S , {S} =    0.00000  -0.00000  -0.00000  -0.00000
   scf:   10    -2338.282438    -2338.282438    -2338.282438  0.000002 -3.817641  0.000015
     spin moment: S , {S} =    0.00000  -0.00000  -0.00000  -0.00000
   scf:   11    -2338.282438    -2338.282438    -2338.282438  0.000001 -3.817640  0.000005
     spin moment: S , {S} =    0.00000  -0.00000  -0.00000  -0.00000
   scf:   12    -2338.282438    -2338.282438    -2338.282438  0.000000 -3.817639  0.000001
     spin moment: S , {S} =    0.00000  -0.00000  -0.00000  -0.00000
   scf:   13    -2338.282438    -2338.282438    -2338.282438  0.000000 -3.817639  0.000001
     spin moment: S , {S} =    0.00000  -0.00000  -0.00000  -0.00000

SCF Convergence by DM+H criterion
max |DM_out - DM_in|         :     0.0000000898
max |H_out - H_in|      (eV) :     0.0000006631
SCF cycle converged after 13 iterations

Using DM_out to compute the final energy and forces
No. of atoms with KB's overlaping orbs in proc 0. Max # of overlaps:      16     158

siesta: E_KS(eV) =            -2338.2824
     spin moment: S , {S} =    0.00000  -0.00000  -0.00000  -0.00000

siesta: Atomic forces (eV/Ang):
     1    0.570431   -0.298946    0.000244
     2   18.552624   -6.330361    0.001007
     3    1.096642   -6.058213    0.000721
     4    1.383664  -14.692374   -0.000071
     5  -17.842655   -3.127812    0.000449
     6  -33.466625  -40.738551    0.018698
     7    0.597777   34.685147    0.004558
     8  -43.711064    4.734192    0.002923
     9  -10.039647   13.761728   -0.018332
    10    0.492550   -1.617359   -0.005039
    11    5.259080    0.844973    0.012252
    12    1.995718   12.111452    0.013169
    13    1.644238   -0.109900   -0.003714
    14    3.121779    1.193939   -0.001679
    15   15.009547    0.053406    0.006317
    16   53.648169    6.496397   -0.022777
----------------------------------------
   Tot   -1.687771    0.907718    0.008725
----------------------------------------
   Max   53.648169
   Res   14.801629    sqrt( Sum f_i^2 / 3N )
----------------------------------------
   Max   53.648169    constrained

Stress tensor Voigt[x,y,z,yz,xz,xy] (kbar):     -171.63     -131.57       -0.11        0.02        0.01       12.91
(Free)E + p*V (eV/cell)    -2183.8565
Target enthalpy (eV/cell)    -2338.2824

siesta: Stress tensor (static) (eV/Ang**3):
        -0.107103    0.008052    0.000008
         0.008052   -0.082097    0.000012
         0.000008    0.000012   -0.000059

siesta: Pressure (static):        101.07665877  kBar

siesta: Stress tensor (total) (eV/Ang**3):
        -0.107125    0.008059    0.000008
         0.008059   -0.082119    0.000013
         0.000008    0.000013   -0.000071

siesta: Pressure (total):        101.10649572  kBar

siesta: Temp_ion =     553.981 K

                     ====================================
                        Begin MD quenched step =      3
                     ====================================

outcoor: Atomic coordinates (Ang):                          
    4.40234239   -6.14299407    0.00000058   1       1  H
    3.39609718   -5.84028770    0.00000017   2       2  N
    2.20796808   -6.69598250    0.00000006   3       3  Si
    2.26482977   -7.87262674   -0.00000017   1       4  H
    1.00948939   -5.95781265    0.00000008   2       5  N
    1.51007768   -4.54272125    0.00000159   3       6  Si
    0.73503116   -3.33410198    0.00000039   3       7  Si
   -0.49943854   -3.24115142    0.00000044   4       8  O
    1.54688278   -2.08803605   -0.00289645   2       9  N
    0.97798385   -1.14668078   -0.00001195   1      10  H
    2.97553764   -2.09715931    0.00016978   3      11  Si
    3.60232654   -0.77416089    0.00000225   2      12  N
    2.97543300    0.09043329   -0.00000881   1      13  H
    4.59799574   -0.77614782   -0.01125288   1      14  H
    3.78969879   -3.28813873    0.00081467   2      15  N
    2.91016703   -4.44369389   -0.00082361   3      16  Si

outcell: Unit cell vectors (Ang):
       16.818328    0.000000    0.000000
        0.000000   14.230200    0.000000
        0.000000    0.000000   10.224979

outcell: Cell vector modules (Ang)   :   16.818328   14.230200   10.224979
outcell: Cell angles (23,13,12) (deg):     90.0000     90.0000     90.0000
outcell: Cell volume (Ang**3)        :   2447.1255
Gamma-point calculation with multiply-connected orbital pairs
Folding of H and S implicitly performed
<dSpData1D:S at geom step 3
  <sparsity:sparsity for geom step 3
    nrows_g=168 nrows=10 sparsity=.0593 nnzs=1674, refcount: 8>
  <dData1D:(new from dSpData1D) n=1674, refcount: 1>
refcount: 1>
new_DM -- step:     3
Re-using DM from previous geometries...
Number of DMs in history: 2
  Estimated Rank of xi*xj matrix:            2
 matrix rank:            3
Singular values: 
  1.4335      1.3952     0.11345E-02
 DM extrapolation coefficients: 
1  -2.29677
2   3.29677
New DM after history re-use:
<dSpData2D:SpM extrapolated using coords
  <sparsity:sparsity for geom step 3
    nrows_g=168 nrows=10 sparsity=.0593 nnzs=1674, refcount: 11>
  <dData2D:(temp array for extrapolation) n=1674 m=8, refcount: 1>
refcount: 1>
     spin moment: S , {S} =    0.00000   0.00000   0.00000   0.00000
No. of atoms with KB's overlaping orbs in proc 0. Max # of overlaps:      16     158
New grid distribution:   1
           1       1:   96    1:   20    1:    8
           2       1:   96    1:   20    9:   16
           3       1:   96    1:   20   17:   24
           4       1:   96    1:   20   25:   32
           5       1:   96    1:   20   33:   39
           6       1:   96    1:   20   40:   46
           7       1:   96    1:   20   47:   53
           8       1:   96    1:   20   54:   60
           9       1:   96   21:   40    1:    8
          10       1:   96   21:   40    9:   16
          11       1:   96   21:   40   17:   24
          12       1:   96   21:   40   25:   32
          13       1:   96   21:   40   33:   39
          14       1:   96   21:   40   40:   46
          15       1:   96   21:   40   47:   53
          16       1:   96   21:   40   54:   60
          17       1:   96   41:   60    1:    8
          18       1:   96   41:   60    9:   16
          19       1:   96   41:   60   17:   24
          20       1:   96   41:   60   25:   32
          21       1:   96   41:   60   33:   39
          22       1:   96   41:   60   40:   46
          23       1:   96   41:   60   47:   53
          24       1:   96   41:   60   54:   60
          25       1:   96   61:   80    1:    8
          26       1:   96   61:   80    9:   16
          27       1:   96   61:   80   17:   24
          28       1:   96   61:   80   25:   32
          29       1:   96   61:   80   33:   39
          30       1:   96   61:   80   40:   46
          31       1:   96   61:   80   47:   53
          32       1:   96   61:   80   54:   60

InitMesh: MESH =   192 x   160 x   120 =     3686400
InitMesh: (bp) =    96 x    80 x    60 =      460800
InitMesh: Mesh cutoff (required, used) =   340.000   349.397 Ry
ExtMesh (bp) on 0 =   200 x   124 x   116 =     2876800
New grid distribution:   2
           1       1:    9    1:   48    1:   21
           2       1:    9   58:   65   22:   60
           3      17:   24   68:   80    1:   19
           4      25:   96    1:   49   20:   60
           5      25:   96   67:   80    1:   19
           6      17:   24    1:   48    1:   19
           7      17:   24   59:   66   20:   60
           8      17:   24   49:   58    1:   19
           9      25:   96    1:   49    1:   19
          10      10:   16   49:   57   22:   60
          11       1:    9   58:   65    1:   21
          12      10:   16    1:   48   22:   60
          13       1:    9    1:   48   22:   60
          14      10:   16    1:   48    1:   21
          15      10:   16   58:   66   22:   60
          16      17:   24   59:   67    1:   19
          17      25:   96   50:   58    1:   19
          18       1:    9   49:   57    1:   21
          19       1:    9   49:   57   22:   60
          20      25:   96   50:   58   20:   60
          21      17:   24    1:   48   20:   60
          22      17:   24   67:   80   20:   60
          23      17:   24   49:   58   20:   60
          24      10:   16   49:   57    1:   21
          25      25:   96   59:   66    1:   19
          26       1:    9   66:   80    1:   21
          27      10:   16   67:   80    1:   21
          28      25:   96   67:   80   20:   60
          29      25:   96   59:   66   20:   60
          30       1:    9   66:   80   22:   60
          31      10:   16   67:   80   22:   60
          32      10:   16   58:   66    1:   21
New grid distribution:   3
           1      24:   36    1:   34    1:   22
           2      13:   23    1:   27    1:   25
           3       1:   12   47:   63    1:   26
           4      37:   96    1:   40   23:   60
           5      43:   96   67:   80    1:   24
           6       1:   12    1:   29   26:   60
           7       1:   12   47:   62   27:   60
           8       1:   12   64:   80    1:   26
           9      37:   96    1:   40    1:   22
          10      13:   23   47:   63   27:   60
          11      13:   23   28:   46    1:   25
          12      13:   23    1:   28   26:   60
          13      24:   36    1:   35   23:   60
          14      24:   36   36:   53   23:   60
          15       1:   12   30:   46   26:   60
          16       1:   12   30:   46    1:   25
          17      43:   96   54:   66    1:   24
          18      24:   42   54:   67    1:   24
          19      24:   36   35:   53    1:   22
          20      37:   96   41:   53   23:   60
          21      43:   96   54:   65   25:   60
          22      24:   42   54:   67   25:   60
          23      13:   23   29:   46   26:   60
          24      13:   23   64:   80    1:   26
          25       1:   12    1:   29    1:   25
          26      13:   23   64:   80   27:   60
          27      24:   42   68:   80    1:   24
          28      43:   96   66:   80   25:   60
          29      37:   96   41:   53    1:   22
          30      24:   42   68:   80   25:   60
          31       1:   12   63:   80   27:   60
          32      13:   23   47:   63    1:   26
Setting up quadratic distribution...
ExtMesh (bp) on 0 =   113 x   152 x   129 =     2215704
PhiOnMesh: Number of (b)points on node 0 =                 9072
PhiOnMesh: nlist on node 0 =               195578

        iscf     Eharris(eV)        E_KS(eV)     FreeEng(eV)     dDmax    Ef(eV) dHmax(eV)
   scf:    1    -2340.830097    -2340.822179    -2340.822179  0.006080 -3.807186  0.159826
     spin moment: S , {S} =    0.00000  -0.00000  -0.00000  -0.00000
   scf:    2    -2340.811954    -2340.819474    -2340.819474  0.005455 -3.835816  0.222797
     spin moment: S , {S} =    0.00000  -0.00000  -0.00000  -0.00000
   scf:    3    -2340.823734    -2340.822884    -2340.822884  0.003676 -3.815193  0.039695
     spin moment: S , {S} =    0.00000  -0.00000  -0.00000  -0.00000
   scf:    4    -2340.822921    -2340.822906    -2340.822906  0.000309 -3.816037  0.009883
     spin moment: S , {S} =    0.00000  -0.00000  -0.00000  -0.00000
   scf:    5    -2340.822908    -2340.822907    -2340.822907  0.000086 -3.816393  0.001600
     spin moment: S , {S} =    0.00000  -0.00000  -0.00000  -0.00000
   scf:    6    -2340.822907    -2340.822907    -2340.822907  0.000026 -3.816686  0.000256
     spin moment: S , {S} =    0.00000  -0.00000  -0.00000  -0.00000
   scf:    7    -2340.822907    -2340.822907    -2340.822907  0.000007 -3.816759  0.000111
     spin moment: S , {S} =    0.00000  -0.00000  -0.00000  -0.00000
   scf:    8    -2340.822907    -2340.822907    -2340.822907  0.000003 -3.816764  0.000058
     spin moment: S , {S} =    0.00000  -0.00000  -0.00000  -0.00000
   scf:    9    -2340.822907    -2340.822907    -2340.822907  0.000004 -3.816771  0.000013
     spin moment: S , {S} =    0.00000  -0.00000  -0.00000  -0.00000
   scf:   10    -2340.822907    -2340.822907    -2340.822907  0.000001 -3.816771  0.000011
     spin moment: S , {S} =    0.00000  -0.00000  -0.00000  -0.00000
   scf:   11    -2340.822907    -2340.822907    -2340.822907  0.000000 -3.816770  0.000003
     spin moment: S , {S} =    0.00000  -0.00000  -0.00000  -0.00000
   scf:   12    -2340.822907    -2340.822907    -2340.822907  0.000000 -3.816770  0.000001
     spin moment: S , {S} =    0.00000  -0.00000  -0.00000  -0.00000

SCF Convergence by DM+H criterion
max |DM_out - DM_in|         :     0.0000001497
max |H_out - H_in|      (eV) :     0.0000008222
SCF cycle converged after 12 iterations

Using DM_out to compute the final energy and forces
No. of atoms with KB's overlaping orbs in proc 0. Max # of overlaps:      16     158

siesta: E_KS(eV) =            -2340.8229
     spin moment: S , {S} =    0.00000  -0.00000  -0.00000  -0.00000

siesta: Atomic forces (eV/Ang):
     1    0.411813   -0.184592    0.000461
     2   18.418487   -6.396201    0.002009
     3    0.999817   -9.210229    0.001466
     4    1.060512  -10.965277   -0.000159
     5  -17.403122   -3.680910    0.000895
     6  -31.724762  -39.765297    0.035792
     7   -1.266403   34.093457    0.009563
     8  -42.599631    4.537358    0.005654
     9   -9.417745   13.661481   -0.036516
    10    0.286632   -1.301870   -0.009329
    11    5.122602    0.849043    0.023478
    12    2.519973   11.794217    0.020436
    13    1.540362   -0.008643   -0.006856
    14    2.611099    1.169939   -0.004369
    15   14.969975    0.384391    0.012547
    16   51.034613    6.218239   -0.044217
----------------------------------------
   Tot   -3.435778    1.195106    0.010855
----------------------------------------
   Max   51.034613
   Res   14.302186    sqrt( Sum f_i^2 / 3N )
----------------------------------------
   Max   51.034613    constrained

Stress tensor Voigt[x,y,z,yz,xz,xy] (kbar):     -166.79     -129.62       -0.13        0.06        0.03       11.66
(Free)E + p*V (eV/cell)    -2189.8471
Target enthalpy (eV/cell)    -2340.8229

siesta: Stress tensor (static) (eV/Ang**3):
        -0.103658    0.007304    0.000013
         0.007304   -0.080488    0.000023
         0.000013    0.000023   -0.000069

siesta: Pressure (static):         98.38217327  kBar

siesta: Stress tensor (total) (eV/Ang**3):
        -0.104101    0.007275    0.000021
         0.007275   -0.080905    0.000035
         0.000021    0.000035   -0.000080

siesta: Pressure (total):         98.84760683  kBar

siesta: Temp_ion =    1848.345 K

                     ====================================
                        Begin MD quenched step =      4
                     ====================================

outcoor: Atomic coordinates (Ang):                          
    4.41095228   -6.15371319    0.00000225   1       1  H
    3.40399020   -5.84299739    0.00000069   2       2  N
    2.20875311   -6.69815870    0.00000025   3       3  Si
    2.27224154   -7.95263599   -0.00000071   1       4  H
    1.00105138   -5.95922249    0.00000031   2       5  N
    1.50227082   -4.55133403    0.00000624   3       6  Si
    0.73497718   -3.32584089    0.00000159   3       7  Si
   -0.51661097   -3.23940472    0.00000172   4       8  O
    1.54267482   -2.08217173   -0.00435248   2       9  N
    0.98418632   -1.15566789   -0.00004602   1      10  H
    2.97709286   -2.09644307    0.00025719   3      11  Si
    3.60463563   -0.76903121    0.00000800   2      12  N
    2.98494406    0.08998215   -0.00003387   1      13  H
    4.61544060   -0.76912480   -0.01689168   1      14  H
    3.79610833   -3.28806847    0.00122469   2      15  N
    2.92142173   -4.44232729   -0.00124015   3      16  Si

outcell: Unit cell vectors (Ang):
       16.818328    0.000000    0.000000
        0.000000   14.230200    0.000000
        0.000000    0.000000   10.224979

outcell: Cell vector modules (Ang)   :   16.818328   14.230200   10.224979
outcell: Cell angles (23,13,12) (deg):     90.0000     90.0000     90.0000
outcell: Cell volume (Ang**3)        :   2447.1255
Gamma-point calculation with multiply-connected orbital pairs
Folding of H and S implicitly performed
<dSpData1D:S at geom step 4
  <sparsity:sparsity for geom step 4
    nrows_g=168 nrows=10 sparsity=.0593 nnzs=1674, refcount: 8>
  <dData1D:(new from dSpData1D) n=1674, refcount: 1>
refcount: 1>
new_DM -- step:     4
Re-using DM from previous geometries...
Number of DMs in history: 3
  Estimated Rank of xi*xj matrix:            3
 matrix rank:            4
Singular values: 
  1.8391      1.6327     0.13800E-01 0.75674E-04
 DM extrapolation coefficients: 
1   0.77648
2  -2.55156
3   2.77508
New DM after history re-use:
<dSpData2D:SpM extrapolated using coords
  <sparsity:sparsity for geom step 4
    nrows_g=168 nrows=10 sparsity=.0593 nnzs=1674, refcount: 12>
  <dData2D:(temp array for extrapolation) n=1674 m=8, refcount: 1>
refcount: 1>
     spin moment: S , {S} =    0.00000  -0.00000  -0.00000  -0.00000
No. of atoms with KB's overlaping orbs in proc 0. Max # of overlaps:      16     158
New grid distribution:   1
           1       1:   96    1:   20    1:    8
           2       1:   96    1:   20    9:   16
           3       1:   96    1:   20   17:   24
           4       1:   96    1:   20   25:   32
           5       1:   96    1:   20   33:   39
           6       1:   96    1:   20   40:   46
           7       1:   96    1:   20   47:   53
           8       1:   96    1:   20   54:   60
           9       1:   96   21:   40    1:    8
          10       1:   96   21:   40    9:   16
          11       1:   96   21:   40   17:   24
          12       1:   96   21:   40   25:   32
          13       1:   96   21:   40   33:   39
          14       1:   96   21:   40   40:   46
          15       1:   96   21:   40   47:   53
          16       1:   96   21:   40   54:   60
          17       1:   96   41:   60    1:    8
          18       1:   96   41:   60    9:   16
          19       1:   96   41:   60   17:   24
          20       1:   96   41:   60   25:   32
          21       1:   96   41:   60   33:   39
          22       1:   96   41:   60   40:   46
          23       1:   96   41:   60   47:   53
          24       1:   96   41:   60   54:   60
          25       1:   96   61:   80    1:    8
          26       1:   96   61:   80    9:   16
          27       1:   96   61:   80   17:   24
          28       1:   96   61:   80   25:   32
          29       1:   96   61:   80   33:   39
          30       1:   96   61:   80   40:   46
          31       1:   96   61:   80   47:   53
          32       1:   96   61:   80   54:   60

InitMesh: MESH =   192 x   160 x   120 =     3686400
InitMesh: (bp) =    96 x    80 x    60 =      460800
InitMesh: Mesh cutoff (required, used) =   340.000   349.397 Ry
ExtMesh (bp) on 0 =   200 x   124 x   116 =     2876800
New grid distribution:   2
           1       1:    9    1:   48    1:   21
           2       1:    9   58:   65   22:   60
           3      17:   24   68:   80    1:   19
           4      25:   96    1:   49   20:   60
           5      25:   96   67:   80    1:   19
           6      17:   24    1:   48    1:   19
           7      17:   24   59:   66   20:   60
           8      17:   24   49:   58    1:   19
           9      25:   96    1:   49    1:   19
          10      10:   16   49:   57   22:   60
          11       1:    9   58:   65    1:   21
          12      10:   16    1:   48   22:   60
          13       1:    9    1:   48   22:   60
          14      10:   16    1:   48    1:   21
          15      10:   16   58:   66   22:   60
          16      17:   24   59:   67    1:   19
          17      25:   96   50:   58    1:   19
          18       1:    9   49:   57    1:   21
          19       1:    9   49:   57   22:   60
          20      25:   96   50:   58   20:   60
          21      17:   24    1:   48   20:   60
          22      17:   24   67:   80   20:   60
          23      17:   24   49:   58   20:   60
          24      10:   16   49:   57    1:   21
          25      25:   96   59:   66    1:   19
          26       1:    9   66:   80    1:   21
          27      10:   16   67:   80    1:   21
          28      25:   96   67:   80   20:   60
          29      25:   96   59:   66   20:   60
          30       1:    9   66:   80   22:   60
          31      10:   16   67:   80   22:   60
          32      10:   16   58:   66    1:   21
New grid distribution:   3
           1      24:   36    1:   34    1:   22
           2      13:   23    1:   27    1:   25
           3       1:   12   47:   63    1:   26
           4      37:   96    1:   40   23:   60
           5      43:   96   67:   80    1:   24
           6       1:   12    1:   29   26:   60
           7       1:   12   47:   62   27:   60
           8       1:   12   64:   80    1:   26
           9      37:   96    1:   40    1:   22
          10      13:   23   47:   63   27:   60
          11      13:   23   28:   46    1:   25
          12      13:   23    1:   28   26:   60
          13      24:   36    1:   35   23:   60
          14      24:   36   36:   53   23:   60
          15       1:   12   30:   46   26:   60
          16       1:   12   30:   46    1:   25
          17      43:   96   54:   66    1:   24
          18      24:   42   54:   67    1:   24
          19      24:   36   35:   53    1:   22
          20      37:   96   41:   53   23:   60
          21      44:   96   54:   65   25:   60
          22      24:   43   54:   67   25:   60
          23      13:   23   29:   46   26:   60
          24      13:   23   64:   80    1:   26
          25       1:   12    1:   29    1:   25
          26      13:   23   64:   80   27:   60
          27      24:   42   68:   80    1:   24
          28      44:   96   66:   80   25:   60
          29      37:   96   41:   53    1:   22
          30      24:   43   68:   80   25:   60
          31       1:   12   63:   80   27:   60
          32      13:   23   47:   63    1:   26
Setting up quadratic distribution...
ExtMesh (bp) on 0 =   113 x   152 x   129 =     2215704
PhiOnMesh: Number of (b)points on node 0 =                 9072
PhiOnMesh: nlist on node 0 =               195658

        iscf     Eharris(eV)        E_KS(eV)     FreeEng(eV)     dDmax    Ef(eV) dHmax(eV)
   scf:    1    -2344.297047    -2344.334891    -2344.334891  0.009194 -3.821294  0.435691
     spin moment: S , {S} =    0.00000  -0.00000  -0.00000  -0.00000
   scf:    2    -2344.285470    -2344.323042    -2344.323042  0.008936 -3.884087  0.499714
     spin moment: S , {S} =    0.00000  -0.00000  -0.00000  -0.00000
   scf:    3    -2344.345411    -2344.339921    -2344.339921  0.006052 -3.838069  0.067459
     spin moment: S , {S} =    0.00000  -0.00000  -0.00000  -0.00000
   scf:    4    -2344.339992    -2344.339960    -2344.339960  0.000591 -3.837293  0.029534
     spin moment: S , {S} =    0.00000  -0.00000  -0.00000  -0.00000
   scf:    5    -2344.339975    -2344.339969    -2344.339969  0.000473 -3.836256  0.003601
     spin moment: S , {S} =    0.00000  -0.00000  -0.00000  -0.00000
   scf:    6    -2344.339970    -2344.339969    -2344.339969  0.000085 -3.836115  0.001201
     spin moment: S , {S} =    0.00000  -0.00000  -0.00000  -0.00000
   scf:    7    -2344.339970    -2344.339970    -2344.339970  0.000059 -3.836143  0.000151
     spin moment: S , {S} =    0.00000  -0.00000  -0.00000  -0.00000
   scf:    8    -2344.339970    -2344.339970    -2344.339970  0.000003 -3.836138  0.000084
     spin moment: S , {S} =    0.00000  -0.00000  -0.00000  -0.00000
   scf:    9    -2344.339970    -2344.339970    -2344.339970  0.000004 -3.836132  0.000019
     spin moment: S , {S} =    0.00000  -0.00000  -0.00000  -0.00000
   scf:   10    -2344.339970    -2344.339970    -2344.339970  0.000002 -3.836132  0.000008
     spin moment: S , {S} =    0.00000  -0.00000  -0.00000  -0.00000
   scf:   11    -2344.339970    -2344.339970    -2344.339970  0.000001 -3.836131  0.000005
     spin moment: S , {S} =    0.00000  -0.00000  -0.00000  -0.00000
   scf:   12    -2344.339970    -2344.339970    -2344.339970  0.000000 -3.836131  0.000003
     spin moment: S , {S} =    0.00000  -0.00000  -0.00000  -0.00000
   scf:   13    -2344.339970    -2344.339970    -2344.339970  0.000000 -3.836131  0.000000
     spin moment: S , {S} =    0.00000  -0.00000  -0.00000  -0.00000

SCF Convergence by DM+H criterion
max |DM_out - DM_in|         :     0.0000002150
max |H_out - H_in|      (eV) :     0.0000004918
SCF cycle converged after 13 iterations

Using DM_out to compute the final energy and forces
No. of atoms with KB's overlaping orbs in proc 0. Max # of overlaps:      16     158

siesta: E_KS(eV) =            -2344.3400
     spin moment: S , {S} =    0.00000  -0.00000  -0.00000  -0.00000

siesta: Atomic forces (eV/Ang):
     1    0.348754   -0.163893    0.000660
     2   18.001166   -6.450637    0.002982
     3    0.866215  -12.539961    0.002248
     4    0.820206   -6.839565   -0.000271
     5  -16.758773   -4.521284    0.001335
     6  -29.076088  -38.026308    0.049996
     7   -3.721089   32.962321    0.015297
     8  -37.216724    4.110913    0.007996
     9   -8.479173   13.429214   -0.054980
    10    0.022836   -0.774978   -0.012149
    11    4.926407    0.888232    0.032926
    12    3.318523   11.255201    0.017691
    13    1.006876    0.311801   -0.010009
    14    1.822661    1.115065    0.005829
    15   14.916544    0.910622    0.020241
    16   46.985103    5.736006   -0.063338
----------------------------------------
   Tot   -2.216554    1.402752    0.016453
----------------------------------------
   Max   46.985103
   Res   13.347465    sqrt( Sum f_i^2 / 3N )
----------------------------------------
   Max   46.985103    constrained

Stress tensor Voigt[x,y,z,yz,xz,xy] (kbar):     -160.31     -127.84       -0.15        0.09        0.05        9.88
(Free)E + p*V (eV/cell)    -2197.5602
Target enthalpy (eV/cell)    -2344.3400

siesta: Stress tensor (static) (eV/Ang**3):
        -0.098544    0.006261    0.000014
         0.006261   -0.078408    0.000034
         0.000014    0.000034   -0.000082

siesta: Pressure (static):         94.54748450  kBar

siesta: Stress tensor (total) (eV/Ang**3):
        -0.100055    0.006167    0.000028
         0.006167   -0.079793    0.000057
         0.000028    0.000057   -0.000094

[...]
         0.000805    0.000269    0.000090
        -0.000014    0.000090   -0.000352

siesta: Pressure (total):          0.88896937  kBar

siesta: Temp_ion =     179.030 K

                     ====================================
                        Begin MD quenched step =    300
                     ====================================

outcoor: Atomic coordinates (Ang):                          
    4.96951342   -6.82957340   -0.17343121   1       1  H
    4.00901341   -6.40325205   -0.04125004   2       2  N
    2.49751554   -7.42359516   -0.09899907   3       3  Si
    2.72232203   -8.89829940   -0.00418577   1       4  H
    0.96392651   -6.71194524   -0.01397721   2       5  N
    1.31707909   -5.02244331    0.62516790   3       6  Si
    0.42403706   -3.13035809   -0.22448532   3       7  Si
   -1.14163483   -3.19740443   -0.00208233   4       8  O
    1.56371383   -1.63904545   -0.07322752   2       9  N
    1.13068289   -0.67264207    0.00168258   1      10  H
    3.32877379   -1.77429730   -0.00665984   3      11  Si
    4.05324763   -0.19064027    0.06598920   2      12  N
    3.50564223    0.70888541    0.00018250   1      13  H
    5.09666416   -0.08175574    0.08630282   1      14  H
    4.35514099   -3.14253443    0.04190792   2      15  N
    3.42290527   -4.64017762   -0.10035386   3      16  Si

outcell: Unit cell vectors (Ang):
       16.818328    0.000000    0.000000
        0.000000   14.230200    0.000000
        0.000000    0.000000   10.224979

outcell: Cell vector modules (Ang)   :   16.818328   14.230200   10.224979
outcell: Cell angles (23,13,12) (deg):     90.0000     90.0000     90.0000
outcell: Cell volume (Ang**3)        :   2447.1255
Gamma-point calculation with multiply-connected orbital pairs
Folding of H and S implicitly performed
<dSpData1D:S at geom step 300
  <sparsity:sparsity for geom step 300
    nrows_g=168 nrows=10 sparsity=.0576 nnzs=1627, refcount: 8>
  <dData1D:(new from dSpData1D) n=1627, refcount: 1>
refcount: 1>
new_DM -- step:   300
Re-using DM from previous geometries...
Number of DMs in history: 3
  Estimated Rank of xi*xj matrix:            3
 matrix rank:            3
Singular values: 
  1.7345      1.7296     0.81874E-03 0.10307E-06
 DM extrapolation coefficients: 
1  -0.66392
2   0.32623
3   1.33768
New DM after history re-use:
<dSpData2D:SpM extrapolated using coords
  <sparsity:sparsity for geom step 300
    nrows_g=168 nrows=10 sparsity=.0576 nnzs=1627, refcount: 12>
  <dData2D:(temp array for extrapolation) n=1627 m=8, refcount: 1>
refcount: 1>
     spin moment: S , {S} =    0.00000   0.00000  -0.00000  -0.00000
No. of atoms with KB's overlaping orbs in proc 0. Max # of overlaps:      16     138
New grid distribution:   1
           1       1:   96    1:   20    1:    8
           2       1:   96    1:   20    9:   16
           3       1:   96    1:   20   17:   24
           4       1:   96    1:   20   25:   32
           5       1:   96    1:   20   33:   39
           6       1:   96    1:   20   40:   46
           7       1:   96    1:   20   47:   53
           8       1:   96    1:   20   54:   60
           9       1:   96   21:   40    1:    8
          10       1:   96   21:   40    9:   16
          11       1:   96   21:   40   17:   24
          12       1:   96   21:   40   25:   32
          13       1:   96   21:   40   33:   39
          14       1:   96   21:   40   40:   46
          15       1:   96   21:   40   47:   53
          16       1:   96   21:   40   54:   60
          17       1:   96   41:   60    1:    8
          18       1:   96   41:   60    9:   16
          19       1:   96   41:   60   17:   24
          20       1:   96   41:   60   25:   32
          21       1:   96   41:   60   33:   39
          22       1:   96   41:   60   40:   46
          23       1:   96   41:   60   47:   53
          24       1:   96   41:   60   54:   60
          25       1:   96   61:   80    1:    8
          26       1:   96   61:   80    9:   16
          27       1:   96   61:   80   17:   24
          28       1:   96   61:   80   25:   32
          29       1:   96   61:   80   33:   39
          30       1:   96   61:   80   40:   46
          31       1:   96   61:   80   47:   53
          32       1:   96   61:   80   54:   60

InitMesh: MESH =   192 x   160 x   120 =     3686400
InitMesh: (bp) =    96 x    80 x    60 =      460800
InitMesh: Mesh cutoff (required, used) =   340.000   349.397 Ry
ExtMesh (bp) on 0 =   200 x   124 x   116 =     2876800
New grid distribution:   2
           1       1:   11    1:   44    1:   20
           2      19:   26   46:   56   19:   60
           3      11:   18   68:   80    1:   20
           4      27:   96    1:   46   19:   60
           5       1:   11    1:   44   21:   60
           6      19:   27    1:   44    1:   18
           7      11:   18   56:   66   21:   60
           8       1:   10   56:   65    1:   20
           9      28:   96    1:   46    1:   18
          10      12:   18   45:   55   21:   60
          11      19:   27   45:   56    1:   18
          12      12:   18    1:   44   21:   60
          13      28:   96   67:   80    1:   18
          14      12:   18    1:   44    1:   20
          15       1:   10   66:   80    1:   20
          16      11:   18   56:   67    1:   20
          17      28:   96   47:   56    1:   18
          18       1:   11   45:   55    1:   20
          19       1:   10   56:   65   21:   60
          20      27:   96   47:   56   19:   60
          21      19:   26    1:   45   19:   60
          22      19:   27   68:   80   19:   60
          23       1:   11   45:   55   21:   60
          24      19:   27   57:   67    1:   18
          25      28:   96   57:   66    1:   18
          26      19:   27   68:   80    1:   18
          27      19:   27   57:   67   19:   60
          28      28:   96   67:   80   19:   60
          29      28:   96   57:   66   19:   60
          30       1:   10   66:   80   21:   60
          31      11:   18   67:   80   21:   60
          32      12:   18   45:   55    1:   20
New grid distribution:   3
           1       1:   13    1:   27    1:   28
           2      14:   25    1:   25    1:   28
           3       1:   13   28:   45    1:   28
           4      40:   96    1:   37   23:   60
           5      40:   96   38:   51    1:   22
           6      26:   39    1:   30   23:   60
           7      77:   96   66:   80   37:   60
           8       1:   13   46:   61    1:   28
           9      40:   96    1:   37    1:   22
          10       1:   13   62:   80    1:   28
          11      26:   39   30:   51    1:   22
          12      26:   39   31:   51   23:   60
          13      26:   76   67:   80   37:   60
          14       1:   13    1:   27   29:   60
          15      14:   25   26:   45   29:   60
          16      14:   25   46:   62    1:   28
          17      75:   96   52:   64    1:   36
          18       1:   12   63:   80   29:   60
          19      14:   25   26:   45    1:   28
          20      40:   96   38:   51   23:   60
          21      14:   25    1:   25   29:   60
          22      26:   76   52:   66   37:   60
          23       1:   13   28:   45   29:   60
          24      77:   96   52:   65   37:   60
          25      26:   74   52:   66    1:   36
          26      75:   96   65:   80    1:   36
          27      14:   25   63:   80    1:   28
          28      13:   25   46:   62   29:   60
          29      26:   74   67:   80    1:   36
          30      26:   39    1:   29    1:   22
          31      13:   25   63:   80   29:   60
          32       1:   12   46:   62   29:   60
Setting up quadratic distribution...
ExtMesh (bp) on 0 =   115 x   148 x   128 =     2178560
PhiOnMesh: Number of (b)points on node 0 =                 9680
PhiOnMesh: nlist on node 0 =               215748

        iscf     Eharris(eV)        E_KS(eV)     FreeEng(eV)     dDmax    Ef(eV) dHmax(eV)
   scf:    1    -2395.895152    -2395.887665    -2395.887665  0.001393 -3.878435  0.022463
     spin moment: S , {S} =    0.00000  -0.00000  -0.00000  -0.00000
   scf:    2    -2395.886794    -2395.887419    -2395.887419  0.001425 -3.887283  0.076661
     spin moment: S , {S} =    0.00000  -0.00000  -0.00000  -0.00000
   scf:    3    -2395.887761    -2395.887702    -2395.887702  0.001067 -3.881460  0.002316
     spin moment: S , {S} =    0.00000  -0.00000  -0.00000  -0.00000
   scf:    4    -2395.887703    -2395.887703    -2395.887703  0.000030 -3.881663  0.000938
     spin moment: S , {S} =    0.00000  -0.00000  -0.00000  -0.00000
   scf:    5    -2395.887703    -2395.887703    -2395.887703  0.000018 -3.881787  0.000379
     spin moment: S , {S} =    0.00000  -0.00000  -0.00000  -0.00000
   scf:    6    -2395.887703    -2395.887703    -2395.887703  0.000008 -3.881815  0.000100
     spin moment: S , {S} =    0.00000  -0.00000  -0.00000  -0.00000
   scf:    7    -2395.887703    -2395.887703    -2395.887703  0.000004 -3.881824  0.000058
     spin moment: S , {S} =    0.00000  -0.00000  -0.00000  -0.00000
   scf:    8    -2395.887703    -2395.887703    -2395.887703  0.000002 -3.881829  0.000026
     spin moment: S , {S} =    0.00000  -0.00000  -0.00000  -0.00000
   scf:    9    -2395.887703    -2395.887703    -2395.887703  0.000001 -3.881832  0.000009
     spin moment: S , {S} =    0.00000  -0.00000  -0.00000  -0.00000
   scf:   10    -2395.887703    -2395.887703    -2395.887703  0.000001 -3.881832  0.000004
     spin moment: S , {S} =    0.00000  -0.00000  -0.00000  -0.00000
   scf:   11    -2395.887703    -2395.887703    -2395.887703  0.000000 -3.881832  0.000001
     spin moment: S , {S} =    0.00000  -0.00000  -0.00000  -0.00000

SCF Convergence by DM+H criterion
max |DM_out - DM_in|         :     0.0000002766
max |H_out - H_in|      (eV) :     0.0000008176
SCF cycle converged after 11 iterations

Using DM_out to compute the final energy and forces
No. of atoms with KB's overlaping orbs in proc 0. Max # of overlaps:      16     138

siesta: E_KS(eV) =            -2395.8877
     spin moment: S , {S} =    0.00000  -0.00000  -0.00000  -0.00000

siesta: Atomic forces (eV/Ang):
     1    0.127910    0.013195   -0.037941
     2    0.039301    0.093156   -0.220736
     3    0.222582    0.081876   -0.003476
     4    0.056085   -0.021581   -0.040189
     5    0.031578    0.015722    0.239084
     6    0.136079   -0.259755    0.166982
     7    0.200926   -0.314121    0.191425
     8    0.031492   -0.003210   -0.019770
     9    0.029181   -0.307880   -0.034305
    10   -0.042687   -0.037287    0.004268
    11   -0.003757   -0.091267   -0.034725
    12   -0.031150   -0.025166   -0.007874
    13    0.001327    0.000564    0.000465
    14   -0.003211   -0.004062   -0.000348
    15    0.040282   -0.031745   -0.081197
    16   -0.132638    0.057632    0.293520
----------------------------------------
   Tot    0.703301   -0.833927    0.415183
----------------------------------------
   Max    0.314121
   Res    0.122078    sqrt( Sum f_i^2 / 3N )
----------------------------------------
   Max    0.314121    constrained

Stress tensor Voigt[x,y,z,yz,xz,xy] (kbar):       -2.43        0.44       -0.56        0.14       -0.02        1.27
(Free)E + p*V (eV/cell)    -2394.5886
Target enthalpy (eV/cell)    -2395.8877

siesta: Stress tensor (static) (eV/Ang**3):
        -0.001501    0.000785   -0.000008
         0.000785    0.000321    0.000041
        -0.000008    0.000041   -0.000132

siesta: Pressure (static):          0.70011162  kBar

siesta: Stress tensor (total) (eV/Ang**3):
        -0.001519    0.000791   -0.000011
         0.000791    0.000276    0.000090
        -0.000011    0.000090   -0.000349

siesta: Pressure (total):          0.85052538  kBar

siesta: Temp_ion =     181.587 K

outcoor: Final (unrelaxed) atomic coordinates (Ang):        
    4.96951342   -6.82957340   -0.17343121   1       1  H
    4.00901341   -6.40325205   -0.04125004   2       2  N
    2.49751554   -7.42359516   -0.09899907   3       3  Si
    2.72232203   -8.89829940   -0.00418577   1       4  H
    0.96392651   -6.71194524   -0.01397721   2       5  N
    1.31707909   -5.02244331    0.62516790   3       6  Si
    0.42403706   -3.13035809   -0.22448532   3       7  Si
   -1.14163483   -3.19740443   -0.00208233   4       8  O
    1.56371383   -1.63904545   -0.07322752   2       9  N
    1.13068289   -0.67264207    0.00168258   1      10  H
    3.32877379   -1.77429730   -0.00665984   3      11  Si
    4.05324763   -0.19064027    0.06598920   2      12  N
    3.50564223    0.70888541    0.00018250   1      13  H
    5.09666416   -0.08175574    0.08630282   1      14  H
    4.35514099   -3.14253443    0.04190792   2      15  N
    3.42290527   -4.64017762   -0.10035386   3      16  Si

siesta: Eigenvalues (eV):
ik =     1
  -22.1905  -22.1905  -21.9212  -21.9212  -21.2992  -21.2992  -21.1470  -21.1470  -19.9785  -19.9785
  -19.3888  -19.3888  -13.9983  -13.9983  -13.4485  -13.4485  -13.2097  -13.2097  -13.1169  -13.1169
  -12.7004  -12.7004  -11.5924  -11.5924  -10.9452  -10.9452  -10.8506  -10.8506   -9.4619   -9.4619
   -8.8931   -8.8931   -8.8634   -8.8634   -8.7042   -8.7042   -8.2660   -8.2660   -7.7469   -7.7469
   -7.5793   -7.5793   -7.3273   -7.3273   -7.1110   -7.1110   -6.7020   -6.7020   -6.4282   -6.4282
   -6.2173   -6.2173   -5.4630   -5.4630   -4.9073   -4.9073   -2.8396   -2.8396   -2.7420   -2.7420
   -2.3215   -2.3215   -2.2133   -2.2133   -1.6692   -1.6692   -1.1831   -1.1831   -0.8998   -0.8998
   -0.6896   -0.6896   -0.3473   -0.3473    0.1410    0.1410    0.4747    0.4747    0.8562    0.8562
    1.0068    1.0068    1.4469    1.4469    1.5387    1.5387    2.0673    2.0673    2.4442    2.4442
    2.6093    2.6093    2.8593    2.8593    3.2008    3.2008    3.2789    3.2789    3.5733    3.5733
    3.9715    3.9715    4.1046    4.1046    4.5852    4.5852    4.6614    4.6614    4.8760    4.8760
    5.1396    5.1396    5.4294    5.4294    5.6181    5.6181    5.7241    5.7241    6.1663    6.1663
    6.7379    6.7379    6.8084    6.8084    6.9506    6.9506    7.0826    7.0826    7.4553    7.4553
    8.0309    8.0309    8.2917    8.2917    8.4041    8.4041    8.5178    8.5178    8.8816    8.8816
    9.1481    9.1481    9.3693    9.3693    9.6308    9.6308    9.9413    9.9413   10.2735   10.2735
   10.7353   10.7353   10.9587   10.9587   11.1388   11.1388   11.4431   11.4431   11.6393   11.6393
   12.0258   12.0258   12.2042   12.2042   12.5940   12.5940   13.6700   13.6700   13.9777   13.9777
   15.0045   15.0045   15.5011   15.5011   15.8997   15.8997   16.2748   16.2748   16.8519   16.8519
   17.5116   17.5116   17.9536   17.9536   18.7271   18.7271   19.0069   19.0069   20.3430   20.3430
   21.0395   21.0395   21.3110   21.3110   22.0391   22.0391   22.4882   22.4882   23.3727   23.3727
   23.9537   23.9537   24.9558   24.9558   26.7623   26.7623   27.7245   27.7245   28.9065   28.9065
   29.5477   29.5477   30.0208   30.0208   30.2209   30.2209   31.1407   31.1407   31.5749   31.5749
   31.8804   31.8804   32.3240   32.3240   33.4074   33.4074   34.4946   34.4946   34.9841   34.9841
   36.0150   36.0150   36.1944   36.1944   36.3950   36.3950   36.9973   36.9973   37.3155   37.3155
   37.5970   37.5970   38.9598   38.9598   39.0957   39.0957   39.4607   39.4607   40.4503   40.4503
   40.7517   40.7517   41.3971   41.3971   42.5992   42.5992   42.7168   42.7168   43.0657   43.0657
   43.7496   43.7496   44.1688   44.1688   45.1910   45.1910   45.4305   45.4305   46.1306   46.1306
   47.7132   47.7132   47.8118   47.8118   48.9941   48.9941   49.1959   49.1959   50.2266   50.2266
   50.9617   50.9617   51.5115   51.5115   52.5800   52.5800   53.9975   53.9975   54.3848   54.3848
   55.3230   55.3230   56.6017   56.6017   57.0161   57.0161   58.3247   58.3247   59.3769   59.3769
   59.7824   59.7824   60.9914   60.9914   61.0683   61.0683   62.6337   62.6337   64.7867   64.7867
   67.0439   67.0439   68.7143   68.7143   71.0480   71.0480   72.2235   72.2235   90.0971   90.0971
   92.1479   92.1479   94.7073   94.7073   98.3036   98.3036  101.0866  101.0866  108.8637  108.8637
  121.8680  121.8680  129.2749  129.2749  140.3590  140.3590
siesta: Fermi energy =      -3.881832 eV

siesta: Program's energy decomposition (eV):
siesta: Ebs     =      -658.916784
siesta: Eions   =      2040.955082
siesta: Ena     =       222.086745
siesta: Ekin    =      1677.370287
siesta: Enl     =     -1647.495457
siesta: Eso     =        -0.002243
siesta: Edftu   =         0.000000
siesta: DEna    =        29.501870
siesta: DUscf   =         8.074017
siesta: DUext   =         0.000000
siesta: Exc     =      -644.467840
siesta: eta*DQ  =         0.000000
siesta: Emadel  =         0.000000
siesta: Emeta   =         0.000000
siesta: Emolmec =         0.000000
siesta: Ekinion =         0.352065
siesta: Eharris =     -2395.535638
siesta: Etot    =     -2395.535638
siesta: FreeEng =     -2395.535638

siesta: Final energy (eV):
siesta:  Band Struct. =    -658.916784
siesta:       Kinetic =    1677.370287
siesta:       Hartree =    3978.579558
siesta:       Edftu   =       0.000000
siesta:       Eso     =      -0.002243
siesta:    Ext. field =       0.000000
siesta:   Exch.-corr. =    -644.467840
siesta:  Ion-electron =   -9456.717688
siesta:       Ion-ion =    2049.350222
siesta:       Ekinion =       0.352065
siesta:         Total =   -2395.535638
siesta:         Fermi =      -3.881832

siesta: Atomic forces (eV/Ang):
siesta:      1    0.127910    0.013195   -0.037941
siesta:      2    0.039301    0.093156   -0.220736
siesta:      3    0.222582    0.081876   -0.003476
siesta:      4    0.056085   -0.021581   -0.040189
siesta:      5    0.031578    0.015722    0.239084
siesta:      6    0.136079   -0.259755    0.166982
siesta:      7    0.200926   -0.314121    0.191425
siesta:      8    0.031492   -0.003210   -0.019770
siesta:      9    0.029181   -0.307880   -0.034305
siesta:     10   -0.042687   -0.037287    0.004268
siesta:     11   -0.003757   -0.091267   -0.034725
siesta:     12   -0.031150   -0.025166   -0.007874
siesta:     13    0.001327    0.000564    0.000465
siesta:     14   -0.003211   -0.004062   -0.000348
siesta:     15    0.040282   -0.031745   -0.081197
siesta:     16   -0.132638    0.057632    0.293520
siesta: ----------------------------------------
siesta:    Tot    0.703301   -0.833927    0.415183

siesta: Stress tensor (static) (eV/Ang**3):
siesta:    -0.001501    0.000785   -0.000008
siesta:     0.000785    0.000321    0.000041
siesta:    -0.000008    0.000041   -0.000132

siesta: Cell volume =       2447.125524 Ang**3

siesta: Pressure (static):
siesta:                Solid            Molecule  Units
siesta:           0.00000476          0.00000764  Ry/Bohr**3
siesta:           0.00043697          0.00070165  eV/Ang**3
siesta:           0.70011162          1.12418409  kBar
(Free)E+ p_basis*V_orbitals  =       -2384.898027
(Free)Eharris+ p_basis*V_orbitals  =       -2384.898027
     spin moment: S , {S} =    0.00000  -0.00000  -0.00000  -0.00000

siesta: Electric dipole (a.u.)  =    3.169116    0.000000   -0.287464
siesta: Electric dipole (Debye) =    8.055094    0.000000   -0.730661

cite: Please see "Guanine.bib" for an exhaustive BiBTeX file.
cite: Please clearly indicate Siesta version in published work: v4.1.5-1-g384057250
cite: This calculation has made use of the following articles
cite: which are encouraged to be cited in a published work.
        Primary SIESTA paper
          DOI: www.doi.org/10.1088/0953-8984/14/11/302
        Spin-orbit coupling (on-site approximation)
          DOI: www.doi.org/10.1088/0953-8984/19/19/489001


WARNING: alloc-realloc-dealloc name mismatch
         Name: atomlist isa
         Size:               -64. Bytes
         Node:     0
         Subsequent mismatches will not be reported
>> End of run:  14-OCT-2023  14:43:54
Job completed
