Siesta Version  : v4.1.5-1-g384057250
Architecture    : gcc
Compiler version: GNU Fortran (Ubuntu 11.4.0-1ubuntu1~22.04) 11.4.0
Compiler flags  : mpifort -O2 -fPIC -ftree-vectorize -fallow-argument-mismatch
PP flags        : -DFC_HAVE_ABORT -DMPI -DSIESTA__FLOOK -DSIESTA__METIS -DSIESTA__MUMPS -DCDF -DNCDF -DNCDF_4 -DNCDF_PARALLEL -DSIESTA__MRRR -DSIESTA__ELPA
Libraries       : libncdf.a libfdict.a  -lflookall -ldl -lnetcdff -lnetcdf -lhdf5_hl -lhdf5 -lhdf5_fortran -lz -lscalapack-openmpi -lopenblas -lmetis -lzmumps -lcmumps -ldmumps -lmumps_common -lpord -lsmumps -lesmumps -lscotch -lscotcherr -fopenmp -lelpa
PARALLEL version
NetCDF support
NetCDF-4 support
NetCDF-4 MPI-IO support
METIS ordering support
Lua support

* Running on 8 nodes in parallel
>> Start of run:   1-FEB-2024  23:08:27

                           ***********************       
                           *  WELCOME TO SIESTA  *       
                           ***********************       

reinit: Reading from standard input
reinit: Dumped input in INPUT_TMP.78203
************************** Dump of input data file ****************************
# mpirun -np 4 siesta-4.1.5 < GC.fdf > GC.out &
SystemLabel      GC
NumberOfAtoms    29
NumberOfSpecies  4
%block ChemicalSpeciesLabel
    1    1  H
    2    7  N
    3   14  Si
    4    8  O
%endblock ChemicalSpeciesLabel
############################################
# This overrides Defaults.fdf configuration
############################################
MD.TypeOfRun                Verlet # CG, Verlet
MD.Steps                    0
MaxSCFIterations            200
SCF.MustConverge            F
AtomicCoordinatesFormat NotScaledCartesianAng
%block AtomicCoordinatesAndAtomicSpecies
    -0.9045332774664412 6.4832085557282095 0.0  1  1  H
    -1.6110200074664411 5.693172375728209 0.0  2  2  N
    -3.341306917466441 6.134536285728209 0.0  3  3  Si
    -3.497086597466441 7.624528545728209 0.0  1  4  H
    -4.864628537466441 4.575628765728209 0.0  3  5  Si
    -6.3478161674664415 4.818459125728209 0.0  1  6  H
    -3.666237677466441 2.6623526057282088 0.0  3  7  Si
    -4.432263137466441 1.1296358657282088 0.0  2  8  N
    -3.842016587466441 0.17242283572820893 0.0  1  9  H
    -5.483885457466441 1.049175635728209 0.0  1  10  H
    -1.950037617466441 2.7175269157282087 0.0  2  11  N
    -0.8750149974664412 4.047865755728209 0.0  3  12  Si
    0.7336583225335587 4.029055495728209 0.0  4  13  O
    5.6164483 -7.44953905 0.0  1  14  H
    4.58206954 -7.2320376 0.0  2  15  N
    3.29666389 -8.492636 0.0  3  16  Si
    3.80117524 -9.90371886 -0.0  1  17  H
    1.65934232 -8.01362137 0.0  2  18  N
    1.68097912 -6.20463398 -0.0  3  19  Si
    0.54543521 -4.28636135 0.0  3  20  Si
    -1.03431493 -3.94450034 0.0  4  21  O
    1.73226934 -2.87719605 0.0  2  22  N
    1.20957366 -1.92961761 -0.0  1  23  H
    3.50853448 -2.77677601 0.0  3  24  Si
    4.13684451 -1.17938608 0.0  2  25  N
    3.54296161 -0.26248101 0.0  1  26  H
    5.18364407 -1.05231197 -0.0  1  27  H
    4.63288658 -4.07521596 -0.0  2  28  N
    3.79410501 -5.58634043 0.0  3  29  Si
%endblock AtomicCoordinatesAndAtomicSpecies
#############
# Unit Cell
#############
LatticeConstant 1.0 Ang
%block LatticeVectors
    30.00000    0.000000    0.000000
    0.000000    45.00000    0.000000
    0.000000    0.000000    10.00000
%endblock LatticeVectors
%include ../../../../Defaults.fdf
************************** End of input data file *****************************

reinit: -----------------------------------------------------------------------
reinit: System Name: 
reinit: -----------------------------------------------------------------------
reinit: System Label: GC
reinit: -----------------------------------------------------------------------

initatom: Reading input for the pseudopotentials and atomic orbitals ----------
Species number:   1 Atomic number:    1 Label: H
Species number:   2 Atomic number:    7 Label: N
Species number:   3 Atomic number:   14 Label: Si
Species number:   4 Atomic number:    8 Label: O

Ground state valence configuration:   1s01
Reading pseudopotential information in formatted form from H.psf

Pseudopotential generated from a relativistic atomic calculation

Valence configuration for pseudopotential generation:
1s( 1.00) rc: 0.01
2p( 0.00) rc: 0.60
3d( 0.00) rc: 1.99
4f( 0.00) rc: 2.49
Ground state valence configuration:   2s02  2p03
Reading pseudopotential information in formatted form from N.psf

Pseudopotential generated from a relativistic atomic calculation

Valence configuration for pseudopotential generation:
2s( 2.00) rc: 0.94
2p( 3.00) rc: 0.59
3d( 0.00) rc: 3.46
4f( 0.00) rc: 2.47
Ground state valence configuration:   3s02  3p02
Reading pseudopotential information in formatted form from Si.psf

Pseudopotential generated from a relativistic atomic calculation

Valence configuration for pseudopotential generation:
3s( 2.00) rc: 1.67
3p( 2.00) rc: 2.04
3d( 0.00) rc: 2.89
4f( 0.00) rc: 2.49
Ground state valence configuration:   2s02  2p04
Reading pseudopotential information in formatted form from O.psf

Pseudopotential generated from a relativistic atomic calculation

Valence configuration for pseudopotential generation:
2s( 2.00) rc: 0.45
2p( 4.00) rc: 0.92
3d( 0.00) rc: 2.24
4f( 0.00) rc: 0.25
For H, standard SIESTA heuristics set lmxkb to 2
 (one more than the basis l, including polarization orbitals).
Use PS.lmax or PS.KBprojectors blocks to override.
For N, standard SIESTA heuristics set lmxkb to 3
 (one more than the basis l, including polarization orbitals).
Use PS.lmax or PS.KBprojectors blocks to override.
For Si, standard SIESTA heuristics set lmxkb to 3
 (one more than the basis l, including polarization orbitals).
Use PS.lmax or PS.KBprojectors blocks to override.
For O, standard SIESTA heuristics set lmxkb to 3
 (one more than the basis l, including polarization orbitals).
Use PS.lmax or PS.KBprojectors blocks to override.

<basis_specs>
===============================================================================
H                    Z=   1    Mass=  1.0100        Charge= 0.17977+309
Lmxo=0 Lmxkb= 2    BasisType=split      Semic=F
L=0  Nsemic=0  Cnfigmx=1
          i=1  nzeta=2  polorb=1  (1s)
            splnorm:   0.62000    
               vcte:    0.0000    
               rinn:    0.0000    
               qcoe:    0.0000    
               qyuk:    0.0000    
               qwid:   0.10000E-01
                rcs:    0.0000      0.0000    
            lambdas:    1.0000      1.0000    
-------------------------------------------------------------------------------
L=0  Nkbl=1  erefs: 0.17977+309
L=1  Nkbl=1  erefs: 0.17977+309
L=2  Nkbl=1  erefs: 0.17977+309
===============================================================================
</basis_specs>

atom: Called for H                     (Z =   1)

read_vps: Pseudopotential generation method:
read_vps: ATM4.2.7  Troullier-Martins                       
Valence charge for ps generation:    1.00000

xc_check: Exchange-correlation functional:
xc_check: GGA Perdew, Burke & Ernzerhof 1996
V l=0 = -2*Zval/r beyond r=  0.0098
V l=1 = -2*Zval/r beyond r=  0.5817
V l=2 = -2*Zval/r beyond r=  1.9372
All V_l potentials equal beyond r=  1.9372
This should be close to max(r_c) in ps generation
All pots = -2*Zval/r beyond r=  1.9372

VLOCAL1: 99.0% of the norm of Vloc inside     11.567 Ry
VLOCAL1: 99.9% of the norm of Vloc inside     26.362 Ry
atom: Maximum radius for 4*pi*r*r*local-pseudopot. charge    2.25106
atom: Maximum radius for r*vlocal+2*Zval:    1.91306
GHOST: No ghost state for L =  0
GHOST: No ghost state for L =  1
GHOST: No ghost state for L =  2

KBgen: Kleinman-Bylander projectors: 
   l= 0   rc=  2.036604   el= -0.477180   Ekb= -6.081590   kbcos= -0.277285
   l= 1   rc=  2.195416   el=  0.001076   Ekb= -0.926943   kbcos= -0.034643
   l= 2   rc=  2.251056   el=  0.002010   Ekb= -0.130941   kbcos= -0.009788

KBgen: Total number of Kleinman-Bylander projectors:    9
atom: -------------------------------------------------------------------------

atom: SANKEY-TYPE ORBITALS:
atom: Selected multiple-zeta basis: split     

SPLIT: Orbitals with angular momentum L= 0

SPLIT: Basis orbitals for state 1s

SPLIT: PAO cut-off radius determined from an
SPLIT: energy shift=  0.002000 Ry

   izeta = 1
                 lambda =    1.000000
                     rc =    6.518340
                 energy =   -0.475305
                kinetic =    0.912139
    potential(screened) =   -1.387444
       potential(ionic) =   -1.907295

   izeta = 2
                 rmatch =    2.141150
              splitnorm =    0.620000
                 energy =    0.566467
                kinetic =    3.772856
    potential(screened) =   -3.206389
       potential(ionic) =   -3.759093

POLgen: Perturbative polarization orbital with L=  1

POLgen: Polarization orbital for state 1s

   izeta = 1
                     rc =    6.518340
                 energy =    0.533861
                kinetic =    1.121086
    potential(screened) =   -0.587225
       potential(ionic) =   -1.053027
atom: Total number of Sankey-type orbitals:  5

atm_pop: Valence configuration (for local Pseudopot. screening):
 1s( 1.00)                                                            
Vna: chval, zval:    1.00000   1.00000

Vna:  Cut-off radius for the neutral-atom potential:   6.518340

atom: _________________________________________________________________________

<basis_specs>
===============================================================================
N                    Z=   7    Mass=  14.010        Charge= 0.17977+309
Lmxo=1 Lmxkb= 3    BasisType=split      Semic=F
L=0  Nsemic=0  Cnfigmx=2
          i=1  nzeta=2  polorb=0  (2s)
            splnorm:   0.28000    
               vcte:    0.0000    
               rinn:    0.0000    
               qcoe:    0.0000    
               qyuk:    0.0000    
               qwid:   0.10000E-01
                rcs:    0.0000      0.0000    
            lambdas:    1.0000      1.0000    
L=1  Nsemic=0  Cnfigmx=2
          i=1  nzeta=2  polorb=1  (2p)
            splnorm:   0.28000    
               vcte:    0.0000    
               rinn:    0.0000    
               qcoe:    0.0000    
               qyuk:    0.0000    
               qwid:   0.10000E-01
                rcs:    0.0000      0.0000    
            lambdas:    1.0000      1.0000    
-------------------------------------------------------------------------------
L=0  Nkbl=1  erefs: 0.17977+309
L=1  Nkbl=1  erefs: 0.17977+309
L=2  Nkbl=1  erefs: 0.17977+309
L=3  Nkbl=1  erefs: 0.17977+309
===============================================================================
</basis_specs>

atom: Called for N                     (Z =   7)

read_vps: Pseudopotential generation method:
read_vps: ATM4.2.7  Troullier-Martins                       
Valence charge for ps generation:    5.00000

xc_check: Exchange-correlation functional:
xc_check: GGA Perdew, Burke & Ernzerhof 1996
V l=0 = -2*Zval/r beyond r=  1.2889
V l=1 = -2*Zval/r beyond r=  1.2889
V l=2 = -2*Zval/r beyond r=  3.4178
V l=3 = -2*Zval/r beyond r=  2.4084
All V_l potentials equal beyond r=  3.3753
This should be close to max(r_c) in ps generation
All pots = -2*Zval/r beyond r=  3.4178

VLOCAL1: 99.0% of the norm of Vloc inside      3.810 Ry
VLOCAL1: 99.9% of the norm of Vloc inside      8.683 Ry
atom: Maximum radius for 4*pi*r*r*local-pseudopot. charge    4.02088
atom: Maximum radius for r*vlocal+2*Zval:    3.54838
GHOST: No ghost state for L =  0
GHOST: No ghost state for L =  1
GHOST: No ghost state for L =  2
GHOST: No ghost state for L =  3

KBgen: Kleinman-Bylander projectors: 
   l= 0   rc=  3.417763   el= -1.365098   Ekb= -4.433130   kbcos= -0.707855
   l= 1   rc=  3.375302   el= -0.521201   Ekb=-13.264039   kbcos= -0.535594
   l= 2   rc=  3.872880   el=  0.001991   Ekb= -0.641094   kbcos= -0.062456
   l= 3   rc=  3.970931   el=  0.003093   Ekb= -0.474517   kbcos= -0.018236

KBgen: Total number of Kleinman-Bylander projectors:   16
atom: -------------------------------------------------------------------------

atom: SANKEY-TYPE ORBITALS:
atom: Selected multiple-zeta basis: split     

SPLIT: Orbitals with angular momentum L= 0

SPLIT: Basis orbitals for state 2s

SPLIT: PAO cut-off radius determined from an
SPLIT: energy shift=  0.002000 Ry

   izeta = 1
                 lambda =    1.000000
                     rc =    4.730425
                 energy =   -1.363399
                kinetic =    1.245246
    potential(screened) =   -2.608645
       potential(ionic) =   -8.121105

   izeta = 2
                 rmatch =    2.531849
              splitnorm =    0.280000
                 energy =   -0.959908
                kinetic =    2.409435
    potential(screened) =   -3.369343
       potential(ionic) =   -9.427975

SPLIT: Orbitals with angular momentum L= 1

SPLIT: Basis orbitals for state 2p

SPLIT: PAO cut-off radius determined from an
SPLIT: energy shift=  0.002000 Ry

   izeta = 1
                 lambda =    1.000000
                     rc =    5.924108
                 energy =   -0.519262
                kinetic =    3.672940
    potential(screened) =   -4.192202
       potential(ionic) =   -9.518354

   izeta = 2
                 rmatch =    2.531849
              splitnorm =    0.280000
                 energy =   -0.104258
                kinetic =    6.807538
    potential(screened) =   -6.911796
       potential(ionic) =  -13.149920

POLgen: Perturbative polarization orbital with L=  2

POLgen: Polarization orbital for state 2p

   izeta = 1
                     rc =    5.924108
                 energy =    1.427508
                kinetic =    2.872379
    potential(screened) =   -1.444871
       potential(ionic) =   -5.563644
atom: Total number of Sankey-type orbitals: 13

atm_pop: Valence configuration (for local Pseudopot. screening):
 2s( 2.00)                                                            
 2p( 3.00)                                                            
Vna: chval, zval:    5.00000   5.00000

Vna:  Cut-off radius for the neutral-atom potential:   5.924108

atom: _________________________________________________________________________

<basis_specs>
===============================================================================
Si                   Z=  14    Mass=  28.090        Charge= 0.17977+309
Lmxo=1 Lmxkb= 3    BasisType=split      Semic=F
L=0  Nsemic=0  Cnfigmx=3
          i=1  nzeta=2  polorb=0  (3s)
            splnorm:   0.28000    
               vcte:    0.0000    
               rinn:    0.0000    
               qcoe:    0.0000    
               qyuk:    0.0000    
               qwid:   0.10000E-01
                rcs:    0.0000      0.0000    
            lambdas:    1.0000      1.0000    
L=1  Nsemic=0  Cnfigmx=3
          i=1  nzeta=2  polorb=1  (3p)
            splnorm:   0.28000    
               vcte:    0.0000    
               rinn:    0.0000    
               qcoe:    0.0000    
               qyuk:    0.0000    
               qwid:   0.10000E-01
                rcs:    0.0000      0.0000    
            lambdas:    1.0000      1.0000    
-------------------------------------------------------------------------------
L=0  Nkbl=1  erefs: 0.17977+309
L=1  Nkbl=1  erefs: 0.17977+309
L=2  Nkbl=1  erefs: 0.17977+309
L=3  Nkbl=1  erefs: 0.17977+309
===============================================================================
</basis_specs>

atom: Called for Si                    (Z =  14)

read_vps: Pseudopotential generation method:
read_vps: ATM4.2.7  Troullier-Martins                       
Valence charge for ps generation:    4.00000

xc_check: Exchange-correlation functional:
xc_check: GGA Perdew, Burke & Ernzerhof 1996
V l=0 = -2*Zval/r beyond r=  2.7826
V l=1 = -2*Zval/r beyond r=  2.7826
V l=2 = -2*Zval/r beyond r=  2.9253
V l=3 = -2*Zval/r beyond r=  2.7826
All V_l potentials equal beyond r=  2.8530
This should be close to max(r_c) in ps generation
All pots = -2*Zval/r beyond r=  2.9253

VLOCAL1: 99.0% of the norm of Vloc inside      5.333 Ry
VLOCAL1: 99.9% of the norm of Vloc inside     12.154 Ry
atom: Maximum radius for 4*pi*r*r*local-pseudopot. charge    3.39869
atom: Maximum radius for r*vlocal+2*Zval:    2.96205
GHOST: No ghost state for L =  0
GHOST: No ghost state for L =  1
GHOST: No ghost state for L =  2
GHOST: No ghost state for L =  3

KBgen: Kleinman-Bylander projectors: 
   l= 0   rc=  3.075247   el= -0.794092   Ekb=  5.879390   kbcos=  0.167461
   l= 1   rc=  3.153101   el= -0.300068   Ekb=  2.642817   kbcos=  0.058301
   l= 2   rc=  3.273594   el=  0.001958   Ekb= -1.185135   kbcos= -0.104411
   l= 3   rc=  3.232927   el=  0.003046   Ekb= -0.497174   kbcos= -0.015889

KBgen: Total number of Kleinman-Bylander projectors:   16
atom: -------------------------------------------------------------------------

atom: SANKEY-TYPE ORBITALS:
atom: Selected multiple-zeta basis: split     

SPLIT: Orbitals with angular momentum L= 0

SPLIT: Basis orbitals for state 3s

SPLIT: PAO cut-off radius determined from an
SPLIT: energy shift=  0.002000 Ry

   izeta = 1
                 lambda =    1.000000
                     rc =    6.429618
                 energy =   -0.792283
                kinetic =    0.525293
    potential(screened) =   -1.317576
       potential(ionic) =   -3.744923

   izeta = 2
                 rmatch =    3.998416
              splitnorm =    0.280000
                 energy =   -0.583081
                kinetic =    1.069570
    potential(screened) =   -1.652651
       potential(ionic) =   -4.235185

SPLIT: Orbitals with angular momentum L= 1

SPLIT: Basis orbitals for state 3p

SPLIT: PAO cut-off radius determined from an
SPLIT: energy shift=  0.002000 Ry

   izeta = 1
                 lambda =    1.000000
                     rc =    8.464845
                 energy =   -0.298236
                kinetic =    0.785360
    potential(screened) =   -1.083596
       potential(ionic) =   -3.273779

   izeta = 2
                 rmatch =    4.587816
              splitnorm =    0.280000
                 energy =   -0.131871
                kinetic =    1.403687
    potential(screened) =   -1.535557
       potential(ionic) =   -4.015310

POLgen: Perturbative polarization orbital with L=  2

POLgen: Polarization orbital for state 3p

   izeta = 1
                     rc =    8.464845
                 energy =    0.321949
                kinetic =    1.055677
    potential(screened) =   -0.733728
       potential(ionic) =   -2.672950
atom: Total number of Sankey-type orbitals: 13

atm_pop: Valence configuration (for local Pseudopot. screening):
 3s( 2.00)                                                            
 3p( 2.00)                                                            
Vna: chval, zval:    4.00000   4.00000

Vna:  Cut-off radius for the neutral-atom potential:   8.464845

atom: _________________________________________________________________________

<basis_specs>
===============================================================================
O                    Z=   8    Mass=  16.000        Charge= 0.17977+309
Lmxo=1 Lmxkb= 3    BasisType=split      Semic=F
L=0  Nsemic=0  Cnfigmx=2
          i=1  nzeta=2  polorb=0  (2s)
            splnorm:   0.28000    
               vcte:    0.0000    
               rinn:    0.0000    
               qcoe:    0.0000    
               qyuk:    0.0000    
               qwid:   0.10000E-01
                rcs:    0.0000      0.0000    
            lambdas:    1.0000      1.0000    
L=1  Nsemic=0  Cnfigmx=2
          i=1  nzeta=2  polorb=1  (2p)
            splnorm:   0.28000    
               vcte:    0.0000    
               rinn:    0.0000    
               qcoe:    0.0000    
               qyuk:    0.0000    
               qwid:   0.10000E-01
                rcs:    0.0000      0.0000    
            lambdas:    1.0000      1.0000    
-------------------------------------------------------------------------------
L=0  Nkbl=1  erefs: 0.17977+309
L=1  Nkbl=1  erefs: 0.17977+309
L=2  Nkbl=1  erefs: 0.17977+309
L=3  Nkbl=1  erefs: 0.17977+309
===============================================================================
</basis_specs>

atom: Called for O                     (Z =   8)

read_vps: Pseudopotential generation method:
read_vps: ATM4.2.7  Troullier-Martins                       
Valence charge for ps generation:    6.00000

xc_check: Exchange-correlation functional:
xc_check: GGA Perdew, Burke & Ernzerhof 1996
V l=0 = -2*Zval/r beyond r=  1.1000
V l=1 = -2*Zval/r beyond r=  1.1000
V l=2 = -2*Zval/r beyond r=  2.2154
V l=3 = -2*Zval/r beyond r=  1.1000
All V_l potentials equal beyond r=  2.2154
This should be close to max(r_c) in ps generation
All pots = -2*Zval/r beyond r=  2.2154

VLOCAL1: 99.0% of the norm of Vloc inside      8.845 Ry
VLOCAL1: 99.9% of the norm of Vloc inside     20.157 Ry
atom: Maximum radius for 4*pi*r*r*local-pseudopot. charge    2.67231
atom: Maximum radius for r*vlocal+2*Zval:    2.32897
GHOST: No ghost state for L =  0
GHOST: No ghost state for L =  1
GHOST: No ghost state for L =  2
GHOST: No ghost state for L =  3

KBgen: Kleinman-Bylander projectors: 
   l= 0   rc=  2.243238   el= -1.759686   Ekb=**********   kbcos= -0.171774
   l= 1   rc=  2.328968   el= -0.663873   Ekb=-14.506792   kbcos= -0.519897
   l= 2   rc=  2.573941   el=  0.002031   Ekb= -1.137373   kbcos= -0.019581
   l= 3   rc=  2.606321   el=  0.003153   Ekb= -1.013546   kbcos= -0.003122

KBgen: Total number of Kleinman-Bylander projectors:   16
atom: -------------------------------------------------------------------------

atom: SANKEY-TYPE ORBITALS:
atom: Selected multiple-zeta basis: split     

SPLIT: Orbitals with angular momentum L= 0

SPLIT: Basis orbitals for state 2s

SPLIT: PAO cut-off radius determined from an
SPLIT: energy shift=  0.002000 Ry

   izeta = 1
                 lambda =    1.000000
                     rc =    4.243912
                 energy =   -1.758270
                kinetic =    3.286084
    potential(screened) =   -5.044353
       potential(ionic) =  -12.921184

   izeta = 2
                 rmatch =    2.187845
              splitnorm =    0.280000
                 energy =   -0.885018
                kinetic =    8.134434
    potential(screened) =   -9.019452
       potential(ionic) =  -17.710645

SPLIT: Orbitals with angular momentum L= 1

SPLIT: Basis orbitals for state 2p

SPLIT: PAO cut-off radius determined from an
SPLIT: energy shift=  0.002000 Ry

   izeta = 1
                 lambda =    1.000000
                     rc =    5.314825
                 energy =   -0.661986
                kinetic =    4.917472
    potential(screened) =   -5.579458
       potential(ionic) =  -13.236259

   izeta = 2
                 rmatch =    2.160663
              splitnorm =    0.280000
                 energy =   -0.068760
                kinetic =    9.183374
    potential(screened) =   -9.252135
       potential(ionic) =  -18.274251

POLgen: Perturbative polarization orbital with L=  2

POLgen: Polarization orbital for state 2p

   izeta = 1
                     rc =    5.314825
                 energy =    1.970580
                kinetic =    3.886128
    potential(screened) =   -1.915547
       potential(ionic) =   -7.749584
atom: Total number of Sankey-type orbitals: 13

atm_pop: Valence configuration (for local Pseudopot. screening):
 2s( 2.00)                                                            
 2p( 4.00)                                                            
Vna: chval, zval:    6.00000   6.00000

Vna:  Cut-off radius for the neutral-atom potential:   5.314825

atom: _________________________________________________________________________

prinput: Basis input ----------------------------------------------------------

PAO.BasisType split     

%block ChemicalSpeciesLabel
    1    1 H                       # Species index, atomic number, species label
    2    7 N                       # Species index, atomic number, species label
    3   14 Si                      # Species index, atomic number, species label
    4    8 O                       # Species index, atomic number, species label
%endblock ChemicalSpeciesLabel

%block PAO.Basis                 # Define Basis set
H                     1                    # Species label, number of l-shells
 n=1   0   2 P   1                   # n, l, Nzeta, Polarization, NzetaPol
   6.518      2.141   
   1.000      1.000   
N                     2                    # Species label, number of l-shells
 n=2   0   2                         # n, l, Nzeta 
   4.730      2.532   
   1.000      1.000   
 n=2   1   2 P   1                   # n, l, Nzeta, Polarization, NzetaPol
   5.924      2.532   
   1.000      1.000   
Si                    2                    # Species label, number of l-shells
 n=3   0   2                         # n, l, Nzeta 
   6.430      3.998   
   1.000      1.000   
 n=3   1   2 P   1                   # n, l, Nzeta, Polarization, NzetaPol
   8.465      4.588   
   1.000      1.000   
O                     2                    # Species label, number of l-shells
 n=2   0   2                         # n, l, Nzeta 
   4.244      2.188   
   1.000      1.000   
 n=2   1   2 P   1                   # n, l, Nzeta, Polarization, NzetaPol
   5.315      2.161   
   1.000      1.000   
%endblock PAO.Basis

prinput: ----------------------------------------------------------------------

Dumping basis to NetCDF file H.ion.nc
Dumping basis to NetCDF file N.ion.nc
Dumping basis to NetCDF file Si.ion.nc
Dumping basis to NetCDF file O.ion.nc
coor:   Atomic-coordinates input format  =     Cartesian coordinates
coor:                                          (in Angstroms)

siesta: Atomic coordinates (Bohr) and species
siesta:     -1.70932  12.25149   0.00000  1        1
siesta:     -3.04439  10.75854   0.00000  2        2
siesta:     -6.31416  11.59260   0.00000  3        3
siesta:     -6.60854  14.40828   0.00000  1        4
siesta:     -9.19282   8.64669   0.00000  3        5
siesta:    -11.99564   9.10557   0.00000  1        6
siesta:     -6.92819   5.03112   0.00000  3        7
siesta:     -8.37577   2.13470   0.00000  2        8
siesta:     -7.26036   0.32583   0.00000  1        9
siesta:    -10.36305   1.98266   0.00000  1       10
siesta:     -3.68504   5.13538   0.00000  2       11
siesta:     -1.65354   7.64936   0.00000  3       12
siesta:      1.38641   7.61381   0.00000  4       13
siesta:     10.61355 -14.07759   0.00000  1       14
siesta:      8.65886 -13.66658   0.00000  2       15
siesta:      6.22979 -16.04876   0.00000  3       16
siesta:      7.18318 -18.71532  -0.00000  1       17
siesta:      3.13570 -15.14356   0.00000  2       18
siesta:      3.17659 -11.72506  -0.00000  3       19
siesta:      1.03072  -8.10005   0.00000  3       20
siesta:     -1.95457  -7.45403   0.00000  4       21
siesta:      3.27352  -5.43711   0.00000  2       22
siesta:      2.28576  -3.64645  -0.00000  1       23
siesta:      6.63017  -5.24735   0.00000  3       24
siesta:      7.81751  -2.22872   0.00000  2       25
siesta:      6.69523  -0.49602   0.00000  1       26
siesta:      9.79567  -1.98858  -0.00000  1       27
siesta:      8.75489  -7.70105  -0.00000  2       28
siesta:      7.16982 -10.55666   0.00000  3       29

siesta: System type = molecule  

initatomlists: Number of atoms, orbitals, and projectors:     29   297   394

siesta: ******************** Simulation parameters ****************************
siesta:
siesta: The following are some of the parameters of the simulation.
siesta: A complete list of the parameters used, including default values,
siesta: can be found in file out.fdf
siesta:
redata: Spin configuration                          = spin-orbit
redata: Number of spin components                   = 8
redata: Time-Reversal Symmetry                      = F
redata: Spin spiral                                 = F
############################################################
This spin-orbit implementation uses a local approximation.
From 4.2 and onwards the full non-local approximation is implemented
You are strongly advised to use >=4.2 versions!
############################################################
redata: Long output                                 =   F
redata: Number of Atomic Species                    =        4
redata: Charge density info will appear in .RHO file
redata: Write Mulliken Pop.                         = NO
redata: Matel table size (NRTAB)                    =     1024
redata: Mesh Cutoff                                 =   340.0000 Ry
redata: Net charge of the system                    =     0.0000 |e|
redata: Min. number of SCF Iter                     =        1
redata: Max. number of SCF Iter                     =      200
redata: SCF mix quantity                            = Hamiltonian
redata: Mix DM or H after convergence               =   F
redata: Recompute H after scf cycle                 =   F
redata: Mix DM in first SCF step                    =   T
redata: Write Pulay info on disk                    =   F
redata: New DM Occupancy tolerance                  = 0.000000000001
redata: No kicks to SCF
redata: DM Mixing Weight for Kicks                  =     0.5000
redata: Require Harris convergence for SCF          =   F
redata: Harris energy tolerance for SCF             =     0.000100 eV
redata: Require DM convergence for SCF              =   T
redata: DM tolerance for SCF                        =     0.000008
redata: Require EDM convergence for SCF             =   F
redata: EDM tolerance for SCF                       =     0.001000 eV
redata: Require H convergence for SCF               =   T
redata: Hamiltonian tolerance for SCF               =     0.000001 eV
redata: Require (free) Energy convergence for SCF   =   F
redata: (free) Energy tolerance for SCF             =     0.000100 eV
redata: Using Saved Data (generic)                  =   F
redata: Use continuation files for DM               =   T
redata: Neglect nonoverlap interactions             =   F
redata: Method of Calculation                       = Diagonalization
redata: Electronic Temperature                      =   299.9978 K
redata: Fix the spin of the system                  =   F
redata: Dynamics option                             = Verlet MD run
redata: Initial MD time step                        =        1
redata:   Final MD time step                        =        1
redata: Length of MD time step                      =     0.5000 fs
redata: Initial Temperature of MD run               =     0.0000 K
redata: Perform a MD quench                         =   F
mix.SCF: Pulay mixing                            = Pulay
mix.SCF:    Variant                              = stable
mix.SCF:    History steps                        = 6
mix.SCF:    Linear mixing weight                 =     0.250000
mix.SCF:    Mixing weight                        =     0.250000
mix.SCF:    SVD condition                        = 0.1000E-07
mix.SCF:    Restart steps                        = 24
mix.SCF:    Restart save steps                   = 3
mix.SCF: Spin-component mixing                   all
redata: Save all siesta data in one NC              =   F
redata: ***********************************************************************

%block SCF.Mixers
  Pulay
%endblock SCF.Mixers

%block SCF.Mixer.Pulay
  # Mixing method
  method pulay
  variant stable

  # Mixing options
  weight 0.2500
  weight.linear 0.2500
  history 6
  restart 24
  restart.save 3
%endblock SCF.Mixer.Pulay

Size of DM history Fstack: 3
Total number of electrons:    98.000000
Total ionic charge:    98.000000

* ProcessorY, Blocksize:    2  24


* Orbital distribution balance (max,min):    48    24


Time-reversal symmetry not used.

siesta: k-grid: Number of k-points =     1
siesta: k-grid: Cutoff (effective) =     5.000 Ang
siesta: k-grid: Supercell and displacements
siesta: k-grid:    1   0   0      0.000
siesta: k-grid:    0   1   0      0.000
siesta: k-grid:    0   0   1      0.000

diag: Algorithm                                     = ELPA-1stage
diag: Parallel over k                               =   F
diag: Use parallel 2D distribution                  =   T
diag: Parallel block-size                           = 24
diag: Parallel distribution                         =     2 x     4
diag: Used triangular part                          = Lower
diag: Absolute tolerance                            =  0.100E-15
diag: Orthogonalization factor                      =  0.100E-05
diag: Memory factor                                 =  1.0000


ts: **************************************************************
ts: Save H and S matrices                           =    F
ts: Save DM and EDM matrices                        =    F
ts: Only save the overlap matrix S                  =    F
ts: **************************************************************

************************ Begin: TS CHECKS AND WARNINGS ************************
************************ End: TS CHECKS AND WARNINGS **************************


                     ====================================
                        Begin MD step =      1
                     ====================================

outcoor: Atomic coordinates (Ang):                          
   -0.90453328    6.48320856    0.00000000   1       1  H
   -1.61102001    5.69317238    0.00000000   2       2  N
   -3.34130692    6.13453629    0.00000000   3       3  Si
   -3.49708660    7.62452855    0.00000000   1       4  H
   -4.86462854    4.57562877    0.00000000   3       5  Si
   -6.34781617    4.81845913    0.00000000   1       6  H
   -3.66623768    2.66235261    0.00000000   3       7  Si
   -4.43226314    1.12963587    0.00000000   2       8  N
   -3.84201659    0.17242284    0.00000000   1       9  H
   -5.48388546    1.04917564    0.00000000   1      10  H
   -1.95003762    2.71752692    0.00000000   2      11  N
   -0.87501500    4.04786576    0.00000000   3      12  Si
    0.73365832    4.02905550    0.00000000   4      13  O
    5.61644830   -7.44953905    0.00000000   1      14  H
    4.58206954   -7.23203760    0.00000000   2      15  N
    3.29666389   -8.49263600    0.00000000   3      16  Si
    3.80117524   -9.90371886    0.00000000   1      17  H
    1.65934232   -8.01362137    0.00000000   2      18  N
    1.68097912   -6.20463398    0.00000000   3      19  Si
    0.54543521   -4.28636135    0.00000000   3      20  Si
   -1.03431493   -3.94450034    0.00000000   4      21  O
    1.73226934   -2.87719605    0.00000000   2      22  N
    1.20957366   -1.92961761    0.00000000   1      23  H
    3.50853448   -2.77677601    0.00000000   3      24  Si
    4.13684451   -1.17938608    0.00000000   2      25  N
    3.54296161   -0.26248101    0.00000000   1      26  H
    5.18364407   -1.05231197    0.00000000   1      27  H
    4.63288658   -4.07521596    0.00000000   2      28  N
    3.79410501   -5.58634043    0.00000000   3      29  Si

outcell: Unit cell vectors (Ang):
       30.000000    0.000000    0.000000
        0.000000   45.000000    0.000000
        0.000000    0.000000   10.000000

outcell: Cell vector modules (Ang)   :   30.000000   45.000000   10.000000
outcell: Cell angles (23,13,12) (deg):     90.0000     90.0000     90.0000
outcell: Cell volume (Ang**3)        :  13500.0000
<dSpData1D:S at geom step 1
  <sparsity:sparsity for geom step 1
    nrows_g=297 nrows=48 sparsity=.0835 nnzs=7367, refcount: 8>
  <dData1D:(new from dSpData1D) n=7367, refcount: 1>
refcount: 1>
new_DM -- step:     1
Initializing Density Matrix...

Attempting to read DM from file... Failed...
DM filled with atomic data:
<dSpData2D:DM initialized from atoms
  <sparsity:sparsity for geom step 1
    nrows_g=297 nrows=48 sparsity=.0835 nnzs=7367, refcount: 9>
  <dData2D:DM n=7367 m=8, refcount: 1>
refcount: 1>
     spin moment: S , {S} =   56.00000   0.00000   0.00000  56.00000
No. of atoms with KB's overlaping orbs in proc 0. Max # of overlaps:      26     142

Initializing spin-orbit part of the Hamiltonian
  Adding spin-orbit effects for H 
  Adding spin-orbit effects for N 
  Adding spin-orbit effects for Si
  Adding spin-orbit effects for O 


New grid distribution:   1
           1       1:  180    1:  125    1:   15
           2       1:  180    1:  125   16:   30
           3       1:  180    1:  125   31:   45
           4       1:  180    1:  125   46:   60
           5       1:  180  126:  250    1:   15
           6       1:  180  126:  250   16:   30
           7       1:  180  126:  250   31:   45
           8       1:  180  126:  250   46:   60

InitMesh: MESH =   360 x   500 x   120 =    21600000
InitMesh: (bp) =   180 x   250 x    60 =     2700000
InitMesh: Mesh cutoff (required, used) =   340.000   341.206 Ry
ExtMesh (bp) on 0 =   288 x   225 x   123 =     7970400
New grid distribution:   2
           1       1:  156   30:  206    1:   60
           2     157:  180   25:  206    1:   60
           3     157:  180    1:   24    1:   60
           4       1:   20  207:  225    1:   60
           5       1:  156    1:   29    1:   60
           6      21:  180  227:  250    1:   60
           7      21:  180  207:  226    1:   60
           8       1:   20  226:  250    1:   60
New grid distribution:   3
           1       1:  145   25:  189    1:   60
           2       1:  145    1:   24    1:   60
           3       1:   31  190:  220    1:   60
           4     146:  180    1:   27    1:   60
           5     146:  180   28:  189    1:   60
           6      32:  180  190:  227    1:   60
           7      32:  180  228:  250    1:   60
           8       1:   31  221:  250    1:   60
Setting up quadratic distribution...
ExtMesh (bp) on 0 =   264 x   277 x   168 =    12285504
PhiOnMesh: Number of (b)points on node 0 =              1656720
PhiOnMesh: nlist on node 0 =              1707640

stepf: Fermi-Dirac step function

siesta: Program's energy decomposition (eV):
siesta: Ebs     =      -598.445548
siesta: Eions   =      3585.165840
siesta: Ena     =       381.828397
siesta: Ekin    =      3368.927557
siesta: Enl     =     -3297.280685
siesta: Eso     =        -0.003410
siesta: Edftu   =         0.000000
siesta: DEna    =       153.508384
siesta: DUscf   =        81.864583
siesta: DUext   =         0.000000
siesta: Exc     =     -1204.059359
siesta: eta*DQ  =         0.000000
siesta: Emadel  =         0.000000
siesta: Emeta   =         0.000000
siesta: Emolmec =         0.000000
siesta: Ekinion =         0.000000
siesta: Eharris =     -4020.600412
siesta: Etot    =     -4100.380373
siesta: FreeEng =     -4100.381409

        iscf     Eharris(eV)        E_KS(eV)     FreeEng(eV)     dDmax    Ef(eV) dHmax(eV)
   scf:    1    -4020.600412    -4100.380373    -4100.381409  0.965660 -4.903610 22.258646
     spin moment: S , {S} =    2.00583   0.00000  -0.00000   2.00583
timer: Routine,Calls,Time,% = IterSCF        1      11.395  30.32
   scf:    2    -4145.287227    -4135.317735    -4135.318893  0.453994 -4.161593 12.114673
     spin moment: S , {S} =    1.99420  -0.00000  -0.00000   1.99420
   scf:    3    -4092.079265    -4129.050028    -4129.081787  0.428201 -4.315163 14.560294
     spin moment: S , {S} =    2.55611   0.00000  -0.00000   2.55611
   scf:    4    -4150.781565    -4144.832336    -4144.832337  0.326847 -3.849822  7.313752
     spin moment: S , {S} =    0.00010  -0.00000  -0.00000   0.00010
   scf:    5    -4146.315108    -4145.695846    -4145.695846  0.039985 -3.598191  4.872451
     spin moment: S , {S} =    0.00006   0.00000  -0.00000   0.00006
   scf:    6    -4146.461649    -4146.084454    -4146.084454  0.024567 -3.475229  2.512565
     spin moment: S , {S} =    0.00003   0.00000  -0.00000   0.00003
   scf:    7    -4146.463706    -4146.270673    -4146.270673  0.022879 -3.690693  0.914775
     spin moment: S , {S} =    0.00001  -0.00000   0.00000   0.00001
   scf:    8    -4146.382834    -4146.325330    -4146.325330  0.012219 -3.627868  0.569207
     spin moment: S , {S} =    0.00000   0.00000  -0.00000   0.00000
   scf:    9    -4146.367478    -4146.345699    -4146.345699  0.007347 -3.583214  0.465482
     spin moment: S , {S} =    0.00000   0.00000  -0.00000   0.00000
   scf:   10    -4146.401552    -4146.364613    -4146.364613  0.025152 -3.696768  0.286029
     spin moment: S , {S} =    0.00000   0.00000  -0.00000  -0.00000
   scf:   11    -4146.369610    -4146.367188    -4146.367188  0.005908 -3.683151  0.093203
     spin moment: S , {S} =    0.00000   0.00000  -0.00000  -0.00000
   scf:   12    -4146.369921    -4146.368564    -4146.368564  0.001772 -3.676078  0.041847
     spin moment: S , {S} =    0.00000   0.00000  -0.00000  -0.00000
   scf:   13    -4146.369422    -4146.368989    -4146.368989  0.000943 -3.673147  0.026946
     spin moment: S , {S} =    0.00000   0.00000  -0.00000  -0.00000
   scf:   14    -4146.369472    -4146.369220    -4146.369220  0.000885 -3.671492  0.016288
     spin moment: S , {S} =    0.00000   0.00000  -0.00000  -0.00000
   scf:   15    -4146.369427    -4146.369317    -4146.369318  0.000604 -3.671093  0.009572
     spin moment: S , {S} =    0.00000   0.00000  -0.00000  -0.00000
   scf:   16    -4146.369398    -4146.369355    -4146.369355  0.000453 -3.670854  0.004370
     spin moment: S , {S} =    0.00000   0.00000  -0.00000  -0.00000
   scf:   17    -4146.369380    -4146.369366    -4146.369366  0.000294 -3.671202  0.003013
     spin moment: S , {S} =    0.00000  -0.00000  -0.00000   0.00000
   scf:   18    -4146.369373    -4146.369369    -4146.369369  0.000156 -3.671386  0.001971
     spin moment: S , {S} =    0.00000  -0.00000  -0.00000   0.00000
   scf:   19    -4146.369373    -4146.369371    -4146.369371  0.000128 -3.671605  0.001299
     spin moment: S , {S} =    0.00000   0.00000  -0.00000   0.00000
   scf:   20    -4146.369372    -4146.369371    -4146.369371  0.000066 -3.671650  0.000976
     spin moment: S , {S} =    0.00000   0.00000  -0.00000   0.00000
   scf:   21    -4146.369372    -4146.369372    -4146.369372  0.000077 -3.671373  0.000650
     spin moment: S , {S} =    0.00000  -0.00000  -0.00000   0.00000
   scf:   22    -4146.369372    -4146.369372    -4146.369372  0.000068 -3.671656  0.000338
     spin moment: S , {S} =    0.00000  -0.00000  -0.00000   0.00000
   scf:   23    -4146.369372    -4146.369372    -4146.369372  0.000045 -3.671639  0.000207
     spin moment: S , {S} =    0.00000  -0.00000  -0.00000   0.00000
   scf:   24    -4146.369372    -4146.369372    -4146.369372  0.000017 -3.671637  0.000128
     spin moment: S , {S} =    0.00000  -0.00000  -0.00000   0.00000
mix: Pulay -- resetting history
   scf:   25    -4146.369372    -4146.369372    -4146.369372  0.000015 -3.671637  0.000081
     spin moment: S , {S} =    0.00000  -0.00000  -0.00000   0.00000
   scf:   26    -4146.369372    -4146.369372    -4146.369372  0.000010 -3.671637  0.000047
     spin moment: S , {S} =    0.00000  -0.00000  -0.00000   0.00000
   scf:   27    -4146.369372    -4146.369372    -4146.369372  0.000009 -3.671636  0.000018
     spin moment: S , {S} =    0.00000  -0.00000  -0.00000   0.00000
   scf:   28    -4146.369372    -4146.369372    -4146.369372  0.000003 -3.671635  0.000011
     spin moment: S , {S} =    0.00000  -0.00000  -0.00000   0.00000
   scf:   29    -4146.369372    -4146.369372    -4146.369372  0.000001 -3.671635  0.000007
     spin moment: S , {S} =    0.00000   0.00000  -0.00000   0.00000
   scf:   30    -4146.369372    -4146.369372    -4146.369372  0.000001 -3.671635  0.000003
     spin moment: S , {S} =    0.00000   0.00000  -0.00000   0.00000
   scf:   31    -4146.369372    -4146.369372    -4146.369372  0.000000 -3.671636  0.000002
     spin moment: S , {S} =    0.00000  -0.00000  -0.00000   0.00000
   scf:   32    -4146.369372    -4146.369372    -4146.369372  0.000000 -3.671636  0.000001
     spin moment: S , {S} =    0.00000  -0.00000  -0.00000   0.00000
   scf:   33    -4146.369372    -4146.369372    -4146.369372  0.000000 -3.671636  0.000001
     spin moment: S , {S} =    0.00000  -0.00000  -0.00000   0.00000

SCF Convergence by DM+H criterion
max |DM_out - DM_in|         :     0.0000000965
max |H_out - H_in|      (eV) :     0.0000006619
SCF cycle converged after 33 iterations

Using DM_out to compute the final energy and forces
No. of atoms with KB's overlaping orbs in proc 0. Max # of overlaps:      26     142

siesta: E_KS(eV) =            -4146.3694

siesta: E_KS - E_eggbox =     -4146.3694
     spin moment: S , {S} =    0.00000  -0.00000  -0.00000   0.00000

siesta: Atomic forces (eV/Ang):
     1   -0.079458   -0.065975   -0.000000
     2   -0.535911    0.311676   -0.000000
     3    0.424666   -0.033719    0.000000
     4   -0.108906    0.197647   -0.000000
     5   -0.208728   -0.215157   -0.000000
     6    0.028118    0.068278    0.000000
     7    1.198112    1.019236   -0.000000
     8    0.791212   -2.306720    0.000000
     9   -1.197795    1.903319   -0.000000
    10    0.105179   -0.243379    0.000000
    11   -1.026000   -0.315925   -0.000000
    12    1.231067   -0.244742    0.000000
    13    1.504686    3.304005    0.000000
    14   -0.014590   -0.034086    0.000000
    15    0.115359    0.033776    0.000000
    16    0.012974   -0.020252    0.000000
    17   -0.001767    0.047593    0.000000
    18   -0.039393    0.047856   -0.000000
    19    0.260134    0.025911    0.000000
    20   -1.374665   -0.183274    0.000000
    21    1.256679   -3.865259   -0.000000
    22    0.351599    0.776675    0.000000
    23    0.210620   -0.595059   -0.000000
    24   -0.333486   -0.972560   -0.000000
    25   -0.479544    1.563009    0.000000
    26    0.844639   -1.206405    0.000000
    27   -0.140791    0.099785    0.000000
    28    0.047116    0.720497   -0.000000
    29   -0.314380   -0.416205    0.000000
----------------------------------------
   Tot    2.526748   -0.599453   -0.000000
----------------------------------------
   Max    3.865259
   Res    0.806304    sqrt( Sum f_i^2 / 3N )
----------------------------------------
   Max    3.865259    constrained

Stress tensor Voigt[x,y,z,yz,xz,xy] (kbar):        0.51        0.15       -0.04       -0.00       -0.00       -0.49
(Free)E + p*V (eV/cell)    -4148.1016
Target enthalpy (eV/cell)    -4146.3694

siesta: Stress tensor (static) (eV/Ang**3):
         0.000316   -0.000305   -0.000000
        -0.000305    0.000096    0.000000
        -0.000000   -0.000000   -0.000027

siesta: Pressure (static):         -0.20558144  kBar

siesta: Stress tensor (total) (eV/Ang**3):
         0.000316   -0.000305   -0.000000
        -0.000305    0.000096    0.000000
        -0.000000   -0.000000   -0.000027

siesta: Pressure (total):         -0.20558144  kBar

siesta: Temp_ion =       0.000 K

siesta: Eigenvalues (eV):
ik =     1
  -21.7846  -21.7846  -21.7201  -21.7201  -21.5139  -21.5139  -21.4393  -21.4393  -21.1154  -21.1154
  -20.9574  -20.9574  -20.7365  -20.7365  -19.7109  -19.7109  -19.3021  -19.3021  -19.2375  -19.2375
  -14.6827  -14.6827  -13.7836  -13.7836  -13.2635  -13.2635  -13.0780  -13.0780  -12.9530  -12.9530
  -12.8046  -12.8046  -12.7759  -12.7759  -12.3749  -12.3749  -12.3528  -12.3528  -11.9635  -11.9635
  -11.3251  -11.3251  -10.7370  -10.7370  -10.6498  -10.6498  -10.6283  -10.6283  -10.0086  -10.0086
   -9.4843   -9.4843   -9.1562   -9.1562   -8.7307   -8.7307   -8.6083   -8.6083   -8.5777   -8.5777
   -8.5356   -8.5356   -8.3289   -8.3289   -8.0701   -8.0701   -7.7685   -7.7685   -7.5041   -7.5041
   -7.5026   -7.5026   -7.2198   -7.2198   -7.1572   -7.1572   -6.7811   -6.7811   -6.6657   -6.6657
   -6.4014   -6.4014   -6.3946   -6.3946   -6.0179   -6.0179   -5.9915   -5.9915   -5.9755   -5.9755
   -5.6372   -5.6372   -5.4768   -5.4768   -5.3815   -5.3815   -4.1842   -4.1842   -3.1587   -3.1587
   -2.2326   -2.2326   -2.1927   -2.1927   -2.1749   -2.1749   -1.8015   -1.8015   -1.7771   -1.7771
   -1.7332   -1.7332   -1.7149   -1.7149   -1.5197   -1.5197   -1.4562   -1.4562   -0.8930   -0.8930
   -0.8166   -0.8166   -0.6910   -0.6910   -0.2942   -0.2942   -0.0808   -0.0808    0.1017    0.1017
    0.4281    0.4281    0.5284    0.5284    0.6693    0.6693    0.7761    0.7761    0.8978    0.8978
    1.0240    1.0240    1.3508    1.3508    1.3906    1.3906    1.4935    1.4935    1.5023    1.5023
    1.8354    1.8354    1.8949    1.8949    1.9836    1.9836    2.4261    2.4261    2.8437    2.8437
    2.8554    2.8554    2.8838    2.8838    3.0953    3.0953    3.2224    3.2224    3.4045    3.4045
    3.4975    3.4975    3.8438    3.8438    3.9301    3.9301    4.1697    4.1697    4.3666    4.3666
    4.5040    4.5040    4.5112    4.5112    4.6545    4.6545    4.7051    4.7051    4.9069    4.9069
    5.0010    5.0010    5.0771    5.0771    5.3489    5.3489    5.5796    5.5796    5.7931    5.7931
    5.8460    5.8460    5.8732    5.8732    5.9707    5.9707    6.0057    6.0057    6.0944    6.0944
    6.2520    6.2520    6.4745    6.4745    6.7055    6.7055    6.7980    6.7980    6.9108    6.9108
    7.1127    7.1127    7.2866    7.2866    7.5349    7.5349    7.6253    7.6253    7.8617    7.8617
    7.8896    7.8896    8.0310    8.0310    8.1726    8.1726    8.3659    8.3659    8.3744    8.3744
    8.6044    8.6044    8.8255    8.8255    8.9661    8.9661    8.9874    8.9874    9.2532    9.2532
    9.3019    9.3019    9.3060    9.3060    9.8109    9.8109    9.9081    9.9081    9.9498    9.9498
   10.1654   10.1654   10.2421   10.2421   10.5554   10.5554   10.8483   10.8483   10.8696   10.8696
   11.0559   11.0559   11.0805   11.0805   11.2577   11.2577   11.7378   11.7378   11.8265   11.8265
   11.9266   11.9266   11.9539   11.9539   12.1653   12.1653   12.4750   12.4750   12.7949   12.7949
   12.8070   12.8070   12.9072   12.9072   13.3793   13.3793   13.5418   13.5418   13.7439   13.7439
   13.8793   13.8793   14.1868   14.1868   14.3714   14.3714   14.7256   14.7256   14.8552   14.8552
   14.9506   14.9506   15.4268   15.4268   16.1154   16.1154   16.5652   16.5652   16.7767   16.7767
   17.0265   17.0265   17.3999   17.3999   17.6792   17.6792   18.2691   18.2691   18.5175   18.5175
   18.7180   18.7180   19.2847   19.2847   19.4653   19.4653   19.9936   19.9936   20.3479   20.3479
   21.0470   21.0470   21.3215   21.3215   22.0425   22.0425   22.3250   22.3250   22.4369   22.4369
   22.9657   22.9657   23.3297   23.3297   23.7994   23.7994   23.9288   23.9288   23.9550   23.9550
   24.9152   24.9152   25.4398   25.4398   26.0570   26.0570   26.8060   26.8060   27.4593   27.4593
   28.2727   28.2727   29.0466   29.0466   29.2280   29.2280   29.4892   29.4892   29.7168   29.7168
   30.0631   30.0631   30.1795   30.1795   30.2769   30.2769   30.7984   30.7984   30.9354   30.9354
   31.1242   31.1242   31.2873   31.2873   31.5945   31.5945   31.7047   31.7047   32.2021   32.2021
   32.6419   32.6419   33.9023   33.9023   34.7178   34.7178   34.7357   34.7357   35.0219   35.0219
   35.1408   35.1408   35.1622   35.1622   35.6221   35.6221   35.7188   35.7188   35.9989   35.9989
   36.8325   36.8325   36.9207   36.9207   37.1030   37.1030   37.3545   37.3545   37.6081   37.6081
   38.3015   38.3015   38.4344   38.4344   39.4310   39.4310   39.4631   39.4631   39.8025   39.8025
   40.5192   40.5192   40.5945   40.5945   40.6650   40.6650   40.7055   40.7055   41.0167   41.0167
   41.0222   41.0222   41.3583   41.3583   42.5475   42.5475   42.9352   42.9352   42.9643   42.9643
   43.4307   43.4307   43.8564   43.8564   43.9892   43.9892   44.0921   44.0921   44.4045   44.4045
   44.7594   44.7594   44.7912   44.7912   45.1433   45.1433   45.5041   45.5041   46.1385   46.1385
   46.3070   46.3070   47.0895   47.0895   47.4340   47.4340   48.9700   48.9700   49.0889   49.0889
   49.5346   49.5346   50.4235   50.4235   50.5325   50.5325   51.0647   51.0647   51.1492   51.1492
   51.7194   51.7194   51.7347   51.7347   52.7594   52.7594   52.8144   52.8144   54.3443   54.3443
   54.3902   54.3902   54.5531   54.5531   54.6608   54.6608   55.7748   55.7748   55.7977   55.7977
   55.8574   55.8574   56.0648   56.0648   56.4703   56.4703   58.0738   58.0738   58.4331   58.4331
   58.6982   58.6982   60.2157   60.2157   60.3471   60.3471   60.5072   60.5072   61.1327   61.1327
   61.9200   61.9200   62.0273   62.0273   62.2151   62.2151   64.8273   64.8273   66.6265   66.6265
   66.8640   66.8640   67.2399   67.2399   68.1306   68.1306   68.5652   68.5652   70.9585   70.9585
   73.8559   73.8559   80.2387   80.2387   91.1576   91.1576   92.1189   92.1189   93.3152   93.3152
   98.3521   98.3521   98.5582   98.5582   99.5623   99.5623  103.1054  103.1054  103.6973  103.6973
  110.1438  110.1438  111.6057  111.6057  124.1252  124.1252  126.3055  126.3055  129.2083  129.2083
  135.1821  135.1821  138.3082  138.3082
siesta: Fermi energy =      -3.671636 eV

siesta: Program's energy decomposition (eV):
siesta: Ebs     =     -1124.900710
siesta: Eions   =      3585.165840
siesta: Ena     =       381.828397
siesta: Ekin    =      2902.759799
siesta: Enl     =     -2787.357770
siesta: Eso     =        -0.004278
siesta: Edftu   =         0.000000
siesta: DEna    =        46.873792
siesta: DUscf   =        14.342926
siesta: DUext   =         0.000000
siesta: Exc     =     -1119.646398
siesta: eta*DQ  =         0.000000
siesta: Emadel  =         0.000000
siesta: Emeta   =         0.000000
siesta: Emolmec =         0.000000
siesta: Ekinion =         0.000000
siesta: Eharris =     -4146.369372
siesta: Etot    =     -4146.369372
siesta: FreeEng =     -4146.369372

siesta: Final energy (eV):
siesta:  Band Struct. =   -1124.900710
siesta:       Kinetic =    2902.759799
siesta:       Hartree =   13316.849942
siesta:       Edftu   =       0.000000
siesta:       Eso     =      -0.004278
siesta:    Ext. field =       0.000000
siesta:   Exch.-corr. =   -1119.646398
siesta:  Ion-electron =  -29207.942330
siesta:       Ion-ion =    9961.613893
siesta:       Ekinion =       0.000000
siesta:         Total =   -4146.369372
siesta:         Fermi =      -3.671636

siesta: Atomic forces (eV/Ang):
siesta:      1   -0.079458   -0.065975   -0.000000
siesta:      2   -0.535911    0.311676   -0.000000
siesta:      3    0.424666   -0.033719    0.000000
siesta:      4   -0.108906    0.197647   -0.000000
siesta:      5   -0.208728   -0.215157   -0.000000
siesta:      6    0.028118    0.068278    0.000000
siesta:      7    1.198112    1.019236   -0.000000
siesta:      8    0.791212   -2.306720    0.000000
siesta:      9   -1.197795    1.903319   -0.000000
siesta:     10    0.105179   -0.243379    0.000000
siesta:     11   -1.026000   -0.315925   -0.000000
siesta:     12    1.231067   -0.244742    0.000000
siesta:     13    1.504686    3.304005    0.000000
siesta:     14   -0.014590   -0.034086    0.000000
siesta:     15    0.115359    0.033776    0.000000
siesta:     16    0.012974   -0.020252    0.000000
siesta:     17   -0.001767    0.047593    0.000000
siesta:     18   -0.039393    0.047856   -0.000000
siesta:     19    0.260134    0.025911    0.000000
siesta:     20   -1.374665   -0.183274    0.000000
siesta:     21    1.256679   -3.865259   -0.000000
siesta:     22    0.351599    0.776675    0.000000
siesta:     23    0.210620   -0.595059   -0.000000
siesta:     24   -0.333486   -0.972560   -0.000000
siesta:     25   -0.479544    1.563009    0.000000
siesta:     26    0.844639   -1.206405    0.000000
siesta:     27   -0.140791    0.099785    0.000000
siesta:     28    0.047116    0.720497   -0.000000
siesta:     29   -0.314380   -0.416205    0.000000
siesta: ----------------------------------------
siesta:    Tot    2.526748   -0.599453   -0.000000

siesta: Stress tensor (static) (eV/Ang**3):
siesta:     0.000316   -0.000305   -0.000000
siesta:    -0.000305    0.000096    0.000000
siesta:    -0.000000   -0.000000   -0.000027

siesta: Cell volume =      13500.000000 Ang**3

siesta: Pressure (static):
siesta:                Solid            Molecule  Units
siesta:          -0.00000140         -0.00000778  Ry/Bohr**3
siesta:          -0.00012831         -0.00071389  eV/Ang**3
siesta:          -0.20558144         -1.14378335  kBar
(Free)E+ p_basis*V_orbitals  =       -4126.518955
(Free)Eharris+ p_basis*V_orbitals  =       -4126.518955
     spin moment: S , {S} =    0.00000  -0.00000  -0.00000   0.00000

siesta: Electric dipole (a.u.)  =    0.032066    1.462911    0.000000
siesta: Electric dipole (Debye) =    0.081503    3.718350    0.000000

cite: Please see "GC.bib" for an exhaustive BiBTeX file.
cite: Please clearly indicate Siesta version in published work: v4.1.5-1-g384057250
cite: This calculation has made use of the following articles
cite: which are encouraged to be cited in a published work.
        Primary SIESTA paper
          DOI: www.doi.org/10.1088/0953-8984/14/11/302
        Spin-orbit coupling (on-site approximation)
          DOI: www.doi.org/10.1088/0953-8984/19/19/489001


WARNING: alloc-realloc-dealloc name mismatch
         Name: atomlist isa
         Size:              -116. Bytes
         Node:     0
         Subsequent mismatches will not be reported
>> End of run:   1-FEB-2024  23:12:22
Job completed
