Siesta Version  : v4.1.5-1-g384057250
Architecture    : gcc
Compiler version: GNU Fortran (Debian 10.2.1-6) 10.2.1 20210110
Compiler flags  : mpifort -O2 -fPIC -ftree-vectorize -fallow-argument-mismatch
PP flags        : -DFC_HAVE_ABORT -DMPI -DSIESTA__FLOOK -DSIESTA__METIS -DSIESTA__MUMPS -DCDF -DNCDF -DNCDF_4 -DNCDF_PARALLEL -DSIESTA__MRRR -DSIESTA__ELPA
Libraries       : libncdf.a libfdict.a  -lflookall -ldl -lnetcdff -lnetcdf -lhdf5_hl -lhdf5 -lhdf5_fortran -lz -lscalapack-openmpi -lopenblas -lmetis -lzmumps -lcmumps -ldmumps -lmumps_common -lpord -lsmumps -lesmumps -lscotch -lscotcherr -fopenmp -lelpa
PARALLEL version
NetCDF support
NetCDF-4 support
NetCDF-4 MPI-IO support
METIS ordering support
Lua support

* Running on 6 nodes in parallel
>> Start of run:  16-OCT-2023  19:12:03

                           ***********************       
                           *  WELCOME TO SIESTA  *       
                           ***********************       

reinit: Reading from standard input
reinit: Dumped input in INPUT_TMP.79321
************************** Dump of input data file ****************************
# mpirun -np 4 siesta-4.1.5 < GC.fdf > GC.out &
SystemLabel      GC
NumberOfAtoms    29
NumberOfSpecies  4
%block ChemicalSpeciesLabel
    1    1  H
    2    7  N
    3   14  Si
    4    8  O
%endblock ChemicalSpeciesLabel
############################################
# This overrides Defaults.fdf configuration
############################################
MD.TypeOfRun                CG # CG, Verlet
MD.Steps                    0
MaxSCFIterations            600
AtomicCoordinatesFormat NotScaledCartesianAng
%block AtomicCoordinatesAndAtomicSpecies
    -1.1436892025910206 6.839144345809249 0.0  1  1  H
    -1.8501759325910205 6.049108165809249 0.0  2  2  N
    -3.5804628425910208 6.490472075809249 0.0  3  3  Si
    -3.7362425225910205 7.980464335809249 0.0  1  4  H
    -5.103784462591021 4.931564555809249 0.0  3  5  Si
    -6.5869720925910205 5.174394915809249 0.0  1  6  H
    -3.9053936025910208 3.018288395809249 0.0  3  7  Si
    -4.671419062591021 1.485571655809249 0.0  2  8  N
    -4.081172512591021 0.5283586258092492 0.0  1  9  H
    -5.7230413825910205 1.4051114258092492 0.0  1  10  H
    -2.1891935425910205 3.073462705809249 0.0  2  11  N
    -1.1141709225910206 4.403801545809249 0.0  3  12  Si
    0.4945023974089793 4.3849912858092495 0.0  4  13  O
    5.6164483 -7.44953905 0.0  1  14  H
    4.58206954 -7.2320376 0.0  2  15  N
    3.29666389 -8.492636 0.0  3  16  Si
    3.80117524 -9.90371886 -0.0  1  17  H
    1.65934232 -8.01362137 0.0  2  18  N
    1.68097912 -6.20463398 -0.0  3  19  Si
    0.54543521 -4.28636135 0.0  3  20  Si
    -1.03431493 -3.94450034 0.0  4  21  O
    1.73226934 -2.87719605 0.0  2  22  N
    1.20957366 -1.92961761 -0.0  1  23  H
    3.50853448 -2.77677601 0.0  3  24  Si
    4.13684451 -1.17938608 0.0  2  25  N
    3.54296161 -0.26248101 0.0  1  26  H
    5.18364407 -1.05231197 -0.0  1  27  H
    4.63288658 -4.07521596 -0.0  2  28  N
    3.79410501 -5.58634043 0.0  3  29  Si
%endblock AtomicCoordinatesAndAtomicSpecies
%include ../../../../Defaults.fdf
************************** End of input data file *****************************

reinit: -----------------------------------------------------------------------
reinit: System Name: 
reinit: -----------------------------------------------------------------------
reinit: System Label: GC
reinit: -----------------------------------------------------------------------

initatom: Reading input for the pseudopotentials and atomic orbitals ----------
Species number:   1 Atomic number:    1 Label: H
Species number:   2 Atomic number:    7 Label: N
Species number:   3 Atomic number:   14 Label: Si
Species number:   4 Atomic number:    8 Label: O

Ground state valence configuration:   1s01
Reading pseudopotential information in formatted form from H.psf

Pseudopotential generated from a relativistic atomic calculation

Valence configuration for pseudopotential generation:
1s( 1.00) rc: 0.01
2p( 0.00) rc: 0.60
3d( 0.00) rc: 1.99
4f( 0.00) rc: 2.49
Ground state valence configuration:   2s02  2p03
Reading pseudopotential information in formatted form from N.psf

Pseudopotential generated from a relativistic atomic calculation

Valence configuration for pseudopotential generation:
2s( 2.00) rc: 0.94
2p( 3.00) rc: 0.59
3d( 0.00) rc: 3.46
4f( 0.00) rc: 2.47
Ground state valence configuration:   3s02  3p02
Reading pseudopotential information in formatted form from Si.psf

Pseudopotential generated from a relativistic atomic calculation

Valence configuration for pseudopotential generation:
3s( 2.00) rc: 1.67
3p( 2.00) rc: 2.04
3d( 0.00) rc: 2.89
4f( 0.00) rc: 2.49
Ground state valence configuration:   2s02  2p04
Reading pseudopotential information in formatted form from O.psf

Pseudopotential generated from a relativistic atomic calculation

Valence configuration for pseudopotential generation:
2s( 2.00) rc: 0.45
2p( 4.00) rc: 0.92
3d( 0.00) rc: 2.24
4f( 0.00) rc: 0.25
For H, standard SIESTA heuristics set lmxkb to 2
 (one more than the basis l, including polarization orbitals).
Use PS.lmax or PS.KBprojectors blocks to override.
For N, standard SIESTA heuristics set lmxkb to 3
 (one more than the basis l, including polarization orbitals).
Use PS.lmax or PS.KBprojectors blocks to override.
For Si, standard SIESTA heuristics set lmxkb to 3
 (one more than the basis l, including polarization orbitals).
Use PS.lmax or PS.KBprojectors blocks to override.
For O, standard SIESTA heuristics set lmxkb to 3
 (one more than the basis l, including polarization orbitals).
Use PS.lmax or PS.KBprojectors blocks to override.

<basis_specs>
===============================================================================
H                    Z=   1    Mass=  1.0100        Charge= 0.17977+309
Lmxo=0 Lmxkb= 2    BasisType=split      Semic=F
L=0  Nsemic=0  Cnfigmx=1
          i=1  nzeta=2  polorb=1  (1s)
            splnorm:   0.62000    
               vcte:    0.0000    
               rinn:    0.0000    
               qcoe:    0.0000    
               qyuk:    0.0000    
               qwid:   0.10000E-01
                rcs:    0.0000      0.0000    
            lambdas:    1.0000      1.0000    
-------------------------------------------------------------------------------
L=0  Nkbl=1  erefs: 0.17977+309
L=1  Nkbl=1  erefs: 0.17977+309
L=2  Nkbl=1  erefs: 0.17977+309
===============================================================================
</basis_specs>

atom: Called for H                     (Z =   1)

read_vps: Pseudopotential generation method:
read_vps: ATM4.2.7  Troullier-Martins                       
Valence charge for ps generation:    1.00000

xc_check: Exchange-correlation functional:
xc_check: GGA Perdew, Burke & Ernzerhof 1996
V l=0 = -2*Zval/r beyond r=  0.0098
V l=1 = -2*Zval/r beyond r=  0.5817
V l=2 = -2*Zval/r beyond r=  1.9372
All V_l potentials equal beyond r=  1.9372
This should be close to max(r_c) in ps generation
All pots = -2*Zval/r beyond r=  1.9372

VLOCAL1: 99.0% of the norm of Vloc inside     11.567 Ry
VLOCAL1: 99.9% of the norm of Vloc inside     26.362 Ry
atom: Maximum radius for 4*pi*r*r*local-pseudopot. charge    2.25106
atom: Maximum radius for r*vlocal+2*Zval:    1.91306
GHOST: No ghost state for L =  0
GHOST: No ghost state for L =  1
GHOST: No ghost state for L =  2

KBgen: Kleinman-Bylander projectors: 
   l= 0   rc=  2.036604   el= -0.477180   Ekb= -6.081590   kbcos= -0.277285
   l= 1   rc=  2.195416   el=  0.001076   Ekb= -0.926943   kbcos= -0.034643
   l= 2   rc=  2.251056   el=  0.002010   Ekb= -0.130941   kbcos= -0.009788

KBgen: Total number of Kleinman-Bylander projectors:    9
atom: -------------------------------------------------------------------------

atom: SANKEY-TYPE ORBITALS:
atom: Selected multiple-zeta basis: split     

SPLIT: Orbitals with angular momentum L= 0

SPLIT: Basis orbitals for state 1s

SPLIT: PAO cut-off radius determined from an
SPLIT: energy shift=  0.002000 Ry

   izeta = 1
                 lambda =    1.000000
                     rc =    6.518340
                 energy =   -0.475305
                kinetic =    0.912139
    potential(screened) =   -1.387444
       potential(ionic) =   -1.907295

   izeta = 2
                 rmatch =    2.141150
              splitnorm =    0.620000
                 energy =    0.566467
                kinetic =    3.772856
    potential(screened) =   -3.206389
       potential(ionic) =   -3.759093

POLgen: Perturbative polarization orbital with L=  1

POLgen: Polarization orbital for state 1s

   izeta = 1
                     rc =    6.518340
                 energy =    0.533861
                kinetic =    1.121086
    potential(screened) =   -0.587225
       potential(ionic) =   -1.053027
atom: Total number of Sankey-type orbitals:  5

atm_pop: Valence configuration (for local Pseudopot. screening):
 1s( 1.00)                                                            
Vna: chval, zval:    1.00000   1.00000

Vna:  Cut-off radius for the neutral-atom potential:   6.518340

atom: _________________________________________________________________________

<basis_specs>
===============================================================================
N                    Z=   7    Mass=  14.010        Charge= 0.17977+309
Lmxo=1 Lmxkb= 3    BasisType=split      Semic=F
L=0  Nsemic=0  Cnfigmx=2
          i=1  nzeta=2  polorb=0  (2s)
            splnorm:   0.28000    
               vcte:    0.0000    
               rinn:    0.0000    
               qcoe:    0.0000    
               qyuk:    0.0000    
               qwid:   0.10000E-01
                rcs:    0.0000      0.0000    
            lambdas:    1.0000      1.0000    
L=1  Nsemic=0  Cnfigmx=2
          i=1  nzeta=2  polorb=1  (2p)
            splnorm:   0.28000    
               vcte:    0.0000    
               rinn:    0.0000    
               qcoe:    0.0000    
               qyuk:    0.0000    
               qwid:   0.10000E-01
                rcs:    0.0000      0.0000    
            lambdas:    1.0000      1.0000    
-------------------------------------------------------------------------------
L=0  Nkbl=1  erefs: 0.17977+309
L=1  Nkbl=1  erefs: 0.17977+309
L=2  Nkbl=1  erefs: 0.17977+309
L=3  Nkbl=1  erefs: 0.17977+309
===============================================================================
</basis_specs>

atom: Called for N                     (Z =   7)

read_vps: Pseudopotential generation method:
read_vps: ATM4.2.7  Troullier-Martins                       
Valence charge for ps generation:    5.00000

xc_check: Exchange-correlation functional:
xc_check: GGA Perdew, Burke & Ernzerhof 1996
V l=0 = -2*Zval/r beyond r=  1.2889
V l=1 = -2*Zval/r beyond r=  1.2889
V l=2 = -2*Zval/r beyond r=  3.4178
V l=3 = -2*Zval/r beyond r=  2.4084
All V_l potentials equal beyond r=  3.3753
This should be close to max(r_c) in ps generation
All pots = -2*Zval/r beyond r=  3.4178

VLOCAL1: 99.0% of the norm of Vloc inside      3.810 Ry
VLOCAL1: 99.9% of the norm of Vloc inside      8.683 Ry
atom: Maximum radius for 4*pi*r*r*local-pseudopot. charge    4.02088
atom: Maximum radius for r*vlocal+2*Zval:    3.54838
GHOST: No ghost state for L =  0
GHOST: No ghost state for L =  1
GHOST: No ghost state for L =  2
GHOST: No ghost state for L =  3

KBgen: Kleinman-Bylander projectors: 
   l= 0   rc=  3.417763   el= -1.365098   Ekb= -4.433130   kbcos= -0.707855
   l= 1   rc=  3.375302   el= -0.521201   Ekb=-13.264039   kbcos= -0.535594
   l= 2   rc=  3.872880   el=  0.001991   Ekb= -0.641094   kbcos= -0.062456
   l= 3   rc=  3.970931   el=  0.003093   Ekb= -0.474517   kbcos= -0.018236

KBgen: Total number of Kleinman-Bylander projectors:   16
atom: -------------------------------------------------------------------------

atom: SANKEY-TYPE ORBITALS:
atom: Selected multiple-zeta basis: split     

SPLIT: Orbitals with angular momentum L= 0

SPLIT: Basis orbitals for state 2s

SPLIT: PAO cut-off radius determined from an
SPLIT: energy shift=  0.002000 Ry

   izeta = 1
                 lambda =    1.000000
                     rc =    4.730425
                 energy =   -1.363399
                kinetic =    1.245246
    potential(screened) =   -2.608645
       potential(ionic) =   -8.121105

   izeta = 2
                 rmatch =    2.531849
              splitnorm =    0.280000
                 energy =   -0.959908
                kinetic =    2.409435
    potential(screened) =   -3.369343
       potential(ionic) =   -9.427975

SPLIT: Orbitals with angular momentum L= 1

SPLIT: Basis orbitals for state 2p

SPLIT: PAO cut-off radius determined from an
SPLIT: energy shift=  0.002000 Ry

   izeta = 1
                 lambda =    1.000000
                     rc =    5.924108
                 energy =   -0.519262
                kinetic =    3.672940
    potential(screened) =   -4.192202
       potential(ionic) =   -9.518354

   izeta = 2
                 rmatch =    2.531849
              splitnorm =    0.280000
                 energy =   -0.104258
                kinetic =    6.807538
    potential(screened) =   -6.911796
       potential(ionic) =  -13.149920

POLgen: Perturbative polarization orbital with L=  2

POLgen: Polarization orbital for state 2p

   izeta = 1
                     rc =    5.924108
                 energy =    1.427508
                kinetic =    2.872379
    potential(screened) =   -1.444871
       potential(ionic) =   -5.563644
atom: Total number of Sankey-type orbitals: 13

atm_pop: Valence configuration (for local Pseudopot. screening):
 2s( 2.00)                                                            
 2p( 3.00)                                                            
Vna: chval, zval:    5.00000   5.00000

Vna:  Cut-off radius for the neutral-atom potential:   5.924108

atom: _________________________________________________________________________

<basis_specs>
===============================================================================
Si                   Z=  14    Mass=  28.090        Charge= 0.17977+309
Lmxo=1 Lmxkb= 3    BasisType=split      Semic=F
L=0  Nsemic=0  Cnfigmx=3
          i=1  nzeta=2  polorb=0  (3s)
            splnorm:   0.28000    
               vcte:    0.0000    
               rinn:    0.0000    
               qcoe:    0.0000    
               qyuk:    0.0000    
               qwid:   0.10000E-01
                rcs:    0.0000      0.0000    
            lambdas:    1.0000      1.0000    
L=1  Nsemic=0  Cnfigmx=3
          i=1  nzeta=2  polorb=1  (3p)
            splnorm:   0.28000    
               vcte:    0.0000    
               rinn:    0.0000    
               qcoe:    0.0000    
               qyuk:    0.0000    
               qwid:   0.10000E-01
                rcs:    0.0000      0.0000    
            lambdas:    1.0000      1.0000    
-------------------------------------------------------------------------------
L=0  Nkbl=1  erefs: 0.17977+309
L=1  Nkbl=1  erefs: 0.17977+309
L=2  Nkbl=1  erefs: 0.17977+309
L=3  Nkbl=1  erefs: 0.17977+309
===============================================================================
</basis_specs>

atom: Called for Si                    (Z =  14)

read_vps: Pseudopotential generation method:
read_vps: ATM4.2.7  Troullier-Martins                       
Valence charge for ps generation:    4.00000

xc_check: Exchange-correlation functional:
xc_check: GGA Perdew, Burke & Ernzerhof 1996
V l=0 = -2*Zval/r beyond r=  2.7826
V l=1 = -2*Zval/r beyond r=  2.7826
V l=2 = -2*Zval/r beyond r=  2.9253
V l=3 = -2*Zval/r beyond r=  2.7826
All V_l potentials equal beyond r=  2.8530
This should be close to max(r_c) in ps generation
All pots = -2*Zval/r beyond r=  2.9253

VLOCAL1: 99.0% of the norm of Vloc inside      5.333 Ry
VLOCAL1: 99.9% of the norm of Vloc inside     12.154 Ry
atom: Maximum radius for 4*pi*r*r*local-pseudopot. charge    3.39869
atom: Maximum radius for r*vlocal+2*Zval:    2.96205
GHOST: No ghost state for L =  0
GHOST: No ghost state for L =  1
GHOST: No ghost state for L =  2
GHOST: No ghost state for L =  3

KBgen: Kleinman-Bylander projectors: 
   l= 0   rc=  3.075247   el= -0.794092   Ekb=  5.879390   kbcos=  0.167461
   l= 1   rc=  3.153101   el= -0.300068   Ekb=  2.642817   kbcos=  0.058301
   l= 2   rc=  3.273594   el=  0.001958   Ekb= -1.185135   kbcos= -0.104411
   l= 3   rc=  3.232927   el=  0.003046   Ekb= -0.497174   kbcos= -0.015889

KBgen: Total number of Kleinman-Bylander projectors:   16
atom: -------------------------------------------------------------------------

atom: SANKEY-TYPE ORBITALS:
atom: Selected multiple-zeta basis: split     

SPLIT: Orbitals with angular momentum L= 0

SPLIT: Basis orbitals for state 3s

SPLIT: PAO cut-off radius determined from an
SPLIT: energy shift=  0.002000 Ry

   izeta = 1
                 lambda =    1.000000
                     rc =    6.429618
                 energy =   -0.792283
                kinetic =    0.525293
    potential(screened) =   -1.317576
       potential(ionic) =   -3.744923

   izeta = 2
                 rmatch =    3.998416
              splitnorm =    0.280000
                 energy =   -0.583081
                kinetic =    1.069570
    potential(screened) =   -1.652651
       potential(ionic) =   -4.235185

SPLIT: Orbitals with angular momentum L= 1

SPLIT: Basis orbitals for state 3p

SPLIT: PAO cut-off radius determined from an
SPLIT: energy shift=  0.002000 Ry

   izeta = 1
                 lambda =    1.000000
                     rc =    8.464845
                 energy =   -0.298236
                kinetic =    0.785360
    potential(screened) =   -1.083596
       potential(ionic) =   -3.273779

   izeta = 2
                 rmatch =    4.587816
              splitnorm =    0.280000
                 energy =   -0.131871
                kinetic =    1.403687
    potential(screened) =   -1.535557
       potential(ionic) =   -4.015310

POLgen: Perturbative polarization orbital with L=  2

POLgen: Polarization orbital for state 3p

   izeta = 1
                     rc =    8.464845
                 energy =    0.321949
                kinetic =    1.055677
    potential(screened) =   -0.733728
       potential(ionic) =   -2.672950
atom: Total number of Sankey-type orbitals: 13

atm_pop: Valence configuration (for local Pseudopot. screening):
 3s( 2.00)                                                            
 3p( 2.00)                                                            
Vna: chval, zval:    4.00000   4.00000

Vna:  Cut-off radius for the neutral-atom potential:   8.464845

atom: _________________________________________________________________________

<basis_specs>
===============================================================================
O                    Z=   8    Mass=  16.000        Charge= 0.17977+309
Lmxo=1 Lmxkb= 3    BasisType=split      Semic=F
L=0  Nsemic=0  Cnfigmx=2
          i=1  nzeta=2  polorb=0  (2s)
            splnorm:   0.28000    
               vcte:    0.0000    
               rinn:    0.0000    
               qcoe:    0.0000    
               qyuk:    0.0000    
               qwid:   0.10000E-01
                rcs:    0.0000      0.0000    
            lambdas:    1.0000      1.0000    
L=1  Nsemic=0  Cnfigmx=2
          i=1  nzeta=2  polorb=1  (2p)
            splnorm:   0.28000    
               vcte:    0.0000    
               rinn:    0.0000    
               qcoe:    0.0000    
               qyuk:    0.0000    
               qwid:   0.10000E-01
                rcs:    0.0000      0.0000    
            lambdas:    1.0000      1.0000    
-------------------------------------------------------------------------------
L=0  Nkbl=1  erefs: 0.17977+309
L=1  Nkbl=1  erefs: 0.17977+309
L=2  Nkbl=1  erefs: 0.17977+309
L=3  Nkbl=1  erefs: 0.17977+309
===============================================================================
</basis_specs>

atom: Called for O                     (Z =   8)

read_vps: Pseudopotential generation method:
read_vps: ATM4.2.7  Troullier-Martins                       
Valence charge for ps generation:    6.00000

xc_check: Exchange-correlation functional:
xc_check: GGA Perdew, Burke & Ernzerhof 1996
V l=0 = -2*Zval/r beyond r=  1.1000
V l=1 = -2*Zval/r beyond r=  1.1000
V l=2 = -2*Zval/r beyond r=  2.2154
V l=3 = -2*Zval/r beyond r=  1.1000
All V_l potentials equal beyond r=  2.2154
This should be close to max(r_c) in ps generation
All pots = -2*Zval/r beyond r=  2.2154

VLOCAL1: 99.0% of the norm of Vloc inside      8.845 Ry
VLOCAL1: 99.9% of the norm of Vloc inside     20.157 Ry
atom: Maximum radius for 4*pi*r*r*local-pseudopot. charge    2.67231
atom: Maximum radius for r*vlocal+2*Zval:    2.32897
GHOST: No ghost state for L =  0
GHOST: No ghost state for L =  1
GHOST: No ghost state for L =  2
GHOST: No ghost state for L =  3

KBgen: Kleinman-Bylander projectors: 
   l= 0   rc=  2.243238   el= -1.759686   Ekb=**********   kbcos= -0.171774
   l= 1   rc=  2.328968   el= -0.663873   Ekb=-14.506792   kbcos= -0.519897
   l= 2   rc=  2.573941   el=  0.002031   Ekb= -1.137373   kbcos= -0.019581
   l= 3   rc=  2.606321   el=  0.003153   Ekb= -1.013546   kbcos= -0.003122

KBgen: Total number of Kleinman-Bylander projectors:   16
atom: -------------------------------------------------------------------------

atom: SANKEY-TYPE ORBITALS:
atom: Selected multiple-zeta basis: split     

SPLIT: Orbitals with angular momentum L= 0

SPLIT: Basis orbitals for state 2s

SPLIT: PAO cut-off radius determined from an
SPLIT: energy shift=  0.002000 Ry

   izeta = 1
                 lambda =    1.000000
                     rc =    4.243912
                 energy =   -1.758270
                kinetic =    3.286084
    potential(screened) =   -5.044353
       potential(ionic) =  -12.921184

   izeta = 2
                 rmatch =    2.187845
              splitnorm =    0.280000
                 energy =   -0.885018
                kinetic =    8.134434
    potential(screened) =   -9.019452
       potential(ionic) =  -17.710645

SPLIT: Orbitals with angular momentum L= 1

SPLIT: Basis orbitals for state 2p

SPLIT: PAO cut-off radius determined from an
SPLIT: energy shift=  0.002000 Ry

   izeta = 1
                 lambda =    1.000000
                     rc =    5.314825
                 energy =   -0.661986
                kinetic =    4.917472
    potential(screened) =   -5.579458
       potential(ionic) =  -13.236259

   izeta = 2
                 rmatch =    2.160663
              splitnorm =    0.280000
                 energy =   -0.068760
                kinetic =    9.183374
    potential(screened) =   -9.252135
       potential(ionic) =  -18.274251

POLgen: Perturbative polarization orbital with L=  2

POLgen: Polarization orbital for state 2p

   izeta = 1
                     rc =    5.314825
                 energy =    1.970580
                kinetic =    3.886128
    potential(screened) =   -1.915547
       potential(ionic) =   -7.749584
atom: Total number of Sankey-type orbitals: 13

atm_pop: Valence configuration (for local Pseudopot. screening):
 2s( 2.00)                                                            
 2p( 4.00)                                                            
Vna: chval, zval:    6.00000   6.00000

Vna:  Cut-off radius for the neutral-atom potential:   5.314825

atom: _________________________________________________________________________

prinput: Basis input ----------------------------------------------------------

PAO.BasisType split     

%block ChemicalSpeciesLabel
    1    1 H                       # Species index, atomic number, species label
    2    7 N                       # Species index, atomic number, species label
    3   14 Si                      # Species index, atomic number, species label
    4    8 O                       # Species index, atomic number, species label
%endblock ChemicalSpeciesLabel

%block PAO.Basis                 # Define Basis set
H                     1                    # Species label, number of l-shells
 n=1   0   2 P   1                   # n, l, Nzeta, Polarization, NzetaPol
   6.518      2.141   
   1.000      1.000   
N                     2                    # Species label, number of l-shells
 n=2   0   2                         # n, l, Nzeta 
   4.730      2.532   
   1.000      1.000   
 n=2   1   2 P   1                   # n, l, Nzeta, Polarization, NzetaPol
   5.924      2.532   
   1.000      1.000   
Si                    2                    # Species label, number of l-shells
 n=3   0   2                         # n, l, Nzeta 
   6.430      3.998   
   1.000      1.000   
 n=3   1   2 P   1                   # n, l, Nzeta, Polarization, NzetaPol
   8.465      4.588   
   1.000      1.000   
O                     2                    # Species label, number of l-shells
 n=2   0   2                         # n, l, Nzeta 
   4.244      2.188   
   1.000      1.000   
 n=2   1   2 P   1                   # n, l, Nzeta, Polarization, NzetaPol
   5.315      2.161   
   1.000      1.000   
%endblock PAO.Basis

prinput: ----------------------------------------------------------------------

Dumping basis to NetCDF file H.ion.nc
Dumping basis to NetCDF file N.ion.nc
Dumping basis to NetCDF file Si.ion.nc
Dumping basis to NetCDF file O.ion.nc
coor:   Atomic-coordinates input format  =     Cartesian coordinates
coor:                                          (in Angstroms)

siesta: Atomic coordinates (Bohr) and species
siesta:     -2.16126  12.92411   0.00000  1        1
siesta:     -3.49633  11.43116   0.00000  2        2
siesta:     -6.76610  12.26522   0.00000  3        3
siesta:     -7.06048  15.08090   0.00000  1        4
siesta:     -9.64476   9.31931   0.00000  3        5
siesta:    -12.44758   9.77819   0.00000  1        6
siesta:     -7.38013   5.70374   0.00000  3        7
siesta:     -8.82771   2.80732   0.00000  2        8
siesta:     -7.71230   0.99845   0.00000  1        9
siesta:    -10.81499   2.65528   0.00000  1       10
siesta:     -4.13698   5.80801   0.00000  2       11
siesta:     -2.10548   8.32198   0.00000  3       12
siesta:      0.93447   8.28644   0.00000  4       13
siesta:     10.61355 -14.07759   0.00000  1       14
siesta:      8.65886 -13.66658   0.00000  2       15
siesta:      6.22979 -16.04876   0.00000  3       16
siesta:      7.18318 -18.71532  -0.00000  1       17
siesta:      3.13570 -15.14356   0.00000  2       18
siesta:      3.17659 -11.72506  -0.00000  3       19
siesta:      1.03072  -8.10005   0.00000  3       20
siesta:     -1.95457  -7.45403   0.00000  4       21
siesta:      3.27352  -5.43711   0.00000  2       22
siesta:      2.28576  -3.64645  -0.00000  1       23
siesta:      6.63017  -5.24735   0.00000  3       24
siesta:      7.81751  -2.22872   0.00000  2       25
siesta:      6.69523  -0.49602   0.00000  1       26
siesta:      9.79567  -1.98858  -0.00000  1       27
siesta:      8.75489  -7.70105  -0.00000  2       28
siesta:      7.16982 -10.55666   0.00000  3       29

siesta: Automatic unit cell vectors (Ang):
siesta:   21.012345    0.000000    0.000000
siesta:    0.000000   27.261184    0.000000
siesta:    0.000000    0.000000    9.854683

siesta: System type = molecule  

initatomlists: Number of atoms, orbitals, and projectors:     29   297   394

siesta: ******************** Simulation parameters ****************************
siesta:
siesta: The following are some of the parameters of the simulation.
siesta: A complete list of the parameters used, including default values,
siesta: can be found in file out.fdf
siesta:
redata: Spin configuration                          = spin-orbit
redata: Number of spin components                   = 8
redata: Time-Reversal Symmetry                      = F
redata: Spin spiral                                 = F
############################################################
This spin-orbit implementation uses a local approximation.
From 4.2 and onwards the full non-local approximation is implemented
You are strongly advised to use >=4.2 versions!
############################################################
redata: Long output                                 =   F
redata: Number of Atomic Species                    =        4
redata: Charge density info will appear in .RHO file
redata: Write Mulliken Pop.                         = NO
redata: Matel table size (NRTAB)                    =     1024
redata: Mesh Cutoff                                 =   340.0000 Ry
redata: Net charge of the system                    =     0.0000 |e|
redata: Min. number of SCF Iter                     =        1
redata: Max. number of SCF Iter                     =      600
redata: SCF convergence failure will abort job
redata: SCF mix quantity                            = Hamiltonian
redata: Mix DM or H after convergence               =   F
redata: Recompute H after scf cycle                 =   F
redata: Mix DM in first SCF step                    =   T
redata: Write Pulay info on disk                    =   F
redata: New DM Occupancy tolerance                  = 0.000000000001
redata: No kicks to SCF
redata: DM Mixing Weight for Kicks                  =     0.5000
redata: Require Harris convergence for SCF          =   F
redata: Harris energy tolerance for SCF             =     0.000100 eV
redata: Require DM convergence for SCF              =   T
redata: DM tolerance for SCF                        =     0.000008
redata: Require EDM convergence for SCF             =   F
redata: EDM tolerance for SCF                       =     0.001000 eV
redata: Require H convergence for SCF               =   T
redata: Hamiltonian tolerance for SCF               =     0.000001 eV
redata: Require (free) Energy convergence for SCF   =   F
redata: (free) Energy tolerance for SCF             =     0.000100 eV
redata: Using Saved Data (generic)                  =   F
redata: Use continuation files for DM               =   T
redata: Neglect nonoverlap interactions             =   F
redata: Method of Calculation                       = Diagonalization
redata: Electronic Temperature                      =   299.9978 K
redata: Fix the spin of the system                  =   F
redata: Dynamics option                             = Single-point calculation
mix.SCF: Pulay mixing                            = Pulay
mix.SCF:    Variant                              = stable
mix.SCF:    History steps                        = 6
mix.SCF:    Linear mixing weight                 =     0.250000
mix.SCF:    Mixing weight                        =     0.250000
mix.SCF:    SVD condition                        = 0.1000E-07
mix.SCF:    Restart steps                        = 24
mix.SCF:    Restart save steps                   = 3
mix.SCF: Spin-component mixing                   all
redata: Save all siesta data in one NC              =   F
redata: ***********************************************************************

%block SCF.Mixers
  Pulay
%endblock SCF.Mixers

%block SCF.Mixer.Pulay
  # Mixing method
  method pulay
  variant stable

  # Mixing options
  weight 0.2500
  weight.linear 0.2500
  history 6
  restart 24
  restart.save 3
%endblock SCF.Mixer.Pulay

DM_history_depth set to one: no extrapolation allowed by default for geometry relaxation
Size of DM history Fstack: 1
Total number of electrons:    98.000000
Total ionic charge:    98.000000

* ProcessorY, Blocksize:    2  24


* Orbital distribution balance (max,min):    57    48


Time-reversal symmetry not used.

siesta: k-grid: Number of k-points =     1
siesta: k-grid: Cutoff (effective) =     4.927 Ang
siesta: k-grid: Supercell and displacements
siesta: k-grid:    1   0   0      0.000
siesta: k-grid:    0   1   0      0.000
siesta: k-grid:    0   0   1      0.000

diag: Algorithm                                     = ELPA-1stage
diag: Parallel over k                               =   F
diag: Use parallel 2D distribution                  =   T
diag: Parallel block-size                           = 24
diag: Parallel distribution                         =     2 x     3
diag: Used triangular part                          = Lower
diag: Absolute tolerance                            =  0.100E-15
diag: Orthogonalization factor                      =  0.100E-05
diag: Memory factor                                 =  1.0000


ts: **************************************************************
ts: Save H and S matrices                           =    F
ts: Save DM and EDM matrices                        =    F
ts: Only save the overlap matrix S                  =    F
ts: **************************************************************

************************ Begin: TS CHECKS AND WARNINGS ************************
************************ End: TS CHECKS AND WARNINGS **************************


                     ====================================
                        Single-point calculation
                     ====================================

outcoor: Atomic coordinates (Ang):                          
   -1.14368920    6.83914435    0.00000000   1       1  H
   -1.85017593    6.04910817    0.00000000   2       2  N
   -3.58046284    6.49047208    0.00000000   3       3  Si
   -3.73624252    7.98046434    0.00000000   1       4  H
   -5.10378446    4.93156456    0.00000000   3       5  Si
   -6.58697209    5.17439492    0.00000000   1       6  H
   -3.90539360    3.01828840    0.00000000   3       7  Si
   -4.67141906    1.48557166    0.00000000   2       8  N
   -4.08117251    0.52835863    0.00000000   1       9  H
   -5.72304138    1.40511143    0.00000000   1      10  H
   -2.18919354    3.07346271    0.00000000   2      11  N
   -1.11417092    4.40380155    0.00000000   3      12  Si
    0.49450240    4.38499129    0.00000000   4      13  O
    5.61644830   -7.44953905    0.00000000   1      14  H
    4.58206954   -7.23203760    0.00000000   2      15  N
    3.29666389   -8.49263600    0.00000000   3      16  Si
    3.80117524   -9.90371886    0.00000000   1      17  H
    1.65934232   -8.01362137    0.00000000   2      18  N
    1.68097912   -6.20463398    0.00000000   3      19  Si
    0.54543521   -4.28636135    0.00000000   3      20  Si
   -1.03431493   -3.94450034    0.00000000   4      21  O
    1.73226934   -2.87719605    0.00000000   2      22  N
    1.20957366   -1.92961761    0.00000000   1      23  H
    3.50853448   -2.77677601    0.00000000   3      24  Si
    4.13684451   -1.17938608    0.00000000   2      25  N
    3.54296161   -0.26248101    0.00000000   1      26  H
    5.18364407   -1.05231197    0.00000000   1      27  H
    4.63288658   -4.07521596    0.00000000   2      28  N
    3.79410501   -5.58634043    0.00000000   3      29  Si

outcell: Unit cell vectors (Ang):
       21.012345    0.000000    0.000000
        0.000000   27.261184    0.000000
        0.000000    0.000000    9.854683

outcell: Cell vector modules (Ang)   :   21.012345   27.261184    9.854683
outcell: Cell angles (23,13,12) (deg):     90.0000     90.0000     90.0000
outcell: Cell volume (Ang**3)        :   5644.9736
<dSpData1D:S at geom step 0
  <sparsity:sparsity for geom step 0
    nrows_g=297 nrows=57 sparsity=.0950 nnzs=8377, refcount: 8>
  <dData1D:(new from dSpData1D) n=8377, refcount: 1>
refcount: 1>
new_DM -- step:     1
Initializing Density Matrix...

Attempting to read DM from file... Failed...
DM filled with atomic data:
<dSpData2D:DM initialized from atoms
  <sparsity:sparsity for geom step 0
    nrows_g=297 nrows=57 sparsity=.0950 nnzs=8377, refcount: 9>
  <dData2D:DM n=8377 m=8, refcount: 1>
refcount: 1>
     spin moment: S , {S} =   56.00000   0.00000   0.00000  56.00000
No. of atoms with KB's overlaping orbs in proc 0. Max # of overlaps:      28     142

Initializing spin-orbit part of the Hamiltonian
  Adding spin-orbit effects for H 
  Adding spin-orbit effects for N 
  Adding spin-orbit effects for Si
  Adding spin-orbit effects for O 


New grid distribution:   1
           1       1:  120    1:   80    1:   20
           2       1:  120    1:   80   21:   40
           3       1:  120    1:   80   41:   60
           4       1:  120   81:  160    1:   20
           5       1:  120   81:  160   21:   40
           6       1:  120   81:  160   41:   60

InitMesh: MESH =   240 x   320 x   120 =     9216000
InitMesh: (bp) =   120 x   160 x    60 =     1152000
InitMesh: Mesh cutoff (required, used) =   340.000   360.558 Ry
ExtMesh (bp) on 0 =   224 x   188 x   132 =     5558784
New grid distribution:   2
           1       1:   89    1:  113    1:   60
           2      90:  120   28:  113    1:   60
           3      90:  120    1:   27    1:   60
           4       1:   15  114:  160    1:   60
           5      16:  120  134:  160    1:   60
           6      16:  120  114:  133    1:   60
New grid distribution:   3
           1       1:   74    1:   94    1:   60
           2      75:  120   30:   94    1:   60
           3      75:  120    1:   29    1:   60
           4       1:   20   95:  160    1:   60
           5      21:  120   95:  133    1:   60
           6      21:  120  134:  160    1:   60
Setting up quadratic distribution...
ExtMesh (bp) on 0 =   193 x   221 x   172 =     7336316
PhiOnMesh: Number of (b)points on node 0 =               603420
PhiOnMesh: nlist on node 0 =              2600594

stepf: Fermi-Dirac step function

siesta: Program's energy decomposition (eV):
siesta: Ebs     =      -624.563763
siesta: Eions   =      3585.165840
siesta: Ena     =       381.828398
siesta: Ekin    =      3368.515621
siesta: Enl     =     -3296.897552
siesta: Eso     =        -0.003411
siesta: Edftu   =         0.000000
siesta: DEna    =       153.494866
siesta: DUscf   =        81.828062
siesta: DUext   =         0.000000
siesta: Exc     =     -1203.925861
siesta: eta*DQ  =         0.000000
siesta: Emadel  =         0.000000
siesta: Emeta   =         0.000000
siesta: Emolmec =         0.000000
siesta: Ekinion =         0.000000
siesta: Eharris =     -4020.626265
siesta: Etot    =     -4100.325717
siesta: FreeEng =     -4100.326751

        iscf     Eharris(eV)        E_KS(eV)     FreeEng(eV)     dDmax    Ef(eV) dHmax(eV)
   scf:    1    -4020.626265    -4100.325717    -4100.326751  0.965672 -4.903673 21.948389
     spin moment: S , {S} =    2.00581   0.00000   0.00000   2.00581
timer: Routine,Calls,Time,% = IterSCF        1       6.576  24.97
   scf:    2    -4146.742600    -4135.662941    -4135.665237  0.450076 -4.219862 11.469213
     spin moment: S , {S} =    1.98701  -0.00000  -0.00000   1.98701
   scf:    3    -4106.820867    -4133.124869    -4133.136687  0.422017 -4.338484 12.093246
     spin moment: S , {S} =    2.10576  -0.00000   0.00000   2.10576
   scf:    4    -4149.493028    -4144.814792    -4144.814793  0.322836 -3.915841  7.458440
     spin moment: S , {S} =    0.00010   0.00000  -0.00000   0.00010
   scf:    5    -4146.166294    -4145.594391    -4145.594391  0.036106 -3.719551  4.764570
     spin moment: S , {S} =    0.00006  -0.00000   0.00000   0.00006
   scf:    6    -4146.376232    -4145.994800    -4145.994800  0.024368 -3.617360  2.320249
     spin moment: S , {S} =    0.00003  -0.00000  -0.00000   0.00003
   scf:    7    -4146.350934    -4146.169106    -4146.169106  0.021374 -3.516649  0.889725
     spin moment: S , {S} =    0.00001   0.00000   0.00000   0.00001
   scf:    8    -4146.289125    -4146.227157    -4146.227157  0.012263 -3.760859  0.502928
     spin moment: S , {S} =    0.00000   0.00000  -0.00000   0.00000
   scf:    9    -4146.265822    -4146.245815    -4146.245815  0.006545 -3.716412  0.381730
     spin moment: S , {S} =    0.00000   0.00000  -0.00000   0.00000
   scf:   10    -4146.297483    -4146.265249    -4146.265249  0.021725 -3.787429  0.234653
     spin moment: S , {S} =    0.00000   0.00000  -0.00000  -0.00000
   scf:   11    -4146.269125    -4146.267185    -4146.267185  0.005767 -3.774170  0.063972
     spin moment: S , {S} =    0.00000   0.00000  -0.00000  -0.00000
   scf:   12    -4146.268362    -4146.267787    -4146.267787  0.001009 -3.769368  0.028159
     spin moment: S , {S} =    0.00000   0.00000  -0.00000  -0.00000
   scf:   13    -4146.268275    -4146.268028    -4146.268028  0.001233 -3.766538  0.018384
     spin moment: S , {S} =    0.00000   0.00000  -0.00000  -0.00000
   scf:   14    -4146.268293    -4146.268154    -4146.268154  0.000985 -3.766277  0.010632
     spin moment: S , {S} =    0.00000   0.00000  -0.00000  -0.00000
   scf:   15    -4146.268252    -4146.268200    -4146.268200  0.000806 -3.765261  0.007879
     spin moment: S , {S} =    0.00000   0.00000  -0.00000  -0.00000
   scf:   16    -4146.268265    -4146.268229    -4146.268229  0.000834 -3.764650  0.005655
     spin moment: S , {S} =    0.00000   0.00000  -0.00000   0.00000
   scf:   17    -4146.268246    -4146.268237    -4146.268237  0.000414 -3.764579  0.004172
     spin moment: S , {S} =    0.00000   0.00000  -0.00000   0.00000
   scf:   18    -4146.268246    -4146.268241    -4146.268241  0.000314 -3.764779  0.002669
     spin moment: S , {S} =    0.00000   0.00000  -0.00000   0.00000
   scf:   19    -4146.268245    -4146.268243    -4146.268243  0.000233 -3.764937  0.001795
     spin moment: S , {S} =    0.00000   0.00000  -0.00000   0.00000
   scf:   20    -4146.268245    -4146.268244    -4146.268244  0.000143 -3.764956  0.001236
     spin moment: S , {S} =    0.00000   0.00000  -0.00000   0.00000
   scf:   21    -4146.268245    -4146.268244    -4146.268244  0.000182 -3.764922  0.000594
     spin moment: S , {S} =    0.00000   0.00000  -0.00000   0.00000
   scf:   22    -4146.268245    -4146.268245    -4146.268245  0.000112 -3.764887  0.000239
     spin moment: S , {S} =    0.00000   0.00000  -0.00000   0.00000
   scf:   23    -4146.268245    -4146.268245    -4146.268245  0.000027 -3.764887  0.000189
     spin moment: S , {S} =    0.00000   0.00000  -0.00000   0.00000
   scf:   24    -4146.268245    -4146.268245    -4146.268245  0.000009 -3.764897  0.000102
     spin moment: S , {S} =    0.00000   0.00000  -0.00000   0.00000
mix: Pulay -- resetting history
   scf:   25    -4146.268245    -4146.268245    -4146.268245  0.000006 -3.764902  0.000041
     spin moment: S , {S} =    0.00000   0.00000  -0.00000   0.00000
   scf:   26    -4146.268245    -4146.268245    -4146.268245  0.000003 -3.764903  0.000030
     spin moment: S , {S} =    0.00000   0.00000  -0.00000   0.00000
   scf:   27    -4146.268245    -4146.268245    -4146.268245  0.000002 -3.764900  0.000020
     spin moment: S , {S} =    0.00000   0.00000  -0.00000   0.00000
   scf:   28    -4146.268245    -4146.268245    -4146.268245  0.000002 -3.764898  0.000010
     spin moment: S , {S} =    0.00000   0.00000  -0.00000   0.00000
   scf:   29    -4146.268245    -4146.268245    -4146.268245  0.000001 -3.764898  0.000006
     spin moment: S , {S} =    0.00000   0.00000  -0.00000  -0.00000
   scf:   30    -4146.268245    -4146.268245    -4146.268245  0.000001 -3.764898  0.000002
     spin moment: S , {S} =    0.00000   0.00000  -0.00000  -0.00000
   scf:   31    -4146.268245    -4146.268245    -4146.268245  0.000000 -3.764898  0.000002
     spin moment: S , {S} =    0.00000   0.00000  -0.00000  -0.00000
   scf:   32    -4146.268245    -4146.268245    -4146.268245  0.000000 -3.764898  0.000001
     spin moment: S , {S} =    0.00000   0.00000  -0.00000  -0.00000
   scf:   33    -4146.268245    -4146.268245    -4146.268245  0.000000 -3.764898  0.000001
     spin moment: S , {S} =    0.00000   0.00000  -0.00000  -0.00000

SCF Convergence by DM+H criterion
max |DM_out - DM_in|         :     0.0000000997
max |H_out - H_in|      (eV) :     0.0000005090
SCF cycle converged after 33 iterations

Using DM_out to compute the final energy and forces
No. of atoms with KB's overlaping orbs in proc 0. Max # of overlaps:      28     142

siesta: E_KS(eV) =            -4146.2682

siesta: E_KS - E_eggbox =     -4146.2682
     spin moment: S , {S} =    0.00000   0.00000  -0.00000  -0.00000

siesta: Atomic forces (eV/Ang):
     1    0.064697   -0.106153    0.000000
     2   -0.597179    0.305817    0.000000
     3    0.434352   -0.021810    0.000000
     4   -0.131958    0.139822   -0.000000
     5   -0.211362   -0.224483   -0.000000
     6    0.059783    0.102197    0.000000
     7    1.209051    1.065644    0.000000
     8    0.774011   -2.335623   -0.000000
     9   -1.325336    1.805116   -0.000000
    10    0.151806   -0.287244    0.000000
    11   -1.062791   -0.268635   -0.000000
    12    1.248673   -0.227723   -0.000000
    13    3.176917   -0.477834    0.000000
    14   -0.011326    0.015833    0.000000
    15    0.118629    0.042058   -0.000000
    16    0.022315   -0.016024   -0.000000
    17   -0.066049    0.063475    0.000000
    18   -0.013670    0.044243    0.000000
    19    0.262810    0.028720   -0.000000
    20   -1.384444   -0.194858    0.000000
    21   -2.284861    2.104045   -0.000000
    22    0.368398    0.787576   -0.000000
    23    0.238915   -0.650410   -0.000000
    24   -0.339235   -0.999772    0.000000
    25   -0.469131    1.588260    0.000000
    26    0.832981   -1.187321    0.000000
    27   -0.141769    0.187506   -0.000000
    28    0.021918    0.767205   -0.000000
    29   -0.313892   -0.427208    0.000000
----------------------------------------
   Tot    0.632253    1.622421   -0.000000
----------------------------------------
   Max    3.176917
   Res    0.739126    sqrt( Sum f_i^2 / 3N )
----------------------------------------
   Max    3.176917    constrained

Stress tensor Voigt[x,y,z,yz,xz,xy] (kbar):        1.19        0.50       -0.08       -0.00       -0.00       -1.18
(Free)E + p*V (eV/cell)    -4148.1583
Target enthalpy (eV/cell)    -4146.2682

siesta: Eigenvalues (eV):
ik =     1
  -21.9410  -21.9410  -21.7587  -21.7587  -21.6023  -21.6023  -21.5592  -21.5592  -21.2469  -21.2469
  -20.9998  -20.9998  -20.8786  -20.8786  -19.8518  -19.8518  -19.3744  -19.3744  -19.3612  -19.3612
  -14.7356  -14.7356  -13.9240  -13.9240  -13.3293  -13.3293  -13.2256  -13.2256  -13.0863  -13.0863
  -12.9333  -12.9333  -12.8781  -12.8781  -12.5199  -12.5199  -12.4250  -12.4250  -12.0218  -12.0218
  -11.4719  -11.4719  -10.7949  -10.7949  -10.7881  -10.7881  -10.7707  -10.7707  -10.0618  -10.0618
   -9.5380   -9.5380   -9.2963   -9.2963   -8.8672   -8.8672   -8.7155   -8.7155   -8.6807   -8.6807
   -8.6623   -8.6623   -8.3863   -8.3863   -8.2075   -8.2075   -7.8423   -7.8423   -7.6411   -7.6411
   -7.5527   -7.5527   -7.3670   -7.3670   -7.2910   -7.2910   -6.9264   -6.9264   -6.7247   -6.7247
   -6.5314   -6.5314   -6.4606   -6.4606   -6.1289   -6.1289   -6.1070   -6.1070   -6.0732   -6.0732
   -5.6902   -5.6902   -5.6144   -5.6144   -5.4321   -5.4321   -4.3206   -4.3206   -3.2112   -3.2112
   -2.3278   -2.3278   -2.3149   -2.3149   -2.2854   -2.2854   -1.9421   -1.9421   -1.8699   -1.8699
   -1.8337   -1.8337   -1.7731   -1.7731   -1.6007   -1.6007   -1.5732   -1.5732   -0.9536   -0.9536
   -0.9464   -0.9464   -0.8286   -0.8286   -0.4322   -0.4322   -0.1338   -0.1338    0.0176    0.0176
    0.2604    0.2604    0.3910    0.3910    0.5343    0.5343    0.7128    0.7128    0.7573    0.7573
    0.9518    0.9518    1.1991    1.1991    1.3377    1.3377    1.3538    1.3538    1.4549    1.4549
    1.6982    1.6982    1.8263    1.8263    1.9177    1.9177    2.2839    2.2839    2.7128    2.7128
    2.7195    2.7195    2.8245    2.8245    2.9509    2.9509    3.1608    3.1608    3.3440    3.3440
    3.3590    3.3590    3.7021    3.7021    3.7913    3.7913    4.1238    4.1238    4.2213    4.2213
    4.4491    4.4491    4.4595    4.4595    4.5645    4.5645    4.5970    4.5970    4.7670    4.7670
    4.9297    4.9297    4.9475    4.9475    5.2113    5.2113    5.5318    5.5318    5.6506    5.6506
    5.7296    5.7296    5.7928    5.7928    5.8292    5.8292    5.8897    5.8897    5.9560    5.9560
    6.1888    6.1888    6.3377    6.3377    6.6490    6.6490    6.6564    6.6564    6.8602    6.8602
    7.0472    7.0472    7.1502    7.1502    7.3974    7.3974    7.4807    7.4807    7.7379    7.7379
    7.8165    7.8165    7.9694    7.9694    8.1175    8.1175    8.2350    8.2350    8.3091    8.3091
    8.4539    8.4539    8.6854    8.6854    8.8236    8.8236    8.9225    8.9225    9.1604    9.1604
    9.1675    9.1675    9.1885    9.1885    9.7579    9.7579    9.8107    9.8107    9.8404    9.8404
   10.0310   10.0310   10.1908   10.1908   10.4200   10.4200   10.7040   10.7040   10.7624   10.7624
   10.9092   10.9092   10.9439   10.9439   11.2094   11.2094   11.6640   11.6640   11.6809   11.6809
   11.8006   11.8006   11.8837   11.8837   12.0223   12.0223   12.3363   12.3363   12.7414   12.7414
   12.7528   12.7528   12.7721   12.7721   13.2390   13.2390   13.4758   13.4758   13.6027   13.6027
   13.8234   13.8234   14.1355   14.1355   14.2326   14.2326   14.5790   14.5790   14.7177   14.7177
   14.8996   14.8996   15.3711   15.3711   15.9790   15.9790   16.4289   16.4289   16.7368   16.7368
   16.8917   16.8917   17.3405   17.3405   17.6142   17.6142   18.1295   18.1295   18.3722   18.3722
   18.5837   18.5837   19.2386   19.2386   19.3293   19.3293   19.8505   19.8505   20.3041   20.3041
   20.9882   20.9882   21.2647   21.2647   21.9067   21.9067   22.2838   22.2838   22.2956   22.2956
   22.9026   22.9026   23.1902   23.1902   23.6538   23.6538   23.8063   23.8063   23.8796   23.8796
   24.8440   24.8440   25.3027   25.3027   26.0060   26.0060   26.6660   26.6660   27.3629   27.3629
   28.0927   28.0927   28.8967   28.8967   29.1728   29.1728   29.3403   29.3403   29.6454   29.6454
   29.9196   29.9196   30.0392   30.0392   30.2028   30.2028   30.6640   30.6640   30.7925   30.7925
   30.9827   30.9827   31.2265   31.2265   31.5284   31.5284   31.6586   31.6586   32.0557   32.0557
   32.5832   32.5832   33.7612   33.7612   34.5837   34.5837   34.6864   34.6864   34.9573   34.9573
   35.0212   35.0212   35.1181   35.1181   35.4866   35.4866   35.5792   35.5792   35.9490   35.9490
   36.6963   36.6963   36.7728   36.7728   37.0122   37.0122   37.2097   37.2097   37.4505   37.4505
   38.2112   38.2112   38.2910   38.2910   39.2954   39.2954   39.3933   39.3933   39.7264   39.7264
   40.3938   40.3938   40.5041   40.5041   40.5201   40.5201   40.6542   40.6542   40.8638   40.8638
   40.8865   40.8865   41.2203   41.2203   42.4818   42.4818   42.7831   42.7831   42.9006   42.9006
   43.2951   43.2951   43.8024   43.8024   43.8495   43.8495   43.9525   43.9525   44.3345   44.3345
   44.6235   44.6235   44.7240   44.7240   44.9935   44.9935   45.3577   45.3577   46.0856   46.0856
   46.1468   46.1468   46.9535   46.9535   47.2945   47.2945   48.8621   48.8621   49.0013   49.0013
   49.3890   49.3890   50.2841   50.2841   50.4799   50.4799   51.0142   51.0142   51.0218   51.0218
   51.6120   51.6120   51.6710   51.6710   52.6788   52.6788   52.6796   52.6796   54.2385   54.2385
   54.3024   54.3024   54.4584   54.4584   54.4888   54.4888   55.6404   55.6404   55.7082   55.7082
   55.8074   55.8074   55.9053   55.9053   56.4181   56.4181   57.9858   57.9858   58.2900   58.2900
   58.5593   58.5593   60.0734   60.0734   60.2224   60.2224   60.3982   60.3982   61.0572   61.0572
   61.8571   61.8571   61.8812   61.8812   62.0733   62.0733   64.6890   64.6890   66.5805   66.5805
   66.7273   66.7273   67.1012   67.1012   68.1135   68.1135   68.4134   68.4134   70.8232   70.8232
   73.7092   73.7092   80.1713   80.1713   91.0145   91.0145   92.0667   92.0667   93.1801   93.1801
   98.2240   98.2240   98.5165   98.5165   99.6366   99.6366  102.9743  102.9743  103.5568  103.5568
  109.9902  109.9902  111.5208  111.5208  123.9924  123.9924  126.2587  126.2587  129.0521  129.0521
  135.0827  135.0827  138.1419  138.1419
siesta: Fermi energy =      -3.764898 eV

siesta: Program's energy decomposition (eV):
siesta: Ebs     =     -1135.195281
siesta: Eions   =      3585.165840
siesta: Ena     =       381.828398
siesta: Ekin    =      2902.567457
siesta: Enl     =     -2787.174105
siesta: Eso     =        -0.004278
siesta: Edftu   =         0.000000
siesta: DEna    =        46.878465
siesta: DUscf   =        14.355628
siesta: DUext   =         0.000000
siesta: Exc     =     -1119.553971
siesta: eta*DQ  =         0.000000
siesta: Emadel  =         0.000000
siesta: Emeta   =         0.000000
siesta: Emolmec =         0.000000
siesta: Ekinion =         0.000000
siesta: Eharris =     -4146.268245
siesta: Etot    =     -4146.268245
siesta: FreeEng =     -4146.268245

siesta: Final energy (eV):
siesta:  Band Struct. =   -1135.195281
siesta:       Kinetic =    2902.567457
siesta:       Hartree =    8103.503206
siesta:       Edftu   =       0.000000
siesta:       Eso     =      -0.004278
siesta:    Ext. field =       0.000000
siesta:   Exch.-corr. =   -1119.553971
siesta:  Ion-electron =  -18791.464080
siesta:       Ion-ion =    4758.683422
siesta:       Ekinion =       0.000000
siesta:         Total =   -4146.268245
siesta:         Fermi =      -3.764898

siesta: Atomic forces (eV/Ang):
siesta:      1    0.064697   -0.106153    0.000000
siesta:      2   -0.597179    0.305817    0.000000
siesta:      3    0.434352   -0.021810    0.000000
siesta:      4   -0.131958    0.139822   -0.000000
siesta:      5   -0.211362   -0.224483   -0.000000
siesta:      6    0.059783    0.102197    0.000000
siesta:      7    1.209051    1.065644    0.000000
siesta:      8    0.774011   -2.335623   -0.000000
siesta:      9   -1.325336    1.805116   -0.000000
siesta:     10    0.151806   -0.287244    0.000000
siesta:     11   -1.062791   -0.268635   -0.000000
siesta:     12    1.248673   -0.227723   -0.000000
siesta:     13    3.176917   -0.477834    0.000000
siesta:     14   -0.011326    0.015833    0.000000
siesta:     15    0.118629    0.042058   -0.000000
siesta:     16    0.022315   -0.016024   -0.000000
siesta:     17   -0.066049    0.063475    0.000000
siesta:     18   -0.013670    0.044243    0.000000
siesta:     19    0.262810    0.028720   -0.000000
siesta:     20   -1.384444   -0.194858    0.000000
siesta:     21   -2.284861    2.104045   -0.000000
siesta:     22    0.368398    0.787576   -0.000000
siesta:     23    0.238915   -0.650410   -0.000000
siesta:     24   -0.339235   -0.999772    0.000000
siesta:     25   -0.469131    1.588260    0.000000
siesta:     26    0.832981   -1.187321    0.000000
siesta:     27   -0.141769    0.187506   -0.000000
siesta:     28    0.021918    0.767205   -0.000000
siesta:     29   -0.313892   -0.427208    0.000000
siesta: ----------------------------------------
siesta:    Tot    0.632253    1.622421   -0.000000

siesta: Stress tensor (static) (eV/Ang**3):
siesta:     0.000741   -0.000734   -0.000000
siesta:    -0.000734    0.000315    0.000000
siesta:    -0.000000   -0.000000   -0.000051

siesta: Cell volume =       5644.973632 Ang**3

siesta: Pressure (static):
siesta:                Solid            Molecule  Units
siesta:          -0.00000365          0.00000288  Ry/Bohr**3
siesta:          -0.00033483          0.00026441  eV/Ang**3
siesta:          -0.53645624          0.42364331  kBar
(Free)E+ p_basis*V_orbitals  =       -4126.417827
(Free)Eharris+ p_basis*V_orbitals  =       -4126.417827
     spin moment: S , {S} =    0.00000   0.00000  -0.00000  -0.00000

siesta: Electric dipole (a.u.)  =    0.045078    1.507286   -0.000000
siesta: Electric dipole (Debye) =    0.114576    3.831142   -0.000000

cite: Please see "GC.bib" for an exhaustive BiBTeX file.
cite: Please clearly indicate Siesta version in published work: v4.1.5-1-g384057250
cite: This calculation has made use of the following articles
cite: which are encouraged to be cited in a published work.
        Primary SIESTA paper
          DOI: www.doi.org/10.1088/0953-8984/14/11/302
        Spin-orbit coupling (on-site approximation)
          DOI: www.doi.org/10.1088/0953-8984/19/19/489001


WARNING: alloc-realloc-dealloc name mismatch
         Name: atomlist isa
         Size:              -116. Bytes
         Node:     0
         Subsequent mismatches will not be reported
>> End of run:  16-OCT-2023  19:14:25
Job completed
