Siesta Version  : v4.1.5-1-g384057250
Architecture    : gcc
Compiler version: GNU Fortran (Ubuntu 11.3.0-1ubuntu1~22.04) 11.3.0
Compiler flags  : mpifort -O2 -fPIC -ftree-vectorize -fallow-argument-mismatch
PP flags        : -DFC_HAVE_ABORT -DMPI -DSIESTA__FLOOK -DSIESTA__METIS -DSIESTA__MUMPS -DCDF -DNCDF -DNCDF_4 -DNCDF_PARALLEL -DSIESTA__MRRR -DSIESTA__ELPA
Libraries       : libncdf.a libfdict.a  -lflookall -ldl -lnetcdff -lnetcdf -lhdf5_hl -lhdf5 -lhdf5_fortran -lz -lscalapack-openmpi -lopenblas -lmetis -lzmumps -lcmumps -ldmumps -lmumps_common -lpord -lsmumps -lesmumps -lscotch -lscotcherr -fopenmp -lelpa
PARALLEL version
NetCDF support
NetCDF-4 support
NetCDF-4 MPI-IO support
METIS ordering support
Lua support

* Running on 4 nodes in parallel
>> Start of run:   4-JUL-2023  10:30:50

                           ***********************       
                           *  WELCOME TO SIESTA  *       
                           ***********************       

reinit: Reading from standard input
reinit: Dumped input in INPUT_TMP.77281
************************** Dump of input data file ****************************
SystemLabel      GC
NumberOfAtoms    29
NumberOfSpecies  4
%block ChemicalSpeciesLabel
    1    8  O
    2    7  N
    3   14  Si
    4    1  H
%endblock ChemicalSpeciesLabel
# Single point calculation
MD.TypeOfRun                CG
MD.Steps                    0
SCF.MustConverge            F # In case it does not. There can be 2 very close atoms
AtomicCoordinatesFormat NotScaledCartesianAng
%block AtomicCoordinatesAndAtomicSpecies
0.958671510    3.803529300    0.000000000       1
-3.038688210   0.998073330    0.000000000       2
2.066567750    1.099065770    0.000000000       2
1.029569860    -1.834680850   0.000000000       2
-2.108567660   -1.881798240   0.000000000       2
3.912411070    -1.180894430   0.000000000       2
-1.235636790   1.044983000    0.000000000       3
-0.501909240   -1.031832280   0.000000000       3
0.629463280    2.232755840    0.000000000       3
2.280054370    -0.658293540   0.000000000       3
-3.424812990   -0.662324160   0.000000000       3
2.965974160    1.682263990    0.000000000       4
-4.796229390   -1.238728480   0.000000000       4
4.096559410    -2.214148760   0.000000000       4
4.792108680    -0.529147250   0.000000000       4
-2.266861300   -2.922393730   0.000000000       4
4.433311954    4.751727204    0.000000000       3
6.358789704    5.943356534    0.000000000       3
5.893983314    2.017172834    0.000000000       3
7.965163234    4.464219424    0.000000000       3
4.535596494    3.042372514    0.000000000       2
2.853933864    5.421956694    0.000000000       2
7.547053214    2.732336514    0.000000000       2
6.667280524    7.408017894    0.000000000       4
9.456836144    4.664198884    0.000000000       4
2.669307424    6.456830424    0.000000000       4
1.961842074    4.750667964    0.000000000       4
5.883852714    0.418944314    0.000000000       1
8.323651594    2.010506314    0.000000000       4
%endblock AtomicCoordinatesAndAtomicSpecies
%include ../../../Defaults.fdf
************************** End of input data file *****************************

reinit: -----------------------------------------------------------------------
reinit: System Name: 
reinit: -----------------------------------------------------------------------
reinit: System Label: GC
reinit: -----------------------------------------------------------------------

initatom: Reading input for the pseudopotentials and atomic orbitals ----------
Species number:   1 Atomic number:    8 Label: O
Species number:   2 Atomic number:    7 Label: N
Species number:   3 Atomic number:   14 Label: Si
Species number:   4 Atomic number:    1 Label: H

Ground state valence configuration:   2s02  2p04
Reading pseudopotential information in formatted form from O.psf

Pseudopotential generated from a relativistic atomic calculation

Valence configuration for pseudopotential generation:
2s( 2.00) rc: 0.45
2p( 4.00) rc: 0.92
3d( 0.00) rc: 2.24
4f( 0.00) rc: 0.25
Ground state valence configuration:   2s02  2p03
Reading pseudopotential information in formatted form from N.psf

Pseudopotential generated from a relativistic atomic calculation

Valence configuration for pseudopotential generation:
2s( 2.00) rc: 0.94
2p( 3.00) rc: 0.59
3d( 0.00) rc: 3.46
4f( 0.00) rc: 2.47
Ground state valence configuration:   3s02  3p02
Reading pseudopotential information in formatted form from Si.psf

Pseudopotential generated from a relativistic atomic calculation

Valence configuration for pseudopotential generation:
3s( 2.00) rc: 1.67
3p( 2.00) rc: 2.04
3d( 0.00) rc: 2.89
4f( 0.00) rc: 2.49
Ground state valence configuration:   1s01
Reading pseudopotential information in formatted form from H.psf

Pseudopotential generated from a relativistic atomic calculation

Valence configuration for pseudopotential generation:
1s( 1.00) rc: 0.01
2p( 0.00) rc: 0.60
3d( 0.00) rc: 1.99
4f( 0.00) rc: 2.49
For O, standard SIESTA heuristics set lmxkb to 3
 (one more than the basis l, including polarization orbitals).
Use PS.lmax or PS.KBprojectors blocks to override.
For N, standard SIESTA heuristics set lmxkb to 3
 (one more than the basis l, including polarization orbitals).
Use PS.lmax or PS.KBprojectors blocks to override.
For Si, standard SIESTA heuristics set lmxkb to 3
 (one more than the basis l, including polarization orbitals).
Use PS.lmax or PS.KBprojectors blocks to override.
For H, standard SIESTA heuristics set lmxkb to 2
 (one more than the basis l, including polarization orbitals).
Use PS.lmax or PS.KBprojectors blocks to override.

<basis_specs>
===============================================================================
O                    Z=   8    Mass=  16.000        Charge= 0.17977+309
Lmxo=1 Lmxkb= 3    BasisType=split      Semic=F
L=0  Nsemic=0  Cnfigmx=2
          i=1  nzeta=2  polorb=0  (2s)
            splnorm:   0.28000    
               vcte:    0.0000    
               rinn:    0.0000    
               qcoe:    0.0000    
               qyuk:    0.0000    
               qwid:   0.10000E-01
                rcs:    0.0000      0.0000    
            lambdas:    1.0000      1.0000    
L=1  Nsemic=0  Cnfigmx=2
          i=1  nzeta=2  polorb=1  (2p)
            splnorm:   0.28000    
               vcte:    0.0000    
               rinn:    0.0000    
               qcoe:    0.0000    
               qyuk:    0.0000    
               qwid:   0.10000E-01
                rcs:    0.0000      0.0000    
            lambdas:    1.0000      1.0000    
-------------------------------------------------------------------------------
L=0  Nkbl=1  erefs: 0.17977+309
L=1  Nkbl=1  erefs: 0.17977+309
L=2  Nkbl=1  erefs: 0.17977+309
L=3  Nkbl=1  erefs: 0.17977+309
===============================================================================
</basis_specs>

atom: Called for O                     (Z =   8)

read_vps: Pseudopotential generation method:
read_vps: ATM4.2.7  Troullier-Martins                       
Valence charge for ps generation:    6.00000

xc_check: Exchange-correlation functional:
xc_check: GGA Perdew, Burke & Ernzerhof 1996
V l=0 = -2*Zval/r beyond r=  1.1000
V l=1 = -2*Zval/r beyond r=  1.1000
V l=2 = -2*Zval/r beyond r=  2.2154
V l=3 = -2*Zval/r beyond r=  1.1000
All V_l potentials equal beyond r=  2.2154
This should be close to max(r_c) in ps generation
All pots = -2*Zval/r beyond r=  2.2154

VLOCAL1: 99.0% of the norm of Vloc inside      8.845 Ry
VLOCAL1: 99.9% of the norm of Vloc inside     20.157 Ry
atom: Maximum radius for 4*pi*r*r*local-pseudopot. charge    2.67231
atom: Maximum radius for r*vlocal+2*Zval:    2.32897
GHOST: No ghost state for L =  0
GHOST: No ghost state for L =  1
GHOST: No ghost state for L =  2
GHOST: No ghost state for L =  3

KBgen: Kleinman-Bylander projectors: 
   l= 0   rc=  2.243238   el= -1.759686   Ekb=**********   kbcos= -0.171774
   l= 1   rc=  2.328968   el= -0.663873   Ekb=-14.506792   kbcos= -0.519897
   l= 2   rc=  2.573941   el=  0.002031   Ekb= -1.137373   kbcos= -0.019581
   l= 3   rc=  2.606321   el=  0.003153   Ekb= -1.013546   kbcos= -0.003122

KBgen: Total number of Kleinman-Bylander projectors:   16
atom: -------------------------------------------------------------------------

atom: SANKEY-TYPE ORBITALS:
atom: Selected multiple-zeta basis: split     

SPLIT: Orbitals with angular momentum L= 0

SPLIT: Basis orbitals for state 2s

SPLIT: PAO cut-off radius determined from an
SPLIT: energy shift=  0.002000 Ry

   izeta = 1
                 lambda =    1.000000
                     rc =    4.243912
                 energy =   -1.758270
                kinetic =    3.286084
    potential(screened) =   -5.044353
       potential(ionic) =  -12.921184

   izeta = 2
                 rmatch =    2.187845
              splitnorm =    0.280000
                 energy =   -0.885018
                kinetic =    8.134434
    potential(screened) =   -9.019452
       potential(ionic) =  -17.710645

SPLIT: Orbitals with angular momentum L= 1

SPLIT: Basis orbitals for state 2p

SPLIT: PAO cut-off radius determined from an
SPLIT: energy shift=  0.002000 Ry

   izeta = 1
                 lambda =    1.000000
                     rc =    5.314825
                 energy =   -0.661986
                kinetic =    4.917472
    potential(screened) =   -5.579458
       potential(ionic) =  -13.236259

   izeta = 2
                 rmatch =    2.160663
              splitnorm =    0.280000
                 energy =   -0.068760
                kinetic =    9.183374
    potential(screened) =   -9.252135
       potential(ionic) =  -18.274251

POLgen: Perturbative polarization orbital with L=  2

POLgen: Polarization orbital for state 2p

   izeta = 1
                     rc =    5.314825
                 energy =    1.970580
                kinetic =    3.886128
    potential(screened) =   -1.915547
       potential(ionic) =   -7.749584
atom: Total number of Sankey-type orbitals: 13

atm_pop: Valence configuration (for local Pseudopot. screening):
 2s( 2.00)                                                            
 2p( 4.00)                                                            
Vna: chval, zval:    6.00000   6.00000

Vna:  Cut-off radius for the neutral-atom potential:   5.314825

atom: _________________________________________________________________________

<basis_specs>
===============================================================================
N                    Z=   7    Mass=  14.010        Charge= 0.17977+309
Lmxo=1 Lmxkb= 3    BasisType=split      Semic=F
L=0  Nsemic=0  Cnfigmx=2
          i=1  nzeta=2  polorb=0  (2s)
            splnorm:   0.28000    
               vcte:    0.0000    
               rinn:    0.0000    
               qcoe:    0.0000    
               qyuk:    0.0000    
               qwid:   0.10000E-01
                rcs:    0.0000      0.0000    
            lambdas:    1.0000      1.0000    
L=1  Nsemic=0  Cnfigmx=2
          i=1  nzeta=2  polorb=1  (2p)
            splnorm:   0.28000    
               vcte:    0.0000    
               rinn:    0.0000    
               qcoe:    0.0000    
               qyuk:    0.0000    
               qwid:   0.10000E-01
                rcs:    0.0000      0.0000    
            lambdas:    1.0000      1.0000    
-------------------------------------------------------------------------------
L=0  Nkbl=1  erefs: 0.17977+309
L=1  Nkbl=1  erefs: 0.17977+309
L=2  Nkbl=1  erefs: 0.17977+309
L=3  Nkbl=1  erefs: 0.17977+309
===============================================================================
</basis_specs>

atom: Called for N                     (Z =   7)

read_vps: Pseudopotential generation method:
read_vps: ATM4.2.7  Troullier-Martins                       
Valence charge for ps generation:    5.00000

xc_check: Exchange-correlation functional:
xc_check: GGA Perdew, Burke & Ernzerhof 1996
V l=0 = -2*Zval/r beyond r=  1.2889
V l=1 = -2*Zval/r beyond r=  1.2889
V l=2 = -2*Zval/r beyond r=  3.4178
V l=3 = -2*Zval/r beyond r=  2.4084
All V_l potentials equal beyond r=  3.3753
This should be close to max(r_c) in ps generation
All pots = -2*Zval/r beyond r=  3.4178

VLOCAL1: 99.0% of the norm of Vloc inside      3.810 Ry
VLOCAL1: 99.9% of the norm of Vloc inside      8.683 Ry
atom: Maximum radius for 4*pi*r*r*local-pseudopot. charge    4.02088
atom: Maximum radius for r*vlocal+2*Zval:    3.54838
GHOST: No ghost state for L =  0
GHOST: No ghost state for L =  1
GHOST: No ghost state for L =  2
GHOST: No ghost state for L =  3

KBgen: Kleinman-Bylander projectors: 
   l= 0   rc=  3.417763   el= -1.365098   Ekb= -4.433130   kbcos= -0.707855
   l= 1   rc=  3.375302   el= -0.521201   Ekb=-13.264039   kbcos= -0.535594
   l= 2   rc=  3.872880   el=  0.001991   Ekb= -0.641094   kbcos= -0.062456
   l= 3   rc=  3.970931   el=  0.003093   Ekb= -0.474517   kbcos= -0.018236

KBgen: Total number of Kleinman-Bylander projectors:   16
atom: -------------------------------------------------------------------------

atom: SANKEY-TYPE ORBITALS:
atom: Selected multiple-zeta basis: split     

SPLIT: Orbitals with angular momentum L= 0

SPLIT: Basis orbitals for state 2s

SPLIT: PAO cut-off radius determined from an
SPLIT: energy shift=  0.002000 Ry

   izeta = 1
                 lambda =    1.000000
                     rc =    4.730425
                 energy =   -1.363399
                kinetic =    1.245246
    potential(screened) =   -2.608645
       potential(ionic) =   -8.121105

   izeta = 2
                 rmatch =    2.531849
              splitnorm =    0.280000
                 energy =   -0.959908
                kinetic =    2.409435
    potential(screened) =   -3.369343
       potential(ionic) =   -9.427975

SPLIT: Orbitals with angular momentum L= 1

SPLIT: Basis orbitals for state 2p

SPLIT: PAO cut-off radius determined from an
SPLIT: energy shift=  0.002000 Ry

   izeta = 1
                 lambda =    1.000000
                     rc =    5.924108
                 energy =   -0.519262
                kinetic =    3.672940
    potential(screened) =   -4.192202
       potential(ionic) =   -9.518354

   izeta = 2
                 rmatch =    2.531849
              splitnorm =    0.280000
                 energy =   -0.104258
                kinetic =    6.807538
    potential(screened) =   -6.911796
       potential(ionic) =  -13.149920

POLgen: Perturbative polarization orbital with L=  2

POLgen: Polarization orbital for state 2p

   izeta = 1
                     rc =    5.924108
                 energy =    1.427508
                kinetic =    2.872379
    potential(screened) =   -1.444871
       potential(ionic) =   -5.563644
atom: Total number of Sankey-type orbitals: 13

atm_pop: Valence configuration (for local Pseudopot. screening):
 2s( 2.00)                                                            
 2p( 3.00)                                                            
Vna: chval, zval:    5.00000   5.00000

Vna:  Cut-off radius for the neutral-atom potential:   5.924108

atom: _________________________________________________________________________

<basis_specs>
===============================================================================
Si                   Z=  14    Mass=  28.090        Charge= 0.17977+309
Lmxo=1 Lmxkb= 3    BasisType=split      Semic=F
L=0  Nsemic=0  Cnfigmx=3
          i=1  nzeta=2  polorb=0  (3s)
            splnorm:   0.28000    
               vcte:    0.0000    
               rinn:    0.0000    
               qcoe:    0.0000    
               qyuk:    0.0000    
               qwid:   0.10000E-01
                rcs:    0.0000      0.0000    
            lambdas:    1.0000      1.0000    
L=1  Nsemic=0  Cnfigmx=3
          i=1  nzeta=2  polorb=1  (3p)
            splnorm:   0.28000    
               vcte:    0.0000    
               rinn:    0.0000    
               qcoe:    0.0000    
               qyuk:    0.0000    
               qwid:   0.10000E-01
                rcs:    0.0000      0.0000    
            lambdas:    1.0000      1.0000    
-------------------------------------------------------------------------------
L=0  Nkbl=1  erefs: 0.17977+309
L=1  Nkbl=1  erefs: 0.17977+309
L=2  Nkbl=1  erefs: 0.17977+309
L=3  Nkbl=1  erefs: 0.17977+309
===============================================================================
</basis_specs>

atom: Called for Si                    (Z =  14)

read_vps: Pseudopotential generation method:
read_vps: ATM4.2.7  Troullier-Martins                       
Valence charge for ps generation:    4.00000

xc_check: Exchange-correlation functional:
xc_check: GGA Perdew, Burke & Ernzerhof 1996
V l=0 = -2*Zval/r beyond r=  2.7826
V l=1 = -2*Zval/r beyond r=  2.7826
V l=2 = -2*Zval/r beyond r=  2.9253
V l=3 = -2*Zval/r beyond r=  2.7826
All V_l potentials equal beyond r=  2.8530
This should be close to max(r_c) in ps generation
All pots = -2*Zval/r beyond r=  2.9253

VLOCAL1: 99.0% of the norm of Vloc inside      5.333 Ry
VLOCAL1: 99.9% of the norm of Vloc inside     12.154 Ry
atom: Maximum radius for 4*pi*r*r*local-pseudopot. charge    3.39869
atom: Maximum radius for r*vlocal+2*Zval:    2.96205
GHOST: No ghost state for L =  0
GHOST: No ghost state for L =  1
GHOST: No ghost state for L =  2
GHOST: No ghost state for L =  3

KBgen: Kleinman-Bylander projectors: 
   l= 0   rc=  3.075247   el= -0.794092   Ekb=  5.879390   kbcos=  0.167461
   l= 1   rc=  3.153101   el= -0.300068   Ekb=  2.642817   kbcos=  0.058301
   l= 2   rc=  3.273594   el=  0.001958   Ekb= -1.185135   kbcos= -0.104411
   l= 3   rc=  3.232927   el=  0.003046   Ekb= -0.497174   kbcos= -0.015889

KBgen: Total number of Kleinman-Bylander projectors:   16
atom: -------------------------------------------------------------------------

atom: SANKEY-TYPE ORBITALS:
atom: Selected multiple-zeta basis: split     

SPLIT: Orbitals with angular momentum L= 0

SPLIT: Basis orbitals for state 3s

SPLIT: PAO cut-off radius determined from an
SPLIT: energy shift=  0.002000 Ry

   izeta = 1
                 lambda =    1.000000
                     rc =    6.429618
                 energy =   -0.792283
                kinetic =    0.525293
    potential(screened) =   -1.317576
       potential(ionic) =   -3.744923

   izeta = 2
                 rmatch =    3.998416
              splitnorm =    0.280000
                 energy =   -0.583081
                kinetic =    1.069570
    potential(screened) =   -1.652651
       potential(ionic) =   -4.235185

SPLIT: Orbitals with angular momentum L= 1

SPLIT: Basis orbitals for state 3p

SPLIT: PAO cut-off radius determined from an
SPLIT: energy shift=  0.002000 Ry

   izeta = 1
                 lambda =    1.000000
                     rc =    8.464845
                 energy =   -0.298236
                kinetic =    0.785360
    potential(screened) =   -1.083596
       potential(ionic) =   -3.273779

   izeta = 2
                 rmatch =    4.587816
              splitnorm =    0.280000
                 energy =   -0.131871
                kinetic =    1.403687
    potential(screened) =   -1.535557
       potential(ionic) =   -4.015310

POLgen: Perturbative polarization orbital with L=  2

POLgen: Polarization orbital for state 3p

   izeta = 1
                     rc =    8.464845
                 energy =    0.321949
                kinetic =    1.055677
    potential(screened) =   -0.733728
       potential(ionic) =   -2.672950
atom: Total number of Sankey-type orbitals: 13

atm_pop: Valence configuration (for local Pseudopot. screening):
 3s( 2.00)                                                            
 3p( 2.00)                                                            
Vna: chval, zval:    4.00000   4.00000

Vna:  Cut-off radius for the neutral-atom potential:   8.464845

atom: _________________________________________________________________________

<basis_specs>
===============================================================================
H                    Z=   1    Mass=  1.0100        Charge= 0.17977+309
Lmxo=0 Lmxkb= 2    BasisType=split      Semic=F
L=0  Nsemic=0  Cnfigmx=1
          i=1  nzeta=2  polorb=1  (1s)
            splnorm:   0.62000    
               vcte:    0.0000    
               rinn:    0.0000    
               qcoe:    0.0000    
               qyuk:    0.0000    
               qwid:   0.10000E-01
                rcs:    0.0000      0.0000    
            lambdas:    1.0000      1.0000    
-------------------------------------------------------------------------------
L=0  Nkbl=1  erefs: 0.17977+309
L=1  Nkbl=1  erefs: 0.17977+309
L=2  Nkbl=1  erefs: 0.17977+309
===============================================================================
</basis_specs>

atom: Called for H                     (Z =   1)

read_vps: Pseudopotential generation method:
read_vps: ATM4.2.7  Troullier-Martins                       
Valence charge for ps generation:    1.00000

xc_check: Exchange-correlation functional:
xc_check: GGA Perdew, Burke & Ernzerhof 1996
V l=0 = -2*Zval/r beyond r=  0.0098
V l=1 = -2*Zval/r beyond r=  0.5817
V l=2 = -2*Zval/r beyond r=  1.9372
All V_l potentials equal beyond r=  1.9372
This should be close to max(r_c) in ps generation
All pots = -2*Zval/r beyond r=  1.9372

VLOCAL1: 99.0% of the norm of Vloc inside     11.567 Ry
VLOCAL1: 99.9% of the norm of Vloc inside     26.362 Ry
atom: Maximum radius for 4*pi*r*r*local-pseudopot. charge    2.25106
atom: Maximum radius for r*vlocal+2*Zval:    1.91306
GHOST: No ghost state for L =  0
GHOST: No ghost state for L =  1
GHOST: No ghost state for L =  2

KBgen: Kleinman-Bylander projectors: 
   l= 0   rc=  2.036604   el= -0.477180   Ekb= -6.081590   kbcos= -0.277285
   l= 1   rc=  2.195416   el=  0.001076   Ekb= -0.926943   kbcos= -0.034643
   l= 2   rc=  2.251056   el=  0.002010   Ekb= -0.130941   kbcos= -0.009788

KBgen: Total number of Kleinman-Bylander projectors:    9
atom: -------------------------------------------------------------------------

atom: SANKEY-TYPE ORBITALS:
atom: Selected multiple-zeta basis: split     

SPLIT: Orbitals with angular momentum L= 0

SPLIT: Basis orbitals for state 1s

SPLIT: PAO cut-off radius determined from an
SPLIT: energy shift=  0.002000 Ry

   izeta = 1
                 lambda =    1.000000
                     rc =    6.518340
                 energy =   -0.475305
                kinetic =    0.912139
    potential(screened) =   -1.387444
       potential(ionic) =   -1.907295

   izeta = 2
                 rmatch =    2.141150
              splitnorm =    0.620000
                 energy =    0.566467
                kinetic =    3.772856
    potential(screened) =   -3.206389
       potential(ionic) =   -3.759093

POLgen: Perturbative polarization orbital with L=  1

POLgen: Polarization orbital for state 1s

   izeta = 1
                     rc =    6.518340
                 energy =    0.533861
                kinetic =    1.121086
    potential(screened) =   -0.587225
       potential(ionic) =   -1.053027
atom: Total number of Sankey-type orbitals:  5

atm_pop: Valence configuration (for local Pseudopot. screening):
 1s( 1.00)                                                            
Vna: chval, zval:    1.00000   1.00000

Vna:  Cut-off radius for the neutral-atom potential:   6.518340

atom: _________________________________________________________________________

prinput: Basis input ----------------------------------------------------------

PAO.BasisType split     

%block ChemicalSpeciesLabel
    1    8 O                       # Species index, atomic number, species label
    2    7 N                       # Species index, atomic number, species label
    3   14 Si                      # Species index, atomic number, species label
    4    1 H                       # Species index, atomic number, species label
%endblock ChemicalSpeciesLabel

%block PAO.Basis                 # Define Basis set
O                     2                    # Species label, number of l-shells
 n=2   0   2                         # n, l, Nzeta 
   4.244      2.188   
   1.000      1.000   
 n=2   1   2 P   1                   # n, l, Nzeta, Polarization, NzetaPol
   5.315      2.161   
   1.000      1.000   
N                     2                    # Species label, number of l-shells
 n=2   0   2                         # n, l, Nzeta 
   4.730      2.532   
   1.000      1.000   
 n=2   1   2 P   1                   # n, l, Nzeta, Polarization, NzetaPol
   5.924      2.532   
   1.000      1.000   
Si                    2                    # Species label, number of l-shells
 n=3   0   2                         # n, l, Nzeta 
   6.430      3.998   
   1.000      1.000   
 n=3   1   2 P   1                   # n, l, Nzeta, Polarization, NzetaPol
   8.465      4.588   
   1.000      1.000   
H                     1                    # Species label, number of l-shells
 n=1   0   2 P   1                   # n, l, Nzeta, Polarization, NzetaPol
   6.518      2.141   
   1.000      1.000   
%endblock PAO.Basis

prinput: ----------------------------------------------------------------------

Dumping basis to NetCDF file O.ion.nc
Dumping basis to NetCDF file N.ion.nc
Dumping basis to NetCDF file Si.ion.nc
Dumping basis to NetCDF file H.ion.nc
coor:   Atomic-coordinates input format  =     Cartesian coordinates
coor:                                          (in Angstroms)

siesta: Atomic coordinates (Bohr) and species
siesta:      1.81163   7.18763   0.00000  1        1
siesta:     -5.74229   1.88609   0.00000  2        2
siesta:      3.90525   2.07693   0.00000  2        3
siesta:      1.94561  -3.46705   0.00000  2        4
siesta:     -3.98462  -3.55608   0.00000  2        5
siesta:      7.39339  -2.23157   0.00000  2        6
siesta:     -2.33502   1.97473   0.00000  3        7
siesta:     -0.94847  -1.94988   0.00000  3        8
siesta:      1.18951   4.21930   0.00000  3        9
siesta:      4.30868  -1.24399   0.00000  3       10
siesta:     -6.47196  -1.25161   0.00000  3       11
siesta:      5.60488   3.17902   0.00000  4       12
siesta:     -9.06356  -2.34086   0.00000  4       13
siesta:      7.74138  -4.18414   0.00000  4       14
siesta:      9.05578  -0.99994   0.00000  4       15
siesta:     -4.28375  -5.52253   0.00000  4       16
siesta:      8.37775   8.97947   0.00000  3       17
siesta:     12.01638  11.23132   0.00000  3       18
siesta:     11.13802   3.81191   0.00000  3       19
siesta:     15.05198   8.43616   0.00000  3       20
siesta:      8.57104   5.74925   0.00000  2       21
siesta:      5.39316  10.24602   0.00000  2       22
siesta:     14.26187   5.16337   0.00000  2       23
siesta:     12.59934  13.99913   0.00000  4       24
siesta:     17.87084   8.81406   0.00000  4       25
siesta:      5.04426  12.20165   0.00000  4       26
siesta:      3.70735   8.97746   0.00000  4       27
siesta:     11.11887   0.79169   0.00000  1       28
siesta:     15.72943   3.79931   0.00000  4       29

siesta: Automatic unit cell vectors (Ang):
siesta:   23.266955    0.000000    0.000000
siesta:    0.000000   18.952036    0.000000
siesta:    0.000000    0.000000    9.854683

siesta: System type = molecule  

initatomlists: Number of atoms, orbitals, and projectors:     29   297   394

siesta: ******************** Simulation parameters ****************************
siesta:
siesta: The following are some of the parameters of the simulation.
siesta: A complete list of the parameters used, including default values,
siesta: can be found in file out.fdf
siesta:
redata: Spin configuration                          = spin-orbit
redata: Number of spin components                   = 8
redata: Time-Reversal Symmetry                      = F
redata: Spin spiral                                 = F
############################################################
This spin-orbit implementation uses a local approximation.
From 4.2 and onwards the full non-local approximation is implemented
You are strongly advised to use >=4.2 versions!
############################################################
redata: Long output                                 =   F
redata: Number of Atomic Species                    =        4
redata: Charge density info will appear in .RHO file
redata: Write Mulliken Pop.                         = Atomic and Orbital charges
redata: Matel table size (NRTAB)                    =     1024
redata: Mesh Cutoff                                 =   340.0000 Ry
redata: Net charge of the system                    =     0.0000 |e|
redata: Min. number of SCF Iter                     =        1
redata: Max. number of SCF Iter                     =      200
redata: SCF mix quantity                            = Hamiltonian
redata: Mix DM or H after convergence               =   F
redata: Recompute H after scf cycle                 =   F
redata: Mix DM in first SCF step                    =   T
redata: Write Pulay info on disk                    =   F
redata: New DM Occupancy tolerance                  = 0.000000000001
redata: No kicks to SCF
redata: DM Mixing Weight for Kicks                  =     0.5000
redata: Require Harris convergence for SCF          =   F
redata: Harris energy tolerance for SCF             =     0.000100 eV
redata: Require DM convergence for SCF              =   T
redata: DM tolerance for SCF                        =     0.000008
redata: Require EDM convergence for SCF             =   F
redata: EDM tolerance for SCF                       =     0.001000 eV
redata: Require H convergence for SCF               =   T
redata: Hamiltonian tolerance for SCF               =     0.000001 eV
redata: Require (free) Energy convergence for SCF   =   F
redata: (free) Energy tolerance for SCF             =     0.000100 eV
redata: Using Saved Data (generic)                  =   F
redata: Use continuation files for DM               =   F
redata: Neglect nonoverlap interactions             =   F
redata: Method of Calculation                       = Diagonalization
redata: Electronic Temperature                      =   299.9978 K
redata: Fix the spin of the system                  =   F
redata: Dynamics option                             = Single-point calculation
mix.SCF: Pulay mixing                            = Pulay
mix.SCF:    Variant                              = stable
mix.SCF:    History steps                        = 6
mix.SCF:    Linear mixing weight                 =     0.250000
mix.SCF:    Mixing weight                        =     0.250000
mix.SCF:    SVD condition                        = 0.1000E-07
mix.SCF:    Restart steps                        = 24
mix.SCF:    Restart save steps                   = 3
mix.SCF: Spin-component mixing                   all
redata: Save all siesta data in one NC              =   F
redata: ***********************************************************************

%block SCF.Mixers
  Pulay
%endblock SCF.Mixers

%block SCF.Mixer.Pulay
  # Mixing method
  method pulay
  variant stable

  # Mixing options
  weight 0.2500
  weight.linear 0.2500
  history 6
  restart 24
  restart.save 3
%endblock SCF.Mixer.Pulay

DM_history_depth set to one: no extrapolation allowed by default for geometry relaxation
Size of DM history Fstack: 1
Total number of electrons:    98.000000
Total ionic charge:    98.000000

* ProcessorY, Blocksize:    2  24


* Orbital distribution balance (max,min):    81    72


Time-reversal symmetry not used.

siesta: k-grid: Number of k-points =     1
siesta: k-grid: Cutoff (effective) =     4.927 Ang
siesta: k-grid: Supercell and displacements
siesta: k-grid:    1   0   0      0.000
siesta: k-grid:    0   1   0      0.000
siesta: k-grid:    0   0   1      0.000

diag: Algorithm                                     = ELPA-1stage
diag: Parallel over k                               =   F
diag: Use parallel 2D distribution                  =   T
diag: Parallel block-size                           = 24
diag: Parallel distribution                         =     2 x     2
diag: Used triangular part                          = Lower
diag: Absolute tolerance                            =  0.100E-15
diag: Orthogonalization factor                      =  0.100E-05
diag: Memory factor                                 =  1.0000


ts: **************************************************************
ts: Save H and S matrices                           =    F
ts: Save DM and EDM matrices                        =    F
ts: Only save the overlap matrix S                  =    F
ts: **************************************************************

************************ Begin: TS CHECKS AND WARNINGS ************************
************************ End: TS CHECKS AND WARNINGS **************************


                     ====================================
                        Single-point calculation
                     ====================================

outcoor: Atomic coordinates (Ang):                          
    0.95867151    3.80352930    0.00000000   1       1  O
   -3.03868821    0.99807333    0.00000000   2       2  N
    2.06656775    1.09906577    0.00000000   2       3  N
    1.02956986   -1.83468085    0.00000000   2       4  N
   -2.10856766   -1.88179824    0.00000000   2       5  N
    3.91241107   -1.18089443    0.00000000   2       6  N
   -1.23563679    1.04498300    0.00000000   3       7  Si
   -0.50190924   -1.03183228    0.00000000   3       8  Si
    0.62946328    2.23275584    0.00000000   3       9  Si
    2.28005437   -0.65829354    0.00000000   3      10  Si
   -3.42481299   -0.66232416    0.00000000   3      11  Si
    2.96597416    1.68226399    0.00000000   4      12  H
   -4.79622939   -1.23872848    0.00000000   4      13  H
    4.09655941   -2.21414876    0.00000000   4      14  H
    4.79210868   -0.52914725    0.00000000   4      15  H
   -2.26686130   -2.92239373    0.00000000   4      16  H
    4.43331195    4.75172720    0.00000000   3      17  Si
    6.35878970    5.94335653    0.00000000   3      18  Si
    5.89398331    2.01717283    0.00000000   3      19  Si
    7.96516323    4.46421942    0.00000000   3      20  Si
    4.53559649    3.04237251    0.00000000   2      21  N
    2.85393386    5.42195669    0.00000000   2      22  N
    7.54705321    2.73233651    0.00000000   2      23  N
    6.66728052    7.40801789    0.00000000   4      24  H
    9.45683614    4.66419888    0.00000000   4      25  H
    2.66930742    6.45683042    0.00000000   4      26  H
    1.96184207    4.75066796    0.00000000   4      27  H
    5.88385271    0.41894431    0.00000000   1      28  O
    8.32365159    2.01050631    0.00000000   4      29  H

outcell: Unit cell vectors (Ang):
       23.266955    0.000000    0.000000
        0.000000   18.952036    0.000000
        0.000000    0.000000    9.854683

outcell: Cell vector modules (Ang)   :   23.266955   18.952036    9.854683
outcell: Cell angles (23,13,12) (deg):     90.0000     90.0000     90.0000
outcell: Cell volume (Ang**3)        :   4345.4833
<dSpData1D:S at geom step 0
  <sparsity:sparsity for geom step 0
    nrows_g=297 nrows=81 sparsity=.2385 nnzs=21039, refcount: 8>
  <dData1D:(new from dSpData1D) n=21039, refcount: 1>
refcount: 1>
new_DM -- step:     1
Initializing Density Matrix...
DM filled with atomic data:
<dSpData2D:DM initialized from atoms
  <sparsity:sparsity for geom step 0
    nrows_g=297 nrows=81 sparsity=.2385 nnzs=21039, refcount: 9>
  <dData2D:DM n=21039 m=8, refcount: 1>
refcount: 1>
     spin moment: S , {S} =   56.00000   0.00000   0.00000  56.00000
No. of atoms with KB's overlaping orbs in proc 0. Max # of overlaps:      29     214

Initializing spin-orbit part of the Hamiltonian
  Adding spin-orbit effects for O 
  Adding spin-orbit effects for N 
  Adding spin-orbit effects for Si
  Adding spin-orbit effects for H 


New grid distribution:   1
           1       1:  135    1:   54    1:   30
           2       1:  135    1:   54   31:   60
           3       1:  135   55:  108    1:   30
           4       1:  135   55:  108   31:   60

InitMesh: MESH =   270 x   216 x   120 =     6998400
InitMesh: (bp) =   135 x   108 x    60 =      874800
InitMesh: Mesh cutoff (required, used) =   340.000   359.002 Ry
ExtMesh (bp) on 0 =   239 x   158 x   142 =     5362204
New grid distribution:   2
           1      31:  135    1:   24    1:   60
           2       1:   30    1:   22    1:   60
           3      31:  135   25:  108    1:   60
           4       1:   30   23:  108    1:   60
New grid distribution:   3
           1      44:  135    1:   32    1:   60
           2       1:   43    1:   37    1:   60
           3      44:  135   33:  108    1:   60
           4       1:   43   38:  108    1:   60
Setting up quadratic distribution...
ExtMesh (bp) on 0 =   209 x   128 x   172 =     4601344
PhiOnMesh: Number of (b)points on node 0 =               151200
PhiOnMesh: nlist on node 0 =              2642962

stepf: Fermi-Dirac step function

siesta: Program's energy decomposition (eV):
siesta: Ebs     =      -610.855408
siesta: Eions   =      3585.165840
siesta: Ena     =       383.115236
siesta: Ekin    =      3371.996679
siesta: Enl     =     -3302.088827
siesta: Eso     =        -0.003479
siesta: Edftu   =         0.000000
siesta: DEna    =       155.477356
siesta: DUscf   =        78.198085
siesta: DUext   =         0.000000
siesta: Exc     =     -1205.887195
siesta: eta*DQ  =         0.000000
siesta: Emadel  =         0.000000
siesta: Emeta   =         0.000000
siesta: Emolmec =         0.000000
siesta: Ekinion =         0.000000
siesta: Eharris =     -4026.106595
siesta: Etot    =     -4104.357984
siesta: FreeEng =     -4104.359700

        iscf     Eharris(eV)        E_KS(eV)     FreeEng(eV)     dDmax    Ef(eV) dHmax(eV)
   scf:    1    -4026.106595    -4104.357984    -4104.359700  0.955673 -4.904052 19.620168
     spin moment: S , {S} =    2.01051   0.00000  -0.00000   2.01051
timer: Routine,Calls,Time,% = IterSCF        1      11.867  16.30
   scf:    2    -4150.812193    -4138.592781    -4138.594535  0.464220 -4.197631 10.919888
     spin moment: S , {S} =    1.98962  -0.00000  -0.00000   1.98962
   scf:    3    -4112.389312    -4135.890337    -4135.910034  0.426823 -4.247625 11.327209
     spin moment: S , {S} =    2.00012   0.00000   0.00000   2.00012
   scf:    4    -4151.351772    -4146.489272    -4146.489273  0.304960 -3.866177  5.651488
     spin moment: S , {S} =    0.00009   0.00000   0.00000   0.00009
   scf:    5    -4147.637000    -4147.152917    -4147.152917  0.038095 -3.681257  4.243689
     spin moment: S , {S} =    0.00006   0.00000   0.00000   0.00006
   scf:    6    -4147.952420    -4147.555093    -4147.555093  0.026540 -3.614683  2.021930
     spin moment: S , {S} =    0.00003  -0.00000  -0.00000   0.00003
   scf:    7    -4147.907149    -4147.731851    -4147.731851  0.021409 -3.740494  0.826108
     spin moment: S , {S} =    0.00001  -0.00000  -0.00000   0.00001
   scf:    8    -4147.845503    -4147.787333    -4147.787333  0.012179 -3.749212  0.429804
     spin moment: S , {S} =    0.00000  -0.00000  -0.00000   0.00000
   scf:    9    -4147.824849    -4147.805549    -4147.805549  0.006836 -3.771490  0.281507
     spin moment: S , {S} =    0.00000  -0.00000  -0.00000   0.00000
   scf:   10    -4147.848872    -4147.824393    -4147.824393  0.015014 -3.795127  0.125383
     spin moment: S , {S} =    0.00000  -0.00000  -0.00000  -0.00000
   scf:   11    -4147.828280    -4147.826210    -4147.826210  0.004893 -3.788868  0.054348
     spin moment: S , {S} =    0.00000  -0.00000   0.00000   0.00000
   scf:   12    -4147.827382    -4147.826777    -4147.826777  0.002493 -3.784805  0.033591
     spin moment: S , {S} =    0.00000  -0.00000  -0.00000   0.00000
   scf:   13    -4147.827507    -4147.827119    -4147.827119  0.002120 -3.783050  0.027411
     spin moment: S , {S} =    0.00000  -0.00000  -0.00000   0.00000
   scf:   14    -4147.827808    -4147.827423    -4147.827423  0.002862 -3.782130  0.017213
     spin moment: S , {S} =    0.00000  -0.00000  -0.00000   0.00000
   scf:   15    -4147.827793    -4147.827573    -4147.827573  0.002679 -3.782400  0.008684
     spin moment: S , {S} =    0.00000  -0.00000  -0.00000   0.00000
   scf:   16    -4147.827654    -4147.827605    -4147.827605  0.001348 -3.782756  0.004530
     spin moment: S , {S} =    0.00000  -0.00000  -0.00000   0.00000
   scf:   17    -4147.827619    -4147.827611    -4147.827611  0.000513 -3.782952  0.002646
     spin moment: S , {S} =    0.00000   0.00000  -0.00000   0.00000
   scf:   18    -4147.827616    -4147.827613    -4147.827613  0.000290 -3.783030  0.001408
     spin moment: S , {S} =    0.00000   0.00000  -0.00000  -0.00000
   scf:   19    -4147.827616    -4147.827614    -4147.827614  0.000174 -3.783025  0.000672
     spin moment: S , {S} =    0.00000   0.00000  -0.00000  -0.00000
   scf:   20    -4147.827615    -4147.827615    -4147.827615  0.000075 -3.782965  0.000384
     spin moment: S , {S} =    0.00000   0.00000  -0.00000  -0.00000
   scf:   21    -4147.827615    -4147.827615    -4147.827615  0.000086 -3.782915  0.000206
     spin moment: S , {S} =    0.00000   0.00000  -0.00000  -0.00000
   scf:   22    -4147.827615    -4147.827615    -4147.827615  0.000013 -3.782898  0.000090
     spin moment: S , {S} =    0.00000  -0.00000  -0.00000  -0.00000
   scf:   23    -4147.827615    -4147.827615    -4147.827615  0.000006 -3.782895  0.000050
     spin moment: S , {S} =    0.00000   0.00000  -0.00000  -0.00000
   scf:   24    -4147.827615    -4147.827615    -4147.827615  0.000007 -3.782891  0.000020
     spin moment: S , {S} =    0.00000   0.00000  -0.00000  -0.00000
mix: Pulay -- resetting history
   scf:   25    -4147.827615    -4147.827615    -4147.827615  0.000002 -3.782891  0.000013
     spin moment: S , {S} =    0.00000   0.00000  -0.00000  -0.00000
   scf:   26    -4147.827615    -4147.827615    -4147.827615  0.000000 -3.782891  0.000009
     spin moment: S , {S} =    0.00000   0.00000  -0.00000  -0.00000
   scf:   27    -4147.827615    -4147.827615    -4147.827615  0.000001 -3.782891  0.000005
     spin moment: S , {S} =    0.00000   0.00000  -0.00000  -0.00000
   scf:   28    -4147.827615    -4147.827615    -4147.827615  0.000000 -3.782891  0.000002
     spin moment: S , {S} =    0.00000   0.00000  -0.00000  -0.00000
   scf:   29    -4147.827615    -4147.827615    -4147.827615  0.000000 -3.782891  0.000001
     spin moment: S , {S} =    0.00000   0.00000  -0.00000  -0.00000
   scf:   30    -4147.827615    -4147.827615    -4147.827615  0.000000 -3.782891  0.000001
     spin moment: S , {S} =    0.00000   0.00000  -0.00000  -0.00000

SCF Convergence by DM+H criterion
max |DM_out - DM_in|         :     0.0000002019
max |H_out - H_in|      (eV) :     0.0000007496
SCF cycle converged after 30 iterations

Using DM_out to compute the final energy and forces
No. of atoms with KB's overlaping orbs in proc 0. Max # of overlaps:      29     214

siesta: E_KS(eV) =            -4147.8276

siesta: E_KS - E_eggbox =     -4147.8276
     spin moment: S , {S} =    0.00000   0.00000  -0.00000  -0.00000

siesta: Atomic forces (eV/Ang):
     1   -2.995263   -2.012983   -0.000000
     2   -0.021594   -0.006953    0.000000
     3   -0.219280    0.008478   -0.000000
     4   -0.183374    0.041321   -0.000000
     5   -0.007737    0.026102    0.000000
     6   -0.788228   -0.512763   -0.000000
     7   -0.004708    0.056490   -0.000000
     8    0.081417   -0.066113    0.000000
     9   -0.001462   -0.313420    0.000000
    10    0.184322   -0.119346   -0.000000
    11    0.006142    0.003648   -0.000000
    12    0.194061    0.129212    0.000000
    13   -0.208973    0.016182    0.000000
    14   -0.060240   -0.176380    0.000000
    15    0.109233    0.236846    0.000000
    16   -0.005683   -0.137019   -0.000000
    17   -0.184041    0.286474    0.000000
    18    0.047235   -0.050431   -0.000000
    19    0.099288    0.252273   -0.000000
    20    0.007899    0.093591   -0.000000
    21    0.120689   -0.177249   -0.000000
    22    0.997842    0.639995    0.000000
    23   -0.080764   -0.125369   -0.000000
    24   -0.057667    0.079768    0.000000
    25    0.067814   -0.059717    0.000000
    26    0.133360    0.168471   -0.000000
    27   -0.174702   -0.409989    0.000000
    28   -1.823675    3.612568    0.000000
    29    0.022509    0.045587    0.000000
----------------------------------------
   Tot   -4.745576    1.529275    0.000000
----------------------------------------
   Max    3.612568
   Res    0.612996    sqrt( Sum f_i^2 / 3N )
----------------------------------------
   Max    3.612568    constrained

Stress tensor Voigt[x,y,z,yz,xz,xy] (kbar):       -1.58       -1.74       -0.10       -0.00        0.00       -1.42
(Free)E + p*V (eV/cell)    -4144.7441
Target enthalpy (eV/cell)    -4147.8276

mulliken: Atomic and Orbital Populations:

Species: O                   

Atom      Orb        Charge      Spin       Svec
----------------------------------------------------------------
    1  1 2s         1.69939   0.00000      0.000  -0.000   0.000
    1  2 2s         0.07160   0.00000     -0.000   0.000   0.000
    1  3 2py        1.32824   0.00000     -0.000  -0.000  -0.000
    1  4 2pz        1.63378   0.00000     -0.000   0.000   0.000
    1  5 2px        1.64828   0.00000      0.000  -0.000  -0.000
    1  6 2py        0.10160   0.00000     -0.000   0.000   0.000
    1  7 2pz       -0.01894   0.00000     -0.000  -0.000   0.000
    1  8 2px        0.00055   0.00000     -0.000  -0.000   0.000
    1  9 3Pdxy      0.01042   0.00000      0.000  -0.000  -0.000
    1 10 3Pdyz      0.00714   0.00000     -0.000   0.000   0.000
    1 11 3Pdz2      0.00240   0.00000      0.000   0.000   0.000
    1 12 3Pdxz      0.00003   0.00000     -0.000  -0.000  -0.000
    1 13 3Pdx2-y2   0.00494   0.00000     -0.000  -0.000   0.000
    1     Total     6.48943   0.00000      0.000  -0.000   0.000

   28  1 2s         1.71997   0.00000     -0.000   0.000   0.000
   28  2 2s         0.06497   0.00000      0.000  -0.000  -0.000
   28  3 2py        1.33220   0.00000      0.000   0.000  -0.000
   28  4 2pz        1.61962   0.00000     -0.000   0.000   0.000
   28  5 2px        1.66729   0.00000      0.000  -0.000  -0.000
   28  6 2py        0.09257   0.00000     -0.000   0.000   0.000
   28  7 2pz       -0.01687   0.00000      0.000  -0.000   0.000
   28  8 2px       -0.00367   0.00000     -0.000   0.000   0.000
   28  9 3Pdxy      0.01039   0.00000     -0.000  -0.000   0.000
   28 10 3Pdyz      0.00811   0.00000      0.000  -0.000   0.000
   28 11 3Pdz2      0.00203   0.00000      0.000   0.000  -0.000
   28 12 3Pdxz      0.00002   0.00000     -0.000  -0.000  -0.000
   28 13 3Pdx2-y2   0.00627   0.00000     -0.000  -0.000   0.000
   28     Total     6.50291   0.00000     -0.000   0.000   0.000

----------------------------------------------------------------
Total              12.99234   0.00000     -0.000   0.000   0.000


Species: N                   

Atom      Orb        Charge      Spin       Svec
----------------------------------------------------------------
    2  1 2s         1.55365   0.00000      0.000   0.000   0.000
    2  2 2s         0.08368   0.00000     -0.000  -0.000   0.000
    2  3 2py        1.04117   0.00000      0.000   0.000   0.000
    2  4 2pz        1.22491   0.00000     -0.000  -0.000   0.000
    2  5 2px        0.98779   0.00000     -0.000  -0.000   0.000
    2  6 2py        0.18849   0.00000     -0.000  -0.000  -0.000
    2  7 2pz        0.05629   0.00000      0.000   0.000  -0.000
    2  8 2px        0.19556   0.00000      0.000  -0.000  -0.000
    2  9 3Pdxy      0.00855   0.00000     -0.000  -0.000   0.000
    2 10 3Pdyz      0.01120   0.00000      0.000   0.000  -0.000
    2 11 3Pdz2      0.00192   0.00000      0.000  -0.000  -0.000
    2 12 3Pdxz      0.00761   0.00000      0.000   0.000  -0.000
    2 13 3Pdx2-y2   0.00930   0.00000      0.000   0.000   0.000
    2     Total     5.37012   0.00000     -0.000  -0.000   0.000

    3  1 2s         1.37837   0.00000     -0.000   0.000  -0.000
    3  2 2s         0.12542   0.00000      0.000  -0.000   0.000
    3  3 2py        0.93551   0.00000     -0.000   0.000  -0.000
    3  4 2pz        1.53525   0.00000     -0.000   0.000  -0.000
    3  5 2px        1.06429   0.00000      0.000  -0.000  -0.000
    3  6 2py        0.25746   0.00000      0.000   0.000   0.000
    3  7 2pz        0.00587   0.00000      0.000  -0.000   0.000
    3  8 2px        0.19314   0.00000     -0.000   0.000   0.000
    3  9 3Pdxy      0.00407   0.00000     -0.000  -0.000   0.000
    3 10 3Pdyz      0.00385   0.00000      0.000   0.000   0.000
    3 11 3Pdz2      0.00042   0.00000     -0.000  -0.000  -0.000
    3 12 3Pdxz      0.00284   0.00000     -0.000   0.000   0.000
    3 13 3Pdx2-y2   0.00241   0.00000     -0.000  -0.000  -0.000
    3     Total     5.50891   0.00000     -0.000   0.000  -0.000

    4  1 2s         1.46302   0.00000      0.000   0.000  -0.000
    4  2 2s         0.11887   0.00000     -0.000  -0.000   0.000
    4  3 2py        1.12917   0.00000      0.000  -0.000  -0.000
    4  4 2pz        1.28966   0.00000      0.000  -0.000  -0.000
    4  5 2px        0.82539   0.00000      0.000   0.000  -0.000
    4  6 2py        0.15096   0.00000     -0.000   0.000   0.000
    4  7 2pz        0.05380   0.00000     -0.000   0.000   0.000
    4  8 2px        0.29140   0.00000     -0.000  -0.000   0.000
    4  9 3Pdxy      0.00874   0.00000     -0.000   0.000  -0.000
    4 10 3Pdyz      0.01047   0.00000      0.000   0.000   0.000
    4 11 3Pdz2      0.00129   0.00000     -0.000  -0.000  -0.000
    4 12 3Pdxz      0.00475   0.00000     -0.000  -0.000  -0.000
    4 13 3Pdx2-y2   0.00794   0.00000     -0.000   0.000   0.000
    4     Total     5.35546   0.00000      0.000   0.000  -0.000

    5  1 2s         1.37156   0.00000     -0.000   0.000   0.000
    5  2 2s         0.12992   0.00000      0.000  -0.000  -0.000
    5  3 2py        1.02761   0.00000     -0.000   0.000   0.000
    5  4 2pz        1.49837   0.00000      0.000  -0.000   0.000
    5  5 2px        1.05669   0.00000     -0.000  -0.000   0.000
    5  6 2py        0.20570   0.00000      0.000  -0.000  -0.000
    5  7 2pz        0.01376   0.00000      0.000   0.000  -0.000
    5  8 2px        0.20542   0.00000     -0.000   0.000  -0.000
    5  9 3Pdxy      0.00387   0.00000     -0.000  -0.000  -0.000
    5 10 3Pdyz      0.00244   0.00000     -0.000   0.000  -0.000
    5 11 3Pdz2      0.00141   0.00000     -0.000  -0.000  -0.000
    5 12 3Pdxz      0.00663   0.00000     -0.000  -0.000  -0.000
    5 13 3Pdx2-y2   0.00555   0.00000     -0.000  -0.000   0.000
    5     Total     5.52893   0.00000     -0.000  -0.000   0.000

    6  1 2s         1.27314   0.00000     -0.000  -0.000  -0.000
    6  2 2s         0.17877   0.00000      0.000   0.000   0.000
    6  3 2py        1.06868   0.00000     -0.000   0.000  -0.000
    6  4 2pz        1.49582   0.00000     -0.000  -0.000  -0.000
    6  5 2px        0.98064   0.00000     -0.000  -0.000  -0.000
    6  6 2py        0.19617   0.00000      0.000  -0.000   0.000
    6  7 2pz        0.03640   0.00000      0.000   0.000   0.000
    6  8 2px        0.25665   0.00000     -0.000   0.000   0.000
    6  9 3Pdxy      0.00340   0.00000     -0.000  -0.000   0.000
    6 10 3Pdyz     -0.00000   0.00000      0.000  -0.000  -0.000
    6 11 3Pdz2      0.00192   0.00000      0.000   0.000  -0.000
    6 12 3Pdxz      0.00415   0.00000      0.000  -0.000  -0.000
    6 13 3Pdx2-y2   0.00453   0.00000      0.000  -0.000  -0.000
    6     Total     5.50025   0.00000     -0.000  -0.000  -0.000

   21  1 2s         1.41247   0.00000      0.000  -0.000  -0.000
   21  2 2s         0.12780   0.00000     -0.000   0.000   0.000
   21  3 2py        0.89847   0.00000      0.000   0.000  -0.000
   21  4 2pz        1.33301   0.00000      0.000  -0.000  -0.000
   21  5 2px        1.15580   0.00000      0.000   0.000   0.000
   21  6 2py        0.27019   0.00000     -0.000   0.000   0.000
   21  7 2pz        0.04049   0.00000     -0.000   0.000   0.000
   21  8 2px        0.16229   0.00000     -0.000  -0.000  -0.000
   21  9 3Pdxy      0.00638   0.00000     -0.000   0.000   0.000
   21 10 3Pdyz      0.00445   0.00000      0.000  -0.000  -0.000
   21 11 3Pdz2     -0.00007   0.00000      0.000  -0.000   0.000
   21 12 3Pdxz      0.00566   0.00000     -0.000   0.000  -0.000
   21 13 3Pdx2-y2   0.00584   0.00000     -0.000   0.000   0.000
   21     Total     5.42278   0.00000      0.000  -0.000  -0.000

   22  1 2s         1.29777   0.00000      0.000   0.000   0.000
   22  2 2s         0.16997   0.00000     -0.000  -0.000  -0.000
   22  3 2py        1.06759   0.00000      0.000   0.000   0.000
   22  4 2pz        1.45041   0.00000     -0.000   0.000  -0.000
   22  5 2px        1.02412   0.00000      0.000  -0.000  -0.000
   22  6 2py        0.19894   0.00000     -0.000  -0.000   0.000
   22  7 2pz        0.03588   0.00000      0.000  -0.000   0.000
   22  8 2px        0.23202   0.00000     -0.000   0.000   0.000
   22  9 3Pdxy      0.00489   0.00000     -0.000  -0.000  -0.000
   22 10 3Pdyz      0.00007   0.00000      0.000  -0.000  -0.000
   22 11 3Pdz2      0.00261   0.00000     -0.000   0.000  -0.000
   22 12 3Pdxz      0.00448   0.00000      0.000  -0.000  -0.000
   22 13 3Pdx2-y2   0.00493   0.00000      0.000   0.000  -0.000
   22     Total     5.49367   0.00000      0.000   0.000  -0.000

   23  1 2s         1.36392   0.00000     -0.000  -0.000   0.000
   23  2 2s         0.13370   0.00000      0.000  -0.000   0.000
   23  3 2py        1.01021   0.00000     -0.000   0.000  -0.000
   23  4 2pz        1.53699   0.00000     -0.000   0.000   0.000
   23  5 2px        1.04449   0.00000      0.000   0.000  -0.000
   23  6 2py        0.21707   0.00000      0.000  -0.000   0.000
   23  7 2pz        0.00441   0.00000      0.000  -0.000   0.000
   23  8 2px        0.20625   0.00000     -0.000   0.000   0.000
   23  9 3Pdxy      0.00519   0.00000     -0.000  -0.000  -0.000
   23 10 3Pdyz      0.00463   0.00000      0.000   0.000   0.000
   23 11 3Pdz2      0.00072   0.00000      0.000   0.000  -0.000
   23 12 3Pdxz      0.00242   0.00000      0.000  -0.000  -0.000
   23 13 3Pdx2-y2   0.00149   0.00000     -0.000  -0.000  -0.000
   23     Total     5.53150   0.00000     -0.000   0.000   0.000

----------------------------------------------------------------
Total              56.70395   0.00000      0.000   0.000   0.000


Species: Si                  

Atom      Orb        Charge      Spin       Svec
----------------------------------------------------------------
    7  1 3s         0.64029   0.00000      0.000  -0.000  -0.000
    7  2 3s         0.37693   0.00000     -0.000   0.000  -0.000
    7  3 3py        0.46467   0.00000      0.000   0.000   0.000
    7  4 3pz        0.68460   0.00000      0.000   0.000  -0.000
    7  5 3px        0.10872   0.00000      0.000  -0.000  -0.000
    7  6 3py        0.28285   0.00000     -0.000  -0.000  -0.000
    7  7 3pz        0.26732   0.00000     -0.000  -0.000  -0.000
    7  8 3px        0.45146   0.00000     -0.000   0.000  -0.000
    7  9 3Pdxy      0.25248   0.00000     -0.000  -0.000  -0.000
    7 10 3Pdyz      0.02862   0.00000     -0.000  -0.000  -0.000
    7 11 3Pdz2      0.01069   0.00000     -0.000   0.000  -0.000
    7 12 3Pdxz      0.15329   0.00000      0.000   0.000   0.000
    7 13 3Pdx2-y2   0.11135   0.00000      0.000  -0.000  -0.000
    7     Total     3.83327   0.00000      0.000   0.000  -0.000

    8  1 3s         0.65299   0.00000     -0.000  -0.000   0.000
    8  2 3s         0.37015   0.00000     -0.000   0.000  -0.000
    8  3 3py        0.39818   0.00000      0.000  -0.000  -0.000
    8  4 3pz        0.49727   0.00000      0.000  -0.000  -0.000
    8  5 3px       -0.01694   0.00000     -0.000  -0.000   0.000
    8  6 3py        0.30425   0.00000     -0.000  -0.000   0.000
    8  7 3pz        0.20695   0.00000     -0.000  -0.000  -0.000
    8  8 3px        0.51187   0.00000      0.000   0.000  -0.000
    8  9 3Pdxy      0.24973   0.00000     -0.000   0.000   0.000
    8 10 3Pdyz      0.11172   0.00000      0.000  -0.000   0.000
    8 11 3Pdz2      0.01392   0.00000     -0.000   0.000  -0.000
    8 12 3Pdxz      0.15798   0.00000      0.000  -0.000   0.000
    8 13 3Pdx2-y2   0.20307   0.00000      0.000  -0.000  -0.000
    8     Total     3.66114   0.00000     -0.000  -0.000  -0.000

    9  1 3s         0.58009   0.00000      0.000   0.000   0.000
    9  2 3s         0.37695   0.00000     -0.000  -0.000   0.000
    9  3 3py        0.11136   0.00000      0.000   0.000   0.000
    9  4 3pz        0.46492   0.00000      0.000   0.000   0.000
    9  5 3px        0.33688   0.00000     -0.000  -0.000   0.000
    9  6 3py        0.39962   0.00000      0.000  -0.000   0.000
    9  7 3pz        0.19747   0.00000     -0.000   0.000   0.000
    9  8 3px        0.29859   0.00000      0.000   0.000  -0.000
    9  9 3Pdxy      0.28312   0.00000      0.000  -0.000   0.000
    9 10 3Pdyz      0.18772   0.00000     -0.000  -0.000   0.000
    9 11 3Pdz2      0.01007   0.00000     -0.000  -0.000   0.000
    9 12 3Pdxz      0.10996   0.00000     -0.000  -0.000   0.000
    9 13 3Pdx2-y2   0.17948   0.00000      0.000   0.000  -0.000
    9     Total     3.53624   0.00000     -0.000   0.000   0.000

   10  1 3s         0.48820   0.00000     -0.000   0.000   0.000
   10  2 3s         0.37464   0.00000      0.000  -0.000  -0.000
   10  3 3py        0.24544   0.00000      0.000   0.000   0.000
   10  4 3pz        0.42472   0.00000     -0.000  -0.000   0.000
   10  5 3px        0.09284   0.00000     -0.000   0.000  -0.000
   10  6 3py        0.31731   0.00000     -0.000  -0.000  -0.000
   10  7 3pz        0.21525   0.00000      0.000  -0.000   0.000
   10  8 3px        0.45075   0.00000      0.000  -0.000   0.000
   10  9 3Pdxy      0.18037   0.00000     -0.000   0.000   0.000
   10 10 3Pdyz      0.12859   0.00000      0.000   0.000  -0.000
   10 11 3Pdz2      0.00915   0.00000      0.000   0.000   0.000
   10 12 3Pdxz      0.18691   0.00000      0.000  -0.000   0.000
   10 13 3Pdx2-y2   0.30767   0.00000      0.000  -0.000  -0.000
   10     Total     3.42185   0.00000      0.000  -0.000   0.000

   11  1 3s         0.55129   0.00000     -0.000  -0.000  -0.000
   11  2 3s         0.38665   0.00000      0.000   0.000  -0.000
   11  3 3py        0.31077   0.00000      0.000   0.000  -0.000
   11  4 3pz        0.52878   0.00000     -0.000   0.000  -0.000
   11  5 3px        0.13144   0.00000      0.000  -0.000  -0.000
   11  6 3py        0.29935   0.00000     -0.000  -0.000   0.000
   11  7 3pz        0.17979   0.00000      0.000  -0.000  -0.000
   11  8 3px        0.44291   0.00000     -0.000   0.000   0.000
   11  9 3Pdxy      0.23602   0.00000     -0.000  -0.000  -0.000
   11 10 3Pdyz      0.12957   0.00000     -0.000  -0.000  -0.000
   11 11 3Pdz2      0.00997   0.00000      0.000   0.000   0.000
   11 12 3Pdxz      0.05433   0.00000      0.000   0.000  -0.000
   11 13 3Pdx2-y2   0.19828   0.00000      0.000   0.000  -0.000
   11     Total     3.45915   0.00000      0.000   0.000  -0.000

   17  1 3s         0.64447   0.00000      0.000   0.000   0.000
   17  2 3s         0.35527   0.00000     -0.000  -0.000  -0.000
   17  3 3py        0.23420   0.00000     -0.000   0.000  -0.000
   17  4 3pz        0.43073   0.00000     -0.000  -0.000  -0.000
   17  5 3px        0.22553   0.00000     -0.000  -0.000  -0.000
   17  6 3py        0.36075   0.00000      0.000  -0.000   0.000
   17  7 3pz        0.21334   0.00000     -0.000   0.000   0.000
   17  8 3px        0.39317   0.00000     -0.000   0.000   0.000
   17  9 3Pdxy      0.27638   0.00000      0.000   0.000  -0.000
   17 10 3Pdyz      0.13010   0.00000     -0.000   0.000  -0.000
   17 11 3Pdz2      0.00759   0.00000      0.000   0.000  -0.000
   17 12 3Pdxz      0.15087   0.00000     -0.000   0.000  -0.000
   17 13 3Pdx2-y2   0.18217   0.00000     -0.000  -0.000  -0.000
   17     Total     3.60456   0.00000     -0.000   0.000  -0.000

   18  1 3s         0.75408   0.00000     -0.000  -0.000  -0.000
   18  2 3s         0.33920   0.00000      0.000   0.000   0.000
   18  3 3py        0.08263   0.00000      0.000  -0.000  -0.000
   18  4 3pz        0.80190   0.00000      0.000  -0.000  -0.000
   18  5 3px        0.53850   0.00000     -0.000  -0.000  -0.000
   18  6 3py        0.51646   0.00000     -0.000   0.000  -0.000
   18  7 3pz        0.19583   0.00000      0.000   0.000  -0.000
   18  8 3px        0.26249   0.00000      0.000   0.000  -0.000
   18  9 3Pdxy      0.10625   0.00000     -0.000  -0.000   0.000
   18 10 3Pdyz      0.02644   0.00000     -0.000  -0.000   0.000
   18 11 3Pdz2      0.00902   0.00000     -0.000  -0.000   0.000
   18 12 3Pdxz      0.03319   0.00000      0.000   0.000   0.000
   18 13 3Pdx2-y2   0.10428   0.00000     -0.000  -0.000  -0.000
   18     Total     3.77027   0.00000     -0.000  -0.000  -0.000

   19  1 3s         0.45122   0.00000     -0.000   0.000   0.000
   19  2 3s         0.36554   0.00000      0.000  -0.000  -0.000
   19  3 3py        0.08182   0.00000     -0.000  -0.000  -0.000
   19  4 3pz        0.39545   0.00000      0.000  -0.000  -0.000
   19  5 3px        0.24709   0.00000     -0.000  -0.000   0.000
   19  6 3py        0.44619   0.00000      0.000  -0.000   0.000
   19  7 3pz        0.19748   0.00000     -0.000  -0.000  -0.000
   19  8 3px        0.30777   0.00000      0.000  -0.000  -0.000
   19  9 3Pdxy      0.31267   0.00000     -0.000   0.000  -0.000
   19 10 3Pdyz      0.18099   0.00000      0.000  -0.000  -0.000
   19 11 3Pdz2      0.01026   0.00000     -0.000  -0.000   0.000
   19 12 3Pdxz      0.10451   0.00000      0.000  -0.000  -0.000
   19 13 3Pdx2-y2   0.24313   0.00000      0.000  -0.000   0.000
   19     Total     3.34413   0.00000     -0.000  -0.000  -0.000

   20  1 3s         0.68154   0.00000     -0.000   0.000   0.000
   20  2 3s         0.37553   0.00000      0.000  -0.000   0.000
   20  3 3py        0.33916   0.00000     -0.000  -0.000   0.000
   20  4 3pz        0.61408   0.00000     -0.000   0.000   0.000
   20  5 3px        0.13917   0.00000      0.000   0.000   0.000
   20  6 3py        0.28083   0.00000      0.000  -0.000   0.000
   20  7 3pz        0.16018   0.00000      0.000   0.000   0.000
   20  8 3px        0.50217   0.00000     -0.000  -0.000  -0.000
   20  9 3Pdxy      0.09885   0.00000      0.000   0.000   0.000
   20 10 3Pdyz      0.12812   0.00000      0.000   0.000   0.000
   20 11 3Pdz2      0.00745   0.00000     -0.000  -0.000  -0.000
   20 12 3Pdxz      0.02687   0.00000      0.000   0.000  -0.000
   20 13 3Pdx2-y2   0.17597   0.00000      0.000   0.000   0.000
   20     Total     3.52992   0.00000      0.000   0.000   0.000

----------------------------------------------------------------
Total              88.86449   0.00000      0.000   0.000  -0.000


Species: H                   

Atom      Orb        Charge      Spin       Svec
----------------------------------------------------------------
   12  1 1s         0.48146   0.00000     -0.000   0.000   0.000
   12  2 1s         0.17872   0.00000      0.000  -0.000   0.000
   12  3 2Ppy       0.04736   0.00000      0.000   0.000  -0.000
   12  4 2Ppz       0.03232   0.00000     -0.000  -0.000  -0.000
   12  5 2Ppx       0.05306   0.00000      0.000   0.000   0.000
   12     Total     0.79292   0.00000     -0.000   0.000   0.000

   13  1 1s         1.01859   0.00000     -0.000   0.000   0.000
   13  2 1s         0.09717   0.00000      0.000  -0.000  -0.000
   13  3 2Ppy       0.01915   0.00000      0.000  -0.000   0.000
   13  4 2Ppz       0.02012   0.00000      0.000   0.000  -0.000
   13  5 2Ppx       0.03328   0.00000      0.000  -0.000   0.000
   13     Total     1.18830   0.00000     -0.000   0.000   0.000

   14  1 1s         0.49427   0.00000      0.000  -0.000  -0.000
   14  2 1s         0.19497   0.00000     -0.000   0.000  -0.000
   14  3 2Ppy       0.02088   0.00000      0.000  -0.000   0.000
   14  4 2Ppz       0.04918   0.00000      0.000   0.000  -0.000
   14  5 2Ppx       0.02287   0.00000     -0.000  -0.000   0.000
   14     Total     0.78217   0.00000      0.000  -0.000  -0.000

   15  1 1s         0.41289   0.00000      0.000   0.000   0.000
   15  2 1s         0.18390   0.00000     -0.000  -0.000  -0.000
   15  3 2Ppy       0.06202   0.00000     -0.000  -0.000   0.000
   15  4 2Ppz       0.05057   0.00000      0.000  -0.000  -0.000
   15  5 2Ppx       0.10061   0.00000      0.000   0.000  -0.000
   15     Total     0.80999   0.00000      0.000   0.000   0.000

   16  1 1s         0.50378   0.00000      0.000  -0.000  -0.000
   16  2 1s         0.19050   0.00000     -0.000   0.000  -0.000
   16  3 2Ppy       0.02898   0.00000      0.000  -0.000  -0.000
   16  4 2Ppz       0.03946   0.00000      0.000   0.000  -0.000
   16  5 2Ppx       0.02419   0.00000     -0.000   0.000  -0.000
   16     Total     0.78691   0.00000      0.000   0.000  -0.000

   24  1 1s         1.05799   0.00000     -0.000  -0.000   0.000
   24  2 1s         0.07589   0.00000      0.000  -0.000   0.000
   24  3 2Ppy       0.03072   0.00000     -0.000  -0.000  -0.000
   24  4 2Ppz       0.03005   0.00000     -0.000  -0.000  -0.000
   24  5 2Ppx       0.01790   0.00000     -0.000  -0.000   0.000
   24     Total     1.21255   0.00000     -0.000  -0.000   0.000

   25  1 1s         1.04562   0.00000     -0.000   0.000  -0.000
   25  2 1s         0.08523   0.00000      0.000  -0.000   0.000
   25  3 2Ppy       0.01141   0.00000     -0.000   0.000  -0.000
   25  4 2Ppz       0.01911   0.00000      0.000   0.000   0.000
   25  5 2Ppx       0.03584   0.00000      0.000   0.000   0.000
   25     Total     1.19722   0.00000     -0.000   0.000  -0.000

   26  1 1s         0.49939   0.00000     -0.000  -0.000  -0.000
   26  2 1s         0.19352   0.00000     -0.000  -0.000  -0.000
   26  3 2Ppy       0.02367   0.00000      0.000  -0.000  -0.000
   26  4 2Ppz       0.04875   0.00000      0.000  -0.000  -0.000
   26  5 2Ppx       0.02260   0.00000     -0.000   0.000  -0.000
   26     Total     0.78794   0.00000     -0.000  -0.000  -0.000

   27  1 1s         0.39944   0.00000     -0.000   0.000   0.000
   27  2 1s         0.18320   0.00000     -0.000  -0.000   0.000
   27  3 2Ppy       0.07331   0.00000     -0.000   0.000   0.000
   27  4 2Ppz       0.04974   0.00000     -0.000  -0.000  -0.000
   27  5 2Ppx       0.10647   0.00000      0.000  -0.000  -0.000
   27     Total     0.81216   0.00000     -0.000  -0.000   0.000

   29  1 1s         0.48983   0.00000     -0.000   0.000  -0.000
   29  2 1s         0.18818   0.00000      0.000  -0.000  -0.000
   29  3 2Ppy       0.02471   0.00000     -0.000   0.000  -0.000
   29  4 2Ppz       0.03496   0.00000      0.000  -0.000  -0.000
   29  5 2Ppx       0.02766   0.00000      0.000  -0.000  -0.000
   29     Total     0.76534   0.00000      0.000  -0.000  -0.000

----------------------------------------------------------------
Total              98.00000   0.00000      0.000  -0.000  -0.000


siesta: Eigenvalues (eV):
ik =     1
  -23.1223  -23.1223  -22.7239  -22.7239  -21.4903  -21.4903  -21.2744  -21.2744  -20.8790  -20.8790
  -20.5873  -20.5873  -20.1449  -20.1449  -19.6632  -19.6632  -19.4713  -19.4713  -19.3950  -19.3950
  -14.7657  -14.7657  -13.8586  -13.8586  -13.2905  -13.2905  -13.1227  -13.1227  -13.0567  -13.0567
  -12.7114  -12.7114  -12.5364  -12.5364  -12.1221  -12.1221  -11.9434  -11.9434  -11.8054  -11.8054
  -10.9953  -10.9953  -10.8117  -10.8117  -10.5701  -10.5701  -10.3013  -10.3013  -10.1750  -10.1750
   -9.7173   -9.7173   -9.1420   -9.1420   -8.9515   -8.9515   -8.8264   -8.8264   -8.7445   -8.7445
   -8.4558   -8.4558   -8.4166   -8.4166   -8.3011   -8.3011   -7.9699   -7.9699   -7.8167   -7.8167
   -7.5989   -7.5989   -7.4098   -7.4098   -7.3938   -7.3938   -7.1792   -7.1792   -6.9663   -6.9663
   -6.7747   -6.7747   -6.6620   -6.6620   -6.4665   -6.4665   -6.4214   -6.4214   -6.2332   -6.2332
   -5.9732   -5.9732   -5.9630   -5.9630   -5.5361   -5.5361   -4.3239   -4.3239   -3.2412   -3.2412
   -2.3602   -2.3602   -2.2579   -2.2579   -2.1710   -2.1710   -1.8987   -1.8987   -1.8907   -1.8907
   -1.8225   -1.8225   -1.6517   -1.6517   -1.5766   -1.5766   -1.1635   -1.1635   -1.0657   -1.0657
   -0.9241   -0.9241   -0.4834   -0.4834   -0.4451   -0.4451   -0.3011   -0.3011    0.4175    0.4175
    0.5088    0.5088    0.5466    0.5466    0.7204    0.7204    1.0622    1.0622    1.1536    1.1536
    1.3737    1.3737    1.4070    1.4070    1.5411    1.5411    1.6396    1.6396    2.0453    2.0453
    2.1238    2.1238    2.6698    2.6698    2.7149    2.7149    2.7743    2.7743    2.9047    2.9047
    3.0110    3.0110    3.1567    3.1567    3.4450    3.4450    3.4494    3.4494    3.7204    3.7204
    3.8662    3.8662    4.0685    4.0685    4.1492    4.1492    4.2889    4.2889    4.5674    4.5674
    4.6000    4.6000    4.7946    4.7946    4.8407    4.8407    5.0039    5.0039    5.3166    5.3166
    5.3319    5.3319    5.5668    5.5668    5.7393    5.7393    5.9176    5.9176    5.9864    5.9864
    6.0020    6.0020    6.4215    6.4215    6.4367    6.4367    6.5331    6.5331    6.7115    6.7115
    6.8884    6.8884    7.1247    7.1247    7.1781    7.1781    7.2087    7.2087    7.2399    7.2399
    7.4736    7.4736    7.7329    7.7329    7.7558    7.7558    8.0490    8.0490    8.0632    8.0632
    8.2352    8.2352    8.5804    8.5804    8.6492    8.6492    8.7808    8.7808    8.8234    8.8234
    8.8654    8.8654    9.1182    9.1182    9.2775    9.2775    9.5075    9.5075    9.5331    9.5331
    9.7621    9.7621    9.8608    9.8608   10.0337   10.0337   10.2242   10.2242   10.2950   10.2950
   10.4175   10.4175   10.7559   10.7559   11.0185   11.0185   11.3050   11.3050   11.4129   11.4129
   11.4317   11.4317   11.6339   11.6339   12.3581   12.3581   12.5003   12.5003   12.5475   12.5475
   12.6044   12.6044   12.7601   12.7601   13.2166   13.2166   13.2287   13.2287   13.3738   13.3738
   13.6573   13.6573   13.8871   13.8871   14.1167   14.1167   14.1714   14.1714   14.2089   14.2089
   14.6219   14.6219   14.7557   14.7557   15.1582   15.1582   15.3496   15.3496   15.3788   15.3788
   15.6915   15.6915   16.5739   16.5739   16.7662   16.7662   16.9956   16.9956   17.2322   17.2322
   17.3868   17.3868   17.8180   17.8180   18.7721   18.7721   18.7793   18.7793   19.1796   19.1796
   19.6703   19.6703   20.2412   20.2412   20.2438   20.2438   20.8259   20.8259   20.9567   20.9567
   21.3639   21.3639   22.0622   22.0622   22.4866   22.4866   23.0929   23.0929   23.3845   23.3845
   23.8823   23.8823   24.0897   24.0897   24.3158   24.3158   24.8508   24.8508   25.2373   25.2373
   26.2061   26.2061   26.3348   26.3348   27.0409   27.0409   27.9892   27.9892   28.9912   28.9912
   29.4437   29.4438   29.6012   29.6012   30.2268   30.2268   30.3859   30.3859   30.8666   30.8666
   30.9443   30.9443   30.9777   30.9777   31.4478   31.4478   31.7005   31.7005   31.7899   31.7899
   33.0482   33.0482   33.9691   33.9691   33.9910   33.9910   34.2062   34.2062   34.7999   34.7999
   35.4911   35.4911   35.6180   35.6180   36.3902   36.3902   36.4753   36.4753   36.8066   36.8066
   37.1182   37.1182   37.4574   37.4574   37.5114   37.5114   37.6783   37.6783   38.9348   38.9348
   39.0423   39.0423   39.4780   39.4780   39.6125   39.6125   40.1631   40.1631   40.4811   40.4811
   40.9564   40.9564   41.0982   41.0982   41.7876   41.7876   41.8892   41.8892   42.1193   42.1193
   42.4705   42.4705   43.1360   43.1360   43.3321   43.3321   43.5301   43.5301   43.8826   43.8826
   44.2124   44.2124   44.5031   44.5031   44.7964   44.7964   44.9017   44.9017   45.3000   45.3000
   45.4264   45.4264   46.0241   46.0241   46.4676   46.4676   46.8041   46.8041   46.9241   46.9241
   47.8259   47.8259   47.9584   47.9584   49.6314   49.6314   50.0234   50.0234   50.1691   50.1691
   50.3229   50.3229   50.6204   50.6204   50.6315   50.6315   51.2608   51.2608   52.1431   52.1431
   52.2152   52.2152   52.7593   52.7593   53.0621   53.0621   53.8404   53.8404   54.3086   54.3086
   54.5856   54.5856   55.2282   55.2282   55.8837   55.8837   56.0806   56.0806   56.8267   56.8267
   56.9196   56.9196   57.5060   57.5060   58.7663   58.7663   58.9614   58.9614   59.8945   59.8945
   60.5659   60.5659   60.5697   60.5697   61.4229   61.4229   62.1460   62.1460   62.6168   62.6168
   63.2646   63.2646   63.8889   63.8889   64.0775   64.0775   64.9969   64.9969   66.5733   66.5733
   67.7999   67.7999   68.5413   68.5413   70.9487   70.9487   71.3942   71.3942   71.5647   71.5647
   73.0532   73.0532   74.1709   74.1709   75.2860   75.2860   76.7056   76.7056   88.8263   88.8263
   91.2215   91.2215   92.0545   92.0545   95.3430   95.3430   98.1128   98.1128   98.3729   98.3729
  102.2889  102.2889  103.4416  103.4416  105.0916  105.0916  107.2545  107.2545  108.3000  108.3000
  116.9165  116.9165  118.7344  118.7344  126.1018  126.1018  128.8072  128.8072  140.3082  140.3082
  146.0482  146.0482  148.2830  148.2830
siesta: Fermi energy =      -3.782891 eV

siesta: Program's energy decomposition (eV):
siesta: Ebs     =     -1136.122946
siesta: Eions   =      3585.165840
siesta: Ena     =       383.115236
siesta: Ekin    =      2918.457995
siesta: Enl     =     -2801.720639
siesta: Eso     =        -0.004359
siesta: Edftu   =         0.000000
siesta: DEna    =        48.298155
siesta: DUscf   =        13.776318
siesta: DUext   =         0.000000
siesta: Exc     =     -1124.584481
siesta: eta*DQ  =         0.000000
siesta: Emadel  =         0.000000
siesta: Emeta   =         0.000000
siesta: Emolmec =         0.000000
siesta: Ekinion =         0.000000
siesta: Eharris =     -4147.827615
siesta: Etot    =     -4147.827615
siesta: FreeEng =     -4147.827615

siesta: Final energy (eV):
siesta:  Band Struct. =   -1136.122946
siesta:       Kinetic =    2918.457995
siesta:       Hartree =    9165.171178
siesta:       Edftu   =       0.000000
siesta:       Eso     =      -0.004359
siesta:    Ext. field =       0.000000
siesta:   Exch.-corr. =   -1124.584481
siesta:  Ion-electron =  -20924.791668
siesta:       Ion-ion =    5817.923720
siesta:       Ekinion =       0.000000
siesta:         Total =   -4147.827615
siesta:         Fermi =      -3.782891

siesta: Atomic forces (eV/Ang):
siesta:      1   -2.995263   -2.012983   -0.000000
siesta:      2   -0.021594   -0.006953    0.000000
siesta:      3   -0.219280    0.008478   -0.000000
siesta:      4   -0.183374    0.041321   -0.000000
siesta:      5   -0.007737    0.026102    0.000000
siesta:      6   -0.788228   -0.512763   -0.000000
siesta:      7   -0.004708    0.056490   -0.000000
siesta:      8    0.081417   -0.066113    0.000000
siesta:      9   -0.001462   -0.313420    0.000000
siesta:     10    0.184322   -0.119346   -0.000000
siesta:     11    0.006142    0.003648   -0.000000
siesta:     12    0.194061    0.129212    0.000000
siesta:     13   -0.208973    0.016182    0.000000
siesta:     14   -0.060240   -0.176380    0.000000
siesta:     15    0.109233    0.236846    0.000000
siesta:     16   -0.005683   -0.137019   -0.000000
siesta:     17   -0.184041    0.286474    0.000000
siesta:     18    0.047235   -0.050431   -0.000000
siesta:     19    0.099288    0.252273   -0.000000
siesta:     20    0.007899    0.093591   -0.000000
siesta:     21    0.120689   -0.177249   -0.000000
siesta:     22    0.997842    0.639995    0.000000
siesta:     23   -0.080764   -0.125369   -0.000000
siesta:     24   -0.057667    0.079768    0.000000
siesta:     25    0.067814   -0.059717    0.000000
siesta:     26    0.133360    0.168471   -0.000000
siesta:     27   -0.174702   -0.409989    0.000000
siesta:     28   -1.823675    3.612568    0.000000
siesta:     29    0.022509    0.045587    0.000000
siesta: ----------------------------------------
siesta:    Tot   -4.745576    1.529275    0.000000

siesta: Stress tensor (static) (eV/Ang**3):
siesta:    -0.000985   -0.000887    0.000000
siesta:    -0.000887   -0.001084   -0.000000
siesta:     0.000000   -0.000000   -0.000060

siesta: Cell volume =       4345.483265 Ang**3

siesta: Pressure (static):
siesta:                Solid            Molecule  Units
siesta:           0.00000773          0.00000975  Ry/Bohr**3
siesta:           0.00070959          0.00089476  eV/Ang**3
siesta:           1.13689470          1.43358626  kBar
(Free)E+ p_basis*V_orbitals  =       -4127.977197
(Free)Eharris+ p_basis*V_orbitals  =       -4127.977197
     spin moment: S , {S} =    0.00000   0.00000  -0.00000  -0.00000

siesta: Electric dipole (a.u.)  =    1.618730    0.175963    0.000000
siesta: Electric dipole (Debye) =    4.114405    0.447253    0.000000

cite: Please see "GC.bib" for an exhaustive BiBTeX file.
cite: Please clearly indicate Siesta version in published work: v4.1.5-1-g384057250
cite: This calculation has made use of the following articles
cite: which are encouraged to be cited in a published work.
        Primary SIESTA paper
          DOI: www.doi.org/10.1088/0953-8984/14/11/302
        Spin-orbit coupling (on-site approximation)
          DOI: www.doi.org/10.1088/0953-8984/19/19/489001


WARNING: alloc-realloc-dealloc name mismatch
         Name: atomlist isa
         Size:              -116. Bytes
         Node:     0
         Subsequent mismatches will not be reported
>> End of run:   4-JUL-2023  10:35:35
Job completed
