Siesta Version  : v4.1.5-1-g384057250
Architecture    : gcc
Compiler version: GNU Fortran (Debian 12.2.0-14) 12.2.0
Compiler flags  : mpifort -O2 -fPIC -ftree-vectorize -fallow-argument-mismatch
PP flags        : -DFC_HAVE_ABORT -DMPI -DSIESTA__FLOOK -DSIESTA__METIS -DSIESTA__MUMPS -DCDF -DNCDF -DNCDF_4 -DNCDF_PARALLEL -DSIESTA__MRRR -DSIESTA__ELPA
Libraries       : libncdf.a libfdict.a  -lflookall -ldl -lnetcdff -lnetcdf -lz -lscalapack-openmpi -lopenblas -lmetis -lzmumps -lcmumps -ldmumps -lmumps_common -lpord -lsmumps -lesmumps -lscotch -lscotcherr -fopenmp -lelpa
PARALLEL version
NetCDF support
NetCDF-4 support
NetCDF-4 MPI-IO support
METIS ordering support
Lua support

* Running on 32 nodes in parallel
>> Start of run:  16-OCT-2023  21:08:25

                           ***********************       
                           *  WELCOME TO SIESTA  *       
                           ***********************       

reinit: Reading from standard input
reinit: Dumped input in INPUT_TMP.20075
************************** Dump of input data file ****************************
# mpirun -np 4 siesta-4.1.5 < AT.fdf > AT.out &
SystemLabel      AT
NumberOfAtoms    30
NumberOfSpecies  4
%block ChemicalSpeciesLabel
    1    1  H
    2    7  N
    3   14  Si
    4    8  O
%endblock ChemicalSpeciesLabel
############################################
# This overrides Defaults.fdf configuration
############################################
MD.TypeOfRun                Verlet # CG, Verlet
MD.Steps                    0
MaxSCFIterations            300
AtomicCoordinatesFormat NotScaledCartesianAng
%block AtomicCoordinatesAndAtomicSpecies
    2.28494382 -5.19529124 0.0  1  1  H
    1.37433094 -4.6647107 0.0  2  2  N
    -0.21830245 -5.49458215 0.0  3  3  Si
    -0.17484108 -6.98516892 0.0  1  4  H
    -1.66171682 -4.58600741 0.0  2  5  N
    -1.09026419 -2.87456374 0.0  3  6  Si
    -1.53038332 -0.70765692 0.0  3  7  Si
    -3.14415959 -0.09186471 0.0  2  8  N
    -3.40268075 0.95848335 0.0  1  9  H
    -3.95073599 -0.76720972 0.0  1  10  H
    -0.17836637 0.41349951 0.0  2  11  N
    1.49520211 -0.0473996 0.0  3  12  Si
    2.45603905 1.10727302 0.0  1  13  H
    2.30451743 -1.58574382 0.0  2  14  N
    1.10725559 -2.84610319 0.0  3  15  Si
    0.05646020651684469 11.23190161647334 0.0  1  16  H
    -0.7522504734831553 10.53969573647334 0.0  2  17  N
    -2.4088403134831555 11.252815836473339 0.0  3  18  Si
    -2.3119751434831555 12.763541046473339 0.0  1  19  H
    -4.134996663483156 9.909767706473339 0.0  3  20  Si
    -6.4894509134831555 9.90178077647334 0.0  3  21  Si
    -7.051869033483156 10.636270426473338 -1.20183078  1  22  H
    -6.789264663483156 8.422689646473339 -0.08618332  1  23  H
    -7.051981493483155 10.46661323647334 1.28814761  1  24  H
    -3.2056060234831554 7.839196476473339 0.0  3  25  Si
    -4.155074383483155 6.5506603464733395 0.0  4  26  O
    -1.4146611534831552 7.66546100647334 0.0  2  27  N
    -1.0836697934831552 6.633104026473339 0.0  1  28  H
    -0.10620293348315535 8.860007426473338 0.0  3  29  Si
    1.4597339965168445 8.592760576473339 0.0  4  30  O
%endblock AtomicCoordinatesAndAtomicSpecies
%include ../../../../Defaults.fdf
************************** End of input data file *****************************

reinit: -----------------------------------------------------------------------
reinit: System Name: 
reinit: -----------------------------------------------------------------------
reinit: System Label: AT
reinit: -----------------------------------------------------------------------

initatom: Reading input for the pseudopotentials and atomic orbitals ----------
Species number:   1 Atomic number:    1 Label: H
Species number:   2 Atomic number:    7 Label: N
Species number:   3 Atomic number:   14 Label: Si
Species number:   4 Atomic number:    8 Label: O

Ground state valence configuration:   1s01
Reading pseudopotential information in formatted form from H.psf

Pseudopotential generated from a relativistic atomic calculation

Valence configuration for pseudopotential generation:
1s( 1.00) rc: 0.01
2p( 0.00) rc: 0.60
3d( 0.00) rc: 1.99
4f( 0.00) rc: 2.49
Ground state valence configuration:   2s02  2p03
Reading pseudopotential information in formatted form from N.psf

Pseudopotential generated from a relativistic atomic calculation

Valence configuration for pseudopotential generation:
2s( 2.00) rc: 0.94
2p( 3.00) rc: 0.59
3d( 0.00) rc: 3.46
4f( 0.00) rc: 2.47
Ground state valence configuration:   3s02  3p02
Reading pseudopotential information in formatted form from Si.psf

Pseudopotential generated from a relativistic atomic calculation

Valence configuration for pseudopotential generation:
3s( 2.00) rc: 1.67
3p( 2.00) rc: 2.04
3d( 0.00) rc: 2.89
4f( 0.00) rc: 2.49
Ground state valence configuration:   2s02  2p04
Reading pseudopotential information in formatted form from O.psf

Pseudopotential generated from a relativistic atomic calculation

Valence configuration for pseudopotential generation:
2s( 2.00) rc: 0.45
2p( 4.00) rc: 0.92
3d( 0.00) rc: 2.24
4f( 0.00) rc: 0.25
For H, standard SIESTA heuristics set lmxkb to 2
 (one more than the basis l, including polarization orbitals).
Use PS.lmax or PS.KBprojectors blocks to override.
For N, standard SIESTA heuristics set lmxkb to 3
 (one more than the basis l, including polarization orbitals).
Use PS.lmax or PS.KBprojectors blocks to override.
For Si, standard SIESTA heuristics set lmxkb to 3
 (one more than the basis l, including polarization orbitals).
Use PS.lmax or PS.KBprojectors blocks to override.
For O, standard SIESTA heuristics set lmxkb to 3
 (one more than the basis l, including polarization orbitals).
Use PS.lmax or PS.KBprojectors blocks to override.

<basis_specs>
===============================================================================
H                    Z=   1    Mass=  1.0100        Charge= 0.17977+309
Lmxo=0 Lmxkb= 2    BasisType=split      Semic=F
L=0  Nsemic=0  Cnfigmx=1
          i=1  nzeta=2  polorb=1  (1s)
            splnorm:   0.62000    
               vcte:    0.0000    
               rinn:    0.0000    
               qcoe:    0.0000    
               qyuk:    0.0000    
               qwid:   0.10000E-01
                rcs:    0.0000      0.0000    
            lambdas:    1.0000      1.0000    
-------------------------------------------------------------------------------
L=0  Nkbl=1  erefs: 0.17977+309
L=1  Nkbl=1  erefs: 0.17977+309
L=2  Nkbl=1  erefs: 0.17977+309
===============================================================================
</basis_specs>

atom: Called for H                     (Z =   1)

read_vps: Pseudopotential generation method:
read_vps: ATM4.2.7  Troullier-Martins                       
Valence charge for ps generation:    1.00000

xc_check: Exchange-correlation functional:
xc_check: GGA Perdew, Burke & Ernzerhof 1996
V l=0 = -2*Zval/r beyond r=  0.0098
V l=1 = -2*Zval/r beyond r=  0.5817
V l=2 = -2*Zval/r beyond r=  1.9372
All V_l potentials equal beyond r=  1.9372
This should be close to max(r_c) in ps generation
All pots = -2*Zval/r beyond r=  1.9372

VLOCAL1: 99.0% of the norm of Vloc inside     11.567 Ry
VLOCAL1: 99.9% of the norm of Vloc inside     26.362 Ry
atom: Maximum radius for 4*pi*r*r*local-pseudopot. charge    2.25106
atom: Maximum radius for r*vlocal+2*Zval:    1.91306
GHOST: No ghost state for L =  0
GHOST: No ghost state for L =  1
GHOST: No ghost state for L =  2

KBgen: Kleinman-Bylander projectors: 
   l= 0   rc=  2.036604   el= -0.477180   Ekb= -6.081590   kbcos= -0.277285
   l= 1   rc=  2.195416   el=  0.001076   Ekb= -0.926943   kbcos= -0.034643
   l= 2   rc=  2.251056   el=  0.002010   Ekb= -0.130941   kbcos= -0.009788

KBgen: Total number of Kleinman-Bylander projectors:    9
atom: -------------------------------------------------------------------------

atom: SANKEY-TYPE ORBITALS:
atom: Selected multiple-zeta basis: split     

SPLIT: Orbitals with angular momentum L= 0

SPLIT: Basis orbitals for state 1s

SPLIT: PAO cut-off radius determined from an
SPLIT: energy shift=  0.002000 Ry

   izeta = 1
                 lambda =    1.000000
                     rc =    6.518340
                 energy =   -0.475305
                kinetic =    0.912139
    potential(screened) =   -1.387444
       potential(ionic) =   -1.907295

   izeta = 2
                 rmatch =    2.141150
              splitnorm =    0.620000
                 energy =    0.566467
                kinetic =    3.772856
    potential(screened) =   -3.206389
       potential(ionic) =   -3.759093

POLgen: Perturbative polarization orbital with L=  1

POLgen: Polarization orbital for state 1s

   izeta = 1
                     rc =    6.518340
                 energy =    0.533861
                kinetic =    1.121086
    potential(screened) =   -0.587225
       potential(ionic) =   -1.053027
atom: Total number of Sankey-type orbitals:  5

atm_pop: Valence configuration (for local Pseudopot. screening):
 1s( 1.00)                                                            
Vna: chval, zval:    1.00000   1.00000

Vna:  Cut-off radius for the neutral-atom potential:   6.518340

atom: _________________________________________________________________________

<basis_specs>
===============================================================================
N                    Z=   7    Mass=  14.010        Charge= 0.17977+309
Lmxo=1 Lmxkb= 3    BasisType=split      Semic=F
L=0  Nsemic=0  Cnfigmx=2
          i=1  nzeta=2  polorb=0  (2s)
            splnorm:   0.28000    
               vcte:    0.0000    
               rinn:    0.0000    
               qcoe:    0.0000    
               qyuk:    0.0000    
               qwid:   0.10000E-01
                rcs:    0.0000      0.0000    
            lambdas:    1.0000      1.0000    
L=1  Nsemic=0  Cnfigmx=2
          i=1  nzeta=2  polorb=1  (2p)
            splnorm:   0.28000    
               vcte:    0.0000    
               rinn:    0.0000    
               qcoe:    0.0000    
               qyuk:    0.0000    
               qwid:   0.10000E-01
                rcs:    0.0000      0.0000    
            lambdas:    1.0000      1.0000    
-------------------------------------------------------------------------------
L=0  Nkbl=1  erefs: 0.17977+309
L=1  Nkbl=1  erefs: 0.17977+309
L=2  Nkbl=1  erefs: 0.17977+309
L=3  Nkbl=1  erefs: 0.17977+309
===============================================================================
</basis_specs>

atom: Called for N                     (Z =   7)

read_vps: Pseudopotential generation method:
read_vps: ATM4.2.7  Troullier-Martins                       
Valence charge for ps generation:    5.00000

xc_check: Exchange-correlation functional:
xc_check: GGA Perdew, Burke & Ernzerhof 1996
V l=0 = -2*Zval/r beyond r=  1.2889
V l=1 = -2*Zval/r beyond r=  1.2889
V l=2 = -2*Zval/r beyond r=  3.4178
V l=3 = -2*Zval/r beyond r=  2.4084
All V_l potentials equal beyond r=  3.3753
This should be close to max(r_c) in ps generation
All pots = -2*Zval/r beyond r=  3.4178

VLOCAL1: 99.0% of the norm of Vloc inside      3.810 Ry
VLOCAL1: 99.9% of the norm of Vloc inside      8.683 Ry
atom: Maximum radius for 4*pi*r*r*local-pseudopot. charge    4.02088
atom: Maximum radius for r*vlocal+2*Zval:    3.54838
GHOST: No ghost state for L =  0
GHOST: No ghost state for L =  1
GHOST: No ghost state for L =  2
GHOST: No ghost state for L =  3

KBgen: Kleinman-Bylander projectors: 
   l= 0   rc=  3.417763   el= -1.365098   Ekb= -4.433130   kbcos= -0.707855
   l= 1   rc=  3.375302   el= -0.521201   Ekb=-13.264039   kbcos= -0.535594
   l= 2   rc=  3.872880   el=  0.001991   Ekb= -0.641094   kbcos= -0.062456
   l= 3   rc=  3.970931   el=  0.003093   Ekb= -0.474517   kbcos= -0.018236

KBgen: Total number of Kleinman-Bylander projectors:   16
atom: -------------------------------------------------------------------------

atom: SANKEY-TYPE ORBITALS:
atom: Selected multiple-zeta basis: split     

SPLIT: Orbitals with angular momentum L= 0

SPLIT: Basis orbitals for state 2s

SPLIT: PAO cut-off radius determined from an
SPLIT: energy shift=  0.002000 Ry

   izeta = 1
                 lambda =    1.000000
                     rc =    4.730425
                 energy =   -1.363399
                kinetic =    1.245246
    potential(screened) =   -2.608645
       potential(ionic) =   -8.121105

   izeta = 2
                 rmatch =    2.531849
              splitnorm =    0.280000
                 energy =   -0.959908
                kinetic =    2.409435
    potential(screened) =   -3.369343
       potential(ionic) =   -9.427975

SPLIT: Orbitals with angular momentum L= 1

SPLIT: Basis orbitals for state 2p

SPLIT: PAO cut-off radius determined from an
SPLIT: energy shift=  0.002000 Ry

   izeta = 1
                 lambda =    1.000000
                     rc =    5.924108
                 energy =   -0.519262
                kinetic =    3.672940
    potential(screened) =   -4.192202
       potential(ionic) =   -9.518354

   izeta = 2
                 rmatch =    2.531849
              splitnorm =    0.280000
                 energy =   -0.104258
                kinetic =    6.807538
    potential(screened) =   -6.911796
       potential(ionic) =  -13.149920

POLgen: Perturbative polarization orbital with L=  2

POLgen: Polarization orbital for state 2p

   izeta = 1
                     rc =    5.924108
                 energy =    1.427508
                kinetic =    2.872379
    potential(screened) =   -1.444871
       potential(ionic) =   -5.563644
atom: Total number of Sankey-type orbitals: 13

atm_pop: Valence configuration (for local Pseudopot. screening):
 2s( 2.00)                                                            
 2p( 3.00)                                                            
Vna: chval, zval:    5.00000   5.00000

Vna:  Cut-off radius for the neutral-atom potential:   5.924108

atom: _________________________________________________________________________

<basis_specs>
===============================================================================
Si                   Z=  14    Mass=  28.090        Charge= 0.17977+309
Lmxo=1 Lmxkb= 3    BasisType=split      Semic=F
L=0  Nsemic=0  Cnfigmx=3
          i=1  nzeta=2  polorb=0  (3s)
            splnorm:   0.28000    
               vcte:    0.0000    
               rinn:    0.0000    
               qcoe:    0.0000    
               qyuk:    0.0000    
               qwid:   0.10000E-01
                rcs:    0.0000      0.0000    
            lambdas:    1.0000      1.0000    
L=1  Nsemic=0  Cnfigmx=3
          i=1  nzeta=2  polorb=1  (3p)
            splnorm:   0.28000    
               vcte:    0.0000    
               rinn:    0.0000    
               qcoe:    0.0000    
               qyuk:    0.0000    
               qwid:   0.10000E-01
                rcs:    0.0000      0.0000    
            lambdas:    1.0000      1.0000    
-------------------------------------------------------------------------------
L=0  Nkbl=1  erefs: 0.17977+309
L=1  Nkbl=1  erefs: 0.17977+309
L=2  Nkbl=1  erefs: 0.17977+309
L=3  Nkbl=1  erefs: 0.17977+309
===============================================================================
</basis_specs>

atom: Called for Si                    (Z =  14)

read_vps: Pseudopotential generation method:
read_vps: ATM4.2.7  Troullier-Martins                       
Valence charge for ps generation:    4.00000

xc_check: Exchange-correlation functional:
xc_check: GGA Perdew, Burke & Ernzerhof 1996
V l=0 = -2*Zval/r beyond r=  2.7826
V l=1 = -2*Zval/r beyond r=  2.7826
V l=2 = -2*Zval/r beyond r=  2.9253
V l=3 = -2*Zval/r beyond r=  2.7826
All V_l potentials equal beyond r=  2.8530
This should be close to max(r_c) in ps generation
All pots = -2*Zval/r beyond r=  2.9253

VLOCAL1: 99.0% of the norm of Vloc inside      5.333 Ry
VLOCAL1: 99.9% of the norm of Vloc inside     12.154 Ry
atom: Maximum radius for 4*pi*r*r*local-pseudopot. charge    3.39869
atom: Maximum radius for r*vlocal+2*Zval:    2.96205
GHOST: No ghost state for L =  0
GHOST: No ghost state for L =  1
GHOST: No ghost state for L =  2
GHOST: No ghost state for L =  3

KBgen: Kleinman-Bylander projectors: 
   l= 0   rc=  3.075247   el= -0.794092   Ekb=  5.879390   kbcos=  0.167461
   l= 1   rc=  3.153101   el= -0.300068   Ekb=  2.642817   kbcos=  0.058301
   l= 2   rc=  3.273594   el=  0.001958   Ekb= -1.185135   kbcos= -0.104411
   l= 3   rc=  3.232927   el=  0.003046   Ekb= -0.497174   kbcos= -0.015889

KBgen: Total number of Kleinman-Bylander projectors:   16
atom: -------------------------------------------------------------------------

atom: SANKEY-TYPE ORBITALS:
atom: Selected multiple-zeta basis: split     

SPLIT: Orbitals with angular momentum L= 0

SPLIT: Basis orbitals for state 3s

SPLIT: PAO cut-off radius determined from an
SPLIT: energy shift=  0.002000 Ry

   izeta = 1
                 lambda =    1.000000
                     rc =    6.429618
                 energy =   -0.792283
                kinetic =    0.525293
    potential(screened) =   -1.317576
       potential(ionic) =   -3.744923

   izeta = 2
                 rmatch =    3.998416
              splitnorm =    0.280000
                 energy =   -0.583081
                kinetic =    1.069570
    potential(screened) =   -1.652651
       potential(ionic) =   -4.235185

SPLIT: Orbitals with angular momentum L= 1

SPLIT: Basis orbitals for state 3p

SPLIT: PAO cut-off radius determined from an
SPLIT: energy shift=  0.002000 Ry

   izeta = 1
                 lambda =    1.000000
                     rc =    8.464845
                 energy =   -0.298236
                kinetic =    0.785360
    potential(screened) =   -1.083596
       potential(ionic) =   -3.273779

   izeta = 2
                 rmatch =    4.587816
              splitnorm =    0.280000
                 energy =   -0.131871
                kinetic =    1.403687
    potential(screened) =   -1.535557
       potential(ionic) =   -4.015310

POLgen: Perturbative polarization orbital with L=  2

POLgen: Polarization orbital for state 3p

   izeta = 1
                     rc =    8.464845
                 energy =    0.321949
                kinetic =    1.055677
    potential(screened) =   -0.733728
       potential(ionic) =   -2.672950
atom: Total number of Sankey-type orbitals: 13

atm_pop: Valence configuration (for local Pseudopot. screening):
 3s( 2.00)                                                            
 3p( 2.00)                                                            
Vna: chval, zval:    4.00000   4.00000

Vna:  Cut-off radius for the neutral-atom potential:   8.464845

atom: _________________________________________________________________________

<basis_specs>
===============================================================================
O                    Z=   8    Mass=  16.000        Charge= 0.17977+309
Lmxo=1 Lmxkb= 3    BasisType=split      Semic=F
L=0  Nsemic=0  Cnfigmx=2
          i=1  nzeta=2  polorb=0  (2s)
            splnorm:   0.28000    
               vcte:    0.0000    
               rinn:    0.0000    
               qcoe:    0.0000    
               qyuk:    0.0000    
               qwid:   0.10000E-01
                rcs:    0.0000      0.0000    
            lambdas:    1.0000      1.0000    
L=1  Nsemic=0  Cnfigmx=2
          i=1  nzeta=2  polorb=1  (2p)
            splnorm:   0.28000    
               vcte:    0.0000    
               rinn:    0.0000    
               qcoe:    0.0000    
               qyuk:    0.0000    
               qwid:   0.10000E-01
                rcs:    0.0000      0.0000    
            lambdas:    1.0000      1.0000    
-------------------------------------------------------------------------------
L=0  Nkbl=1  erefs: 0.17977+309
L=1  Nkbl=1  erefs: 0.17977+309
L=2  Nkbl=1  erefs: 0.17977+309
L=3  Nkbl=1  erefs: 0.17977+309
===============================================================================
</basis_specs>

atom: Called for O                     (Z =   8)

read_vps: Pseudopotential generation method:
read_vps: ATM4.2.7  Troullier-Martins                       
Valence charge for ps generation:    6.00000

xc_check: Exchange-correlation functional:
xc_check: GGA Perdew, Burke & Ernzerhof 1996
V l=0 = -2*Zval/r beyond r=  1.1000
V l=1 = -2*Zval/r beyond r=  1.1000
V l=2 = -2*Zval/r beyond r=  2.2154
V l=3 = -2*Zval/r beyond r=  1.1000
All V_l potentials equal beyond r=  2.2154
This should be close to max(r_c) in ps generation
All pots = -2*Zval/r beyond r=  2.2154

VLOCAL1: 99.0% of the norm of Vloc inside      8.845 Ry
VLOCAL1: 99.9% of the norm of Vloc inside     20.157 Ry
atom: Maximum radius for 4*pi*r*r*local-pseudopot. charge    2.67231
atom: Maximum radius for r*vlocal+2*Zval:    2.32897
GHOST: No ghost state for L =  0
GHOST: No ghost state for L =  1
GHOST: No ghost state for L =  2
GHOST: No ghost state for L =  3

KBgen: Kleinman-Bylander projectors: 
   l= 0   rc=  2.243238   el= -1.759686   Ekb=**********   kbcos= -0.171774
   l= 1   rc=  2.328968   el= -0.663873   Ekb=-14.506792   kbcos= -0.519897
   l= 2   rc=  2.573941   el=  0.002031   Ekb= -1.137373   kbcos= -0.019581
   l= 3   rc=  2.606321   el=  0.003153   Ekb= -1.013546   kbcos= -0.003122

KBgen: Total number of Kleinman-Bylander projectors:   16
atom: -------------------------------------------------------------------------

atom: SANKEY-TYPE ORBITALS:
atom: Selected multiple-zeta basis: split     

SPLIT: Orbitals with angular momentum L= 0

SPLIT: Basis orbitals for state 2s

SPLIT: PAO cut-off radius determined from an
SPLIT: energy shift=  0.002000 Ry

   izeta = 1
                 lambda =    1.000000
                     rc =    4.243912
                 energy =   -1.758270
                kinetic =    3.286084
    potential(screened) =   -5.044353
       potential(ionic) =  -12.921184

   izeta = 2
                 rmatch =    2.187845
              splitnorm =    0.280000
                 energy =   -0.885018
                kinetic =    8.134434
    potential(screened) =   -9.019452
       potential(ionic) =  -17.710645

SPLIT: Orbitals with angular momentum L= 1

SPLIT: Basis orbitals for state 2p

SPLIT: PAO cut-off radius determined from an
SPLIT: energy shift=  0.002000 Ry

   izeta = 1
                 lambda =    1.000000
                     rc =    5.314825
                 energy =   -0.661986
                kinetic =    4.917472
    potential(screened) =   -5.579458
       potential(ionic) =  -13.236259

   izeta = 2
                 rmatch =    2.160663
              splitnorm =    0.280000
                 energy =   -0.068760
                kinetic =    9.183374
    potential(screened) =   -9.252135
       potential(ionic) =  -18.274251

POLgen: Perturbative polarization orbital with L=  2

POLgen: Polarization orbital for state 2p

   izeta = 1
                     rc =    5.314825
                 energy =    1.970580
                kinetic =    3.886128
    potential(screened) =   -1.915547
       potential(ionic) =   -7.749584
atom: Total number of Sankey-type orbitals: 13

atm_pop: Valence configuration (for local Pseudopot. screening):
 2s( 2.00)                                                            
 2p( 4.00)                                                            
Vna: chval, zval:    6.00000   6.00000

Vna:  Cut-off radius for the neutral-atom potential:   5.314825

atom: _________________________________________________________________________

prinput: Basis input ----------------------------------------------------------

PAO.BasisType split     

%block ChemicalSpeciesLabel
    1    1 H                       # Species index, atomic number, species label
    2    7 N                       # Species index, atomic number, species label
    3   14 Si                      # Species index, atomic number, species label
    4    8 O                       # Species index, atomic number, species label
%endblock ChemicalSpeciesLabel

%block PAO.Basis                 # Define Basis set
H                     1                    # Species label, number of l-shells
 n=1   0   2 P   1                   # n, l, Nzeta, Polarization, NzetaPol
   6.518      2.141   
   1.000      1.000   
N                     2                    # Species label, number of l-shells
 n=2   0   2                         # n, l, Nzeta 
   4.730      2.532   
   1.000      1.000   
 n=2   1   2 P   1                   # n, l, Nzeta, Polarization, NzetaPol
   5.924      2.532   
   1.000      1.000   
Si                    2                    # Species label, number of l-shells
 n=3   0   2                         # n, l, Nzeta 
   6.430      3.998   
   1.000      1.000   
 n=3   1   2 P   1                   # n, l, Nzeta, Polarization, NzetaPol
   8.465      4.588   
   1.000      1.000   
O                     2                    # Species label, number of l-shells
 n=2   0   2                         # n, l, Nzeta 
   4.244      2.188   
   1.000      1.000   
 n=2   1   2 P   1                   # n, l, Nzeta, Polarization, NzetaPol
   5.315      2.161   
   1.000      1.000   
%endblock PAO.Basis

prinput: ----------------------------------------------------------------------

Dumping basis to NetCDF file H.ion.nc
Dumping basis to NetCDF file N.ion.nc
Dumping basis to NetCDF file Si.ion.nc
Dumping basis to NetCDF file O.ion.nc
coor:   Atomic-coordinates input format  =     Cartesian coordinates
coor:                                          (in Angstroms)

siesta: Atomic coordinates (Bohr) and species
siesta:      4.31792  -9.81768   0.00000  1        1
siesta:      2.59711  -8.81503   0.00000  2        2
siesta:     -0.41253 -10.38326   0.00000  3        3
siesta:     -0.33040 -13.20006   0.00000  1        4
siesta:     -3.14019  -8.66630   0.00000  2        5
siesta:     -2.06030  -5.43214   0.00000  3        6
siesta:     -2.89201  -1.33728   0.00000  3        7
siesta:     -5.94160  -0.17360   0.00000  2        8
siesta:     -6.43014   1.81127   0.00000  1        9
siesta:     -7.46581  -1.44982   0.00000  1       10
siesta:     -0.33706   0.78140   0.00000  2       11
siesta:      2.82552  -0.08957   0.00000  3       12
siesta:      4.64124   2.09244   0.00000  1       13
siesta:      4.35491  -2.99662   0.00000  2       14
siesta:      2.09241  -5.37836   0.00000  3       15
siesta:      0.10669  21.22523   0.00000  1       16
siesta:     -1.42155  19.91715   0.00000  2       17
siesta:     -4.55205  21.26475   0.00000  3       18
siesta:     -4.36900  24.11961   0.00000  1       19
siesta:     -7.81401  18.72675   0.00000  3       20
siesta:    -12.26329  18.71166   0.00000  3       21
siesta:    -13.32611  20.09965  -2.27113  1       22
siesta:    -12.82986  15.91658  -0.16286  1       23
siesta:    -13.32632  19.77904   2.43425  1       24
siesta:     -6.05772  14.81394   0.00000  3       25
siesta:     -7.85196  12.37896   0.00000  4       26
siesta:     -2.67332  14.48563   0.00000  2       27
siesta:     -2.04784  12.53475   0.00000  1       28
siesta:     -0.20069  16.74299   0.00000  3       29
siesta:      2.75850  16.23797   0.00000  4       30

siesta: Automatic unit cell vectors (Ang):
siesta:   18.637802    0.000000    0.000000
siesta:    0.000000   29.312164    0.000000
siesta:    0.000000    0.000000   10.327559

siesta: System type = molecule  

initatomlists: Number of atoms, orbitals, and projectors:     30   302   403

siesta: ******************** Simulation parameters ****************************
siesta:
siesta: The following are some of the parameters of the simulation.
siesta: A complete list of the parameters used, including default values,
siesta: can be found in file out.fdf
siesta:
redata: Spin configuration                          = spin-orbit
redata: Number of spin components                   = 8
redata: Time-Reversal Symmetry                      = F
redata: Spin spiral                                 = F
############################################################
This spin-orbit implementation uses a local approximation.
From 4.2 and onwards the full non-local approximation is implemented
You are strongly advised to use >=4.2 versions!
############################################################
redata: Long output                                 =   F
redata: Number of Atomic Species                    =        4
redata: Charge density info will appear in .RHO file
redata: Write Mulliken Pop.                         = NO
redata: Matel table size (NRTAB)                    =     1024
redata: Mesh Cutoff                                 =   340.0000 Ry
redata: Net charge of the system                    =     0.0000 |e|
redata: Min. number of SCF Iter                     =        1
redata: Max. number of SCF Iter                     =      300
redata: SCF convergence failure will abort job
redata: SCF mix quantity                            = Hamiltonian
redata: Mix DM or H after convergence               =   F
redata: Recompute H after scf cycle                 =   F
redata: Mix DM in first SCF step                    =   T
redata: Write Pulay info on disk                    =   F
redata: New DM Occupancy tolerance                  = 0.000000000001
redata: No kicks to SCF
redata: DM Mixing Weight for Kicks                  =     0.5000
redata: Require Harris convergence for SCF          =   F
redata: Harris energy tolerance for SCF             =     0.000100 eV
redata: Require DM convergence for SCF              =   T
redata: DM tolerance for SCF                        =     0.000008
redata: Require EDM convergence for SCF             =   F
redata: EDM tolerance for SCF                       =     0.001000 eV
redata: Require H convergence for SCF               =   T
redata: Hamiltonian tolerance for SCF               =     0.000001 eV
redata: Require (free) Energy convergence for SCF   =   F
redata: (free) Energy tolerance for SCF             =     0.000100 eV
redata: Using Saved Data (generic)                  =   F
redata: Use continuation files for DM               =   T
redata: Neglect nonoverlap interactions             =   F
redata: Method of Calculation                       = Diagonalization
redata: Electronic Temperature                      =   299.9978 K
redata: Fix the spin of the system                  =   F
redata: Dynamics option                             = Verlet MD run
redata: Initial MD time step                        =        1
redata:   Final MD time step                        =        1
redata: Length of MD time step                      =     0.5000 fs
redata: Initial Temperature of MD run               =     0.0000 K
redata: Perform a MD quench                         =   F
mix.SCF: Pulay mixing                            = Pulay
mix.SCF:    Variant                              = stable
mix.SCF:    History steps                        = 6
mix.SCF:    Linear mixing weight                 =     0.250000
mix.SCF:    Mixing weight                        =     0.250000
mix.SCF:    SVD condition                        = 0.1000E-07
mix.SCF:    Restart steps                        = 24
mix.SCF:    Restart save steps                   = 3
mix.SCF: Spin-component mixing                   all
redata: Save all siesta data in one NC              =   F
redata: ***********************************************************************

%block SCF.Mixers
  Pulay
%endblock SCF.Mixers

%block SCF.Mixer.Pulay
  # Mixing method
  method pulay
  variant stable

  # Mixing options
  weight 0.2500
  weight.linear 0.2500
  history 6
  restart 24
  restart.save 3
%endblock SCF.Mixer.Pulay

Size of DM history Fstack: 3
Total number of electrons:    98.000000
Total ionic charge:    98.000000

* ProcessorY, Blocksize:    4   9


* Orbital distribution balance (max,min):    18     9


Time-reversal symmetry not used.

siesta: k-grid: Number of k-points =     1
siesta: k-grid: Cutoff (effective) =     5.164 Ang
siesta: k-grid: Supercell and displacements
siesta: k-grid:    1   0   0      0.000
siesta: k-grid:    0   1   0      0.000
siesta: k-grid:    0   0   1      0.000

diag: Algorithm                                     = ELPA-1stage
diag: Parallel over k                               =   F
diag: Use parallel 2D distribution                  =   T
diag: Parallel block-size                           = 9
diag: Parallel distribution                         =     4 x     8
diag: Used triangular part                          = Lower
diag: Absolute tolerance                            =  0.100E-15
diag: Orthogonalization factor                      =  0.100E-05
diag: Memory factor                                 =  1.0000


ts: **************************************************************
ts: Save H and S matrices                           =    F
ts: Save DM and EDM matrices                        =    F
ts: Only save the overlap matrix S                  =    F
ts: **************************************************************

************************ Begin: TS CHECKS AND WARNINGS ************************
************************ End: TS CHECKS AND WARNINGS **************************


                     ====================================
                        Begin MD step =      1
                     ====================================

outcoor: Atomic coordinates (Ang):                          
    2.28494382   -5.19529124    0.00000000   1       1  H
    1.37433094   -4.66471070    0.00000000   2       2  N
   -0.21830245   -5.49458215    0.00000000   3       3  Si
   -0.17484108   -6.98516892    0.00000000   1       4  H
   -1.66171682   -4.58600741    0.00000000   2       5  N
   -1.09026419   -2.87456374    0.00000000   3       6  Si
   -1.53038332   -0.70765692    0.00000000   3       7  Si
   -3.14415959   -0.09186471    0.00000000   2       8  N
   -3.40268075    0.95848335    0.00000000   1       9  H
   -3.95073599   -0.76720972    0.00000000   1      10  H
   -0.17836637    0.41349951    0.00000000   2      11  N
    1.49520211   -0.04739960    0.00000000   3      12  Si
    2.45603905    1.10727302    0.00000000   1      13  H
    2.30451743   -1.58574382    0.00000000   2      14  N
    1.10725559   -2.84610319    0.00000000   3      15  Si
    0.05646021   11.23190162    0.00000000   1      16  H
   -0.75225047   10.53969574    0.00000000   2      17  N
   -2.40884031   11.25281584    0.00000000   3      18  Si
   -2.31197514   12.76354105    0.00000000   1      19  H
   -4.13499666    9.90976771    0.00000000   3      20  Si
   -6.48945091    9.90178078    0.00000000   3      21  Si
   -7.05186903   10.63627043   -1.20183078   1      22  H
   -6.78926466    8.42268965   -0.08618332   1      23  H
   -7.05198149   10.46661324    1.28814761   1      24  H
   -3.20560602    7.83919648    0.00000000   3      25  Si
   -4.15507438    6.55066035    0.00000000   4      26  O
   -1.41466115    7.66546101    0.00000000   2      27  N
   -1.08366979    6.63310403    0.00000000   1      28  H
   -0.10620293    8.86000743    0.00000000   3      29  Si
    1.45973400    8.59276058    0.00000000   4      30  O

outcell: Unit cell vectors (Ang):
       18.637802    0.000000    0.000000
        0.000000   29.312164    0.000000
        0.000000    0.000000   10.327559

outcell: Cell vector modules (Ang)   :   18.637802   29.312164   10.327559
outcell: Cell angles (23,13,12) (deg):     90.0000     90.0000     90.0000
outcell: Cell volume (Ang**3)        :   5642.0931
<dSpData1D:S at geom step 1
  <sparsity:sparsity for geom step 1
    nrows_g=302 nrows=18 sparsity=.0275 nnzs=2511, refcount: 8>
  <dData1D:(new from dSpData1D) n=2511, refcount: 1>
refcount: 1>
new_DM -- step:     1
Initializing Density Matrix...

Attempting to read DM from file... Failed...
DM filled with atomic data:
<dSpData2D:DM initialized from atoms
  <sparsity:sparsity for geom step 1
    nrows_g=302 nrows=18 sparsity=.0275 nnzs=2511, refcount: 9>
  <dData2D:DM n=2511 m=8, refcount: 1>
refcount: 1>
     spin moment: S , {S} =   56.00000   0.00000   0.00000  56.00000
No. of atoms with KB's overlaping orbs in proc 0. Max # of overlaps:      20     134

Initializing spin-orbit part of the Hamiltonian
  Adding spin-orbit effects for H 
  Adding spin-orbit effects for N 
  Adding spin-orbit effects for Si
  Adding spin-orbit effects for O 


New grid distribution:   1
           1       1:  108    1:   45    1:    8
           2       1:  108    1:   45    9:   16
           3       1:  108    1:   45   17:   24
           4       1:  108    1:   45   25:   32
           5       1:  108    1:   45   33:   39
           6       1:  108    1:   45   40:   46
           7       1:  108    1:   45   47:   53
           8       1:  108    1:   45   54:   60
           9       1:  108   46:   90    1:    8
          10       1:  108   46:   90    9:   16
          11       1:  108   46:   90   17:   24
          12       1:  108   46:   90   25:   32
          13       1:  108   46:   90   33:   39
          14       1:  108   46:   90   40:   46
          15       1:  108   46:   90   47:   53
          16       1:  108   46:   90   54:   60
          17       1:  108   91:  135    1:    8
          18       1:  108   91:  135    9:   16
          19       1:  108   91:  135   17:   24
          20       1:  108   91:  135   25:   32
          21       1:  108   91:  135   33:   39
          22       1:  108   91:  135   40:   46
          23       1:  108   91:  135   47:   53
          24       1:  108   91:  135   54:   60
          25       1:  108  136:  180    1:    8
          26       1:  108  136:  180    9:   16
          27       1:  108  136:  180   17:   24
          28       1:  108  136:  180   25:   32
          29       1:  108  136:  180   33:   39
          30       1:  108  136:  180   40:   46
          31       1:  108  136:  180   47:   53
          32       1:  108  136:  180   54:   60

InitMesh: MESH =   216 x   360 x   120 =     9331200
InitMesh: (bp) =   108 x   180 x    60 =     1166400
InitMesh: Mesh cutoff (required, used) =   340.000   371.210 Ry
ExtMesh (bp) on 0 =   212 x   157 x   116 =     3860944
New grid distribution:   2
           1       1:   30    1:   52    1:   19
           2      88:   98    1:   51    1:   19
           3      98:  108   52:   70    1:   21
           4      35:   87    1:   52   20:   60
           5       1:   34    1:   52   20:   60
           6      10:   81  161:  180    1:   20
           7      99:  108    1:   51    1:   19
           8      88:   97   52:   70    1:   21
           9      31:   87    1:   52    1:   19
          10       1:   72   53:   70    1:   22
          11      73:   87   53:   70    1:   22
          12      73:   87   53:   70   23:   60
          13       1:   72   53:   70   23:   60
          14      88:   98    1:   51   20:   60
          15      98:  108   52:   70   22:   60
          16      88:   97   52:   70   22:   60
          17      82:   99   71:  159    1:   20
          18       1:    9   71:  160    1:   20
          19     100:  108  160:  180    1:   20
          20      10:   81   71:  160   21:   60
          21      82:   99   71:  159   21:   60
          22       1:    9   71:  160   21:   60
          23      82:   99  160:  180    1:   20
          24       1:    9  161:  180    1:   20
          25      10:   81   71:  160    1:   20
          26     100:  108   71:  159    1:   20
          27       1:    9  161:  180   21:   60
          28     100:  108   71:  159   21:   60
          29      10:   81  161:  180   21:   60
          30      99:  108    1:   51   20:   60
          31      82:   99  160:  180   21:   60
          32     100:  108  160:  180   21:   60
New grid distribution:   3
           1       1:   49   46:   69    1:   25
           2      91:  108   41:   69   27:   60
           3      74:   91    1:   40    1:   23
           4      16:   73    1:   45   25:   60
           5      16:   73    1:   45    1:   24
           6      74:   92    1:   40   24:   60
           7      93:  108    1:   40   24:   60
           8       1:   15    1:   45    1:   24
           9      17:   76   70:  147    1:   25
          10      96:  108  143:  180   26:   60
          11      92:  108    1:   40    1:   23
          12       1:   50   46:   69   26:   60
          13      17:   76  148:  180    1:   25
          14       1:   15    1:   45   25:   60
          15      51:   73   46:   69   26:   60
          16      50:   73   46:   69    1:   25
          17      77:   95   70:  142    1:   24
          18      96:  108   70:  142    1:   24
          19      91:  108   41:   69    1:   26
          20      17:   76   70:  147   26:   60
          21      77:   95   70:  142   25:   60
          22      96:  108   70:  142   25:   60
          23      74:   90   41:   69   27:   60
          24       1:   16  148:  180    1:   25
          25       1:   16   70:  147    1:   25
          26      77:   94  143:  180    1:   25
          27      95:  108  143:  180    1:   25
          28      16:   76  148:  180   26:   60
          29       1:   16   70:  147   26:   60
          30      77:   95  143:  180   26:   60
          31       1:   15  148:  180   26:   60
          32      74:   90   41:   69    1:   26
Setting up quadratic distribution...
ExtMesh (bp) on 0 =   134 x   164 x   127 =     2790952
PhiOnMesh: Number of (b)points on node 0 =                29640
PhiOnMesh: nlist on node 0 =               454587

stepf: Fermi-Dirac step function

siesta: Program's energy decomposition (eV):
siesta: Ebs     =      -649.073150
siesta: Eions   =      3553.971015
siesta: Ena     =       374.984508
siesta: Ekin    =      3171.325747
siesta: Enl     =     -2984.710060
siesta: Eso     =        -0.003884
siesta: Edftu   =         0.000000
siesta: DEna    =       129.713344
siesta: DUscf   =        75.709423
siesta: DUext   =         0.000000
siesta: Exc     =     -1168.692029
siesta: eta*DQ  =         0.000000
siesta: Emadel  =         0.000000
siesta: Emeta   =         0.000000
siesta: Emolmec =         0.000000
siesta: Ekinion =         0.000000
siesta: Eharris =     -3884.471242
siesta: Etot    =     -3955.643964
siesta: FreeEng =     -3955.647270

        iscf     Eharris(eV)        E_KS(eV)     FreeEng(eV)     dDmax    Ef(eV) dHmax(eV)
   scf:    1    -3884.471242    -3955.643964    -3955.647270  0.970382 -4.935259 21.521623
     spin moment: S , {S} =    2.02347  -0.00000  -0.00000   2.02347
timer: Routine,Calls,Time,% = IterSCF        1       4.624  10.69
   scf:    2    -3996.656793    -3988.866443    -3988.866460  0.466799 -4.309516 11.851236
     spin moment: S , {S} =    2.00005   0.00000  -0.00000   2.00005
   scf:    3    -3960.262959    -3986.064815    -3986.090941  0.418843 -4.219357 11.405207
     spin moment: S , {S} =    1.96590  -0.00000  -0.00000   1.96590
   scf:    4    -4002.213180    -3997.332809    -3997.332810  0.242362 -3.928514  6.243719
     spin moment: S , {S} =    0.00010  -0.00000   0.00000   0.00010
   scf:    5    -3998.697008    -3998.097343    -3998.097343  0.039090 -3.837354  3.870585
     spin moment: S , {S} =    0.00006  -0.00000   0.00000   0.00006
   scf:    6    -3998.868275    -3998.486194    -3998.486194  0.025540 -3.825785  1.902744
     spin moment: S , {S} =    0.00003  -0.00000   0.00000   0.00003
   scf:    7    -3998.880836    -3998.676785    -3998.676785  0.023044 -3.866646  0.736835
     spin moment: S , {S} =    0.00001  -0.00000   0.00000   0.00001
   scf:    8    -3998.807350    -3998.739455    -3998.739455  0.012514 -3.910724  0.451669
     spin moment: S , {S} =    0.00000  -0.00000   0.00000   0.00000
   scf:    9    -3998.788254    -3998.762732    -3998.762732  0.007081 -3.934328  0.360483
     spin moment: S , {S} =    0.00000  -0.00000   0.00000   0.00000
   scf:   10    -3998.821372    -3998.783541    -3998.783541  0.022680 -3.959071  0.196498
     spin moment: S , {S} =    0.00000  -0.00000  -0.00000  -0.00000
   scf:   11    -3998.787837    -3998.785821    -3998.785821  0.004353 -3.945761  0.066486
     spin moment: S , {S} =    0.00000  -0.00000  -0.00000  -0.00000
   scf:   12    -3998.786494    -3998.786181    -3998.786181  0.001438 -3.943520  0.039496
     spin moment: S , {S} =    0.00000  -0.00000  -0.00000  -0.00000
   scf:   13    -3998.786748    -3998.786462    -3998.786462  0.000725 -3.941833  0.020798
     spin moment: S , {S} =    0.00000  -0.00000  -0.00000  -0.00000
   scf:   14    -3998.786768    -3998.786610    -3998.786610  0.000841 -3.940924  0.012473
     spin moment: S , {S} =    0.00000  -0.00000  -0.00000  -0.00000
   scf:   15    -3998.786731    -3998.786667    -3998.786668  0.000637 -3.940667  0.007443
     spin moment: S , {S} =    0.00000  -0.00000  -0.00000  -0.00000
   scf:   16    -3998.786732    -3998.786697    -3998.786697  0.000599 -3.940619  0.003702
     spin moment: S , {S} =    0.00000   0.00000  -0.00000   0.00000
   scf:   17    -3998.786710    -3998.786703    -3998.786703  0.000268 -3.940722  0.003130
     spin moment: S , {S} =    0.00000   0.00000  -0.00000   0.00000
   scf:   18    -3998.786708    -3998.786706    -3998.786706  0.000201 -3.940765  0.002107
     spin moment: S , {S} =    0.00000   0.00000  -0.00000   0.00000
   scf:   19    -3998.786708    -3998.786707    -3998.786707  0.000180 -3.940786  0.001379
     spin moment: S , {S} =    0.00000   0.00000  -0.00000   0.00000
   scf:   20    -3998.786707    -3998.786707    -3998.786707  0.000081 -3.940809  0.000962
     spin moment: S , {S} =    0.00000   0.00000  -0.00000   0.00000
   scf:   21    -3998.786708    -3998.786707    -3998.786707  0.000072 -3.940812  0.000632
     spin moment: S , {S} =    0.00000   0.00000   0.00000   0.00000
   scf:   22    -3998.786708    -3998.786707    -3998.786708  0.000074 -3.940833  0.000284
     spin moment: S , {S} =    0.00000   0.00000   0.00000   0.00000
   scf:   23    -3998.786708    -3998.786707    -3998.786708  0.000033 -3.940840  0.000180
     spin moment: S , {S} =    0.00000   0.00000   0.00000   0.00000
   scf:   24    -3998.786708    -3998.786707    -3998.786708  0.000029 -3.940841  0.000074
     spin moment: S , {S} =    0.00000  -0.00000   0.00000   0.00000
mix: Pulay -- resetting history
   scf:   25    -3998.786708    -3998.786707    -3998.786708  0.000017 -3.940827  0.000036
     spin moment: S , {S} =    0.00000  -0.00000   0.00000   0.00000
   scf:   26    -3998.786707    -3998.786707    -3998.786708  0.000003 -3.940826  0.000027
     spin moment: S , {S} =    0.00000  -0.00000   0.00000   0.00000
   scf:   27    -3998.786707    -3998.786707    -3998.786708  0.000002 -3.940823  0.000014
     spin moment: S , {S} =    0.00000  -0.00000   0.00000   0.00000
   scf:   28    -3998.786707    -3998.786707    -3998.786708  0.000001 -3.940821  0.000009
     spin moment: S , {S} =    0.00000  -0.00000   0.00000   0.00000
   scf:   29    -3998.786707    -3998.786707    -3998.786708  0.000000 -3.940830  0.000004
     spin moment: S , {S} =    0.00000  -0.00000   0.00000   0.00000
   scf:   30    -3998.786707    -3998.786707    -3998.786708  0.000000 -3.940830  0.000003
     spin moment: S , {S} =    0.00000  -0.00000   0.00000  -0.00000
   scf:   31    -3998.786707    -3998.786707    -3998.786708  0.000000 -3.940830  0.000002
     spin moment: S , {S} =    0.00000  -0.00000   0.00000  -0.00000
   scf:   32    -3998.786707    -3998.786707    -3998.786708  0.000000 -3.940830  0.000002
     spin moment: S , {S} =    0.00000  -0.00000   0.00000  -0.00000
   scf:   33    -3998.786707    -3998.786707    -3998.786708  0.000000 -3.940830  0.000001
     spin moment: S , {S} =    0.00000  -0.00000   0.00000  -0.00000
   scf:   34    -3998.786707    -3998.786707    -3998.786708  0.000000 -3.940829  0.000001
     spin moment: S , {S} =    0.00000  -0.00000   0.00000  -0.00000

SCF Convergence by DM+H criterion
max |DM_out - DM_in|         :     0.0000001356
max |H_out - H_in|      (eV) :     0.0000008636
SCF cycle converged after 34 iterations

Using DM_out to compute the final energy and forces
No. of atoms with KB's overlaping orbs in proc 0. Max # of overlaps:      20     134

siesta: E_KS(eV) =            -3998.7867

siesta: E_KS - E_eggbox =     -3998.7867
     spin moment: S , {S} =    0.00000  -0.00000   0.00000  -0.00000

siesta: Atomic forces (eV/Ang):
     1    0.155062   -0.014301   -0.000000
     2   -0.035374    0.029710    0.000000
     3   -0.028080   -0.007737   -0.000000
     4    0.068933   -0.204542   -0.000000
     5    0.003242   -0.032892    0.000000
     6   -0.187823    0.018604    0.000000
     7    1.049308   -0.016345   -0.000000
     8   -0.644748    1.406891   -0.000000
     9    0.209180   -1.036361   -0.000000
    10   -0.154125    0.161246    0.000000
    11   -0.238939   -0.350960    0.000000
    12   -0.280998    0.054730    0.000000
    13   -0.124296   -0.013012    0.000000
    14    0.034721   -0.131271   -0.000000
    15    0.108041    0.106296    0.000000
    16   -0.035658   -0.053390   -0.000946
    17    0.068781   -0.094814   -0.000805
    18   -0.170721    0.037578    0.005216
    19    0.019614   -0.062359   -0.001436
    20    0.127769    0.083573   -0.000947
    21    0.031908   -0.029962   -0.007072
    22    0.039022    0.026590    0.103212
    23    0.000161    0.052005   -0.016755
    24    0.038311    0.057331   -0.082365
    25   -0.661501   -0.390208    0.001023
    26    3.457421   -0.301352    0.000523
    27    0.375121   -0.442396   -0.000553
    28   -0.179531    0.725108   -0.000071
    29    0.110550    0.180388   -0.000229
    30    1.352188    0.069754    0.000260
----------------------------------------
   Tot    4.507539   -0.172096   -0.000946
----------------------------------------
   Max    3.457421
   Res    0.478493    sqrt( Sum f_i^2 / 3N )
----------------------------------------
   Max    3.457421    constrained

Stress tensor Voigt[x,y,z,yz,xz,xy] (kbar):        0.15        0.80       -0.06       -0.02        0.00        0.30
(Free)E + p*V (eV/cell)    -3999.8271
Target enthalpy (eV/cell)    -3998.7867

siesta: Stress tensor (static) (eV/Ang**3):
         0.000092    0.000186    0.000001
         0.000186    0.000498   -0.000010
         0.000001   -0.000010   -0.000037

siesta: Pressure (static):         -0.29544296  kBar

siesta: Stress tensor (total) (eV/Ang**3):
         0.000092    0.000186    0.000001
         0.000186    0.000498   -0.000010
         0.000001   -0.000010   -0.000037

siesta: Pressure (total):         -0.29544296  kBar

siesta: Temp_ion =       0.000 K

siesta: Eigenvalues (eV):
ik =     1
  -22.9313  -22.9313  -22.3953  -22.3953  -21.7811  -21.7811  -21.3308  -21.3308  -21.1799  -21.1799
  -21.0692  -21.0692  -19.5429  -19.5429  -19.3940  -19.3940  -18.7542  -18.7542  -15.0488  -15.0488
  -14.1288  -14.1288  -13.7982  -13.7982  -13.6192  -13.6192  -13.1155  -13.1155  -13.0489  -13.0489
  -12.6832  -12.6832  -12.2919  -12.2919  -11.9458  -11.9458  -11.7516  -11.7516  -11.5352  -11.5352
  -11.1336  -11.1336  -10.6581  -10.6581  -10.3585  -10.3585   -9.5697   -9.5697   -9.3302   -9.3302
   -9.3029   -9.3029   -9.1169   -9.1169   -9.0708   -9.0708   -8.9514   -8.9514   -8.6419   -8.6419
   -8.4260   -8.4260   -8.3831   -8.3831   -8.2890   -8.2890   -8.0698   -8.0698   -8.0494   -8.0494
   -7.7449   -7.7449   -7.5340   -7.5340   -7.4509   -7.4509   -7.3196   -7.3196   -6.9831   -6.9831
   -6.9058   -6.9058   -6.7653   -6.7653   -6.5632   -6.5632   -6.3183   -6.3183   -6.3017   -6.3017
   -5.9464   -5.9464   -5.7329   -5.7329   -5.6904   -5.6904   -4.3641   -4.3641   -3.5175   -3.5175
   -2.7253   -2.7253   -2.3324   -2.3324   -2.2408   -2.2408   -2.1588   -2.1588   -2.0969   -2.0969
   -2.0121   -2.0121   -1.8541   -1.8541   -1.7361   -1.7361   -1.6647   -1.6647   -1.5551   -1.5551
   -1.1945   -1.1945   -0.7213   -0.7213   -0.4564   -0.4564   -0.3546   -0.3546   -0.1954   -0.1954
   -0.0268   -0.0268    0.0356    0.0356    0.2184    0.2184    0.4298    0.4298    0.4775    0.4775
    0.4945    0.4945    0.7103    0.7103    1.0718    1.0718    1.1311    1.1311    1.2440    1.2440
    1.4279    1.4279    1.5379    1.5379    1.7780    1.7780    1.9208    1.9208    2.0372    2.0372
    2.2998    2.2998    2.6696    2.6696    2.6948    2.6948    2.7232    2.7232    2.7775    2.7775
    2.9371    2.9371    2.9681    2.9681    3.1069    3.1069    3.2315    3.2315    3.2782    3.2782
    3.5265    3.5265    3.8782    3.8782    4.0643    4.0643    4.0758    4.0758    4.2054    4.2054
    4.3202    4.3202    4.5430    4.5431    4.5509    4.5509    4.7614    4.7614    4.9317    4.9317
    5.0372    5.0372    5.0764    5.0764    5.5403    5.5403    5.6211    5.6211    5.6669    5.6669
    5.7370    5.7370    6.0181    6.0181    6.0216    6.0216    6.1863    6.1863    6.1946    6.1946
    6.4927    6.4927    6.5555    6.5555    6.7919    6.7919    7.0122    7.0122    7.0712    7.0712
    7.1198    7.1198    7.3416    7.3416    7.5060    7.5060    7.8110    7.8110    7.8347    7.8347
    7.9488    7.9488    8.1054    8.1054    8.2317    8.2317    8.2402    8.2402    8.6474    8.6474
    8.7926    8.7926    8.8854    8.8854    8.9462    8.9462    9.1497    9.1497    9.5189    9.5189
    9.5784    9.5784    9.7094    9.7094    9.7681    9.7681    9.7814    9.7814    9.9060    9.9060
   10.1389   10.1389   10.3206   10.3206   10.6026   10.6026   10.8564   10.8564   10.9012   10.9012
   11.2587   11.2587   11.2803   11.2803   11.5338   11.5338   11.5699   11.5699   11.6100   11.6100
   11.8932   11.8932   12.1761   12.1761   12.2920   12.2920   12.3676   12.3676   12.6026   12.6026
   12.7944   12.7944   12.9144   12.9144   13.0104   13.0104   13.1425   13.1425   13.3297   13.3297
   13.3633   13.3633   13.5997   13.5997   14.4509   14.4509   14.6068   14.6068   14.6327   14.6327
   14.6781   14.6781   14.7979   14.7979   15.1355   15.1355   16.0772   16.0772   16.5462   16.5462
   16.6481   16.6481   16.7784   16.7784   16.9956   16.9956   17.1587   17.1587   17.3087   17.3087
   18.0881   18.0881   18.2224   18.2224   18.4465   18.4465   18.7005   18.7005   18.7203   18.7203
   18.7261   18.7261   19.5128   19.5128   19.7579   19.7579   19.9900   19.9900   20.2077   20.2077
   20.5860   20.5860   21.0623   21.0623   21.0866   21.0866   21.6874   21.6874   22.1736   22.1736
   22.2464   22.2464   22.8364   22.8364   22.8627   22.8627   23.0433   23.0433   23.8179   23.8179
   24.5688   24.5688   24.7072   24.7072   24.8006   24.8006   25.6707   25.6707   25.9313   25.9313
   26.0061   26.0061   26.4610   26.4610   26.5146   26.5146   27.7468   27.7468   28.0180   28.0180
   28.2895   28.2895   28.4558   28.4558   29.1115   29.1115   29.4629   29.4629   30.3343   30.3343
   30.7030   30.7030   30.7552   30.7552   30.8039   30.8039   31.2559   31.2559   31.5192   31.5192
   31.7316   31.7316   31.9074   31.9074   32.0488   32.0488   33.3378   33.3378   33.3595   33.3595
   33.6974   33.6974   34.0016   34.0016   34.4734   34.4734   34.7636   34.7636   34.8873   34.8873
   35.4546   35.4546   35.9691   35.9691   36.0172   36.0172   37.0417   37.0417   37.4682   37.4682
   37.5147   37.5147   37.6973   37.6973   38.0155   38.0155   38.4020   38.4020   38.4342   38.4342
   39.0877   39.0877   40.1163   40.1163   40.1611   40.1611   40.7232   40.7232   41.0915   41.0915
   41.5946   41.5946   41.7967   41.7967   41.8366   41.8366   43.2750   43.2750   43.3567   43.3567
   43.7787   43.7787   44.4553   44.4553   44.7902   44.7902   44.8452   44.8452   45.0428   45.0428
   45.4975   45.4975   45.7503   45.7503   45.8704   45.8704   46.4789   46.4789   46.8928   46.8928
   47.0642   47.0642   47.3935   47.3935   48.5044   48.5044   48.7728   48.7728   49.3720   49.3720
   49.6713   49.6713   50.1829   50.1829   50.1956   50.1956   50.3146   50.3146   50.3341   50.3341
   51.7071   51.7071   52.5358   52.5358   52.7017   52.7017   53.8367   53.8367   54.3242   54.3242
   54.7580   54.7580   54.8134   54.8134   55.9588   55.9588   56.0638   56.0638   56.1842   56.1842
   56.8219   56.8219   57.6391   57.6391   57.9568   57.9568   58.3631   58.3631   59.5538   59.5538
   59.9371   59.9371   61.0943   61.0943   61.6087   61.6087   62.8295   62.8295   63.2477   63.2477
   65.1541   65.1541   65.4349   65.4349   66.9441   66.9441   67.2512   67.2512   68.3209   68.3209
   68.3914   68.3914   70.5486   70.5486   71.8693   71.8693   76.4238   76.4238   88.6315   88.6315
   91.8505   91.8505   92.9397   92.9397   94.9737   94.9737   96.3781   96.3781  100.0537  100.0537
  100.6478  100.6478  102.4589  102.4589  114.2080  114.2080  118.3243  118.3243  123.1466  123.1466
  132.4400  132.4400  138.7014  138.7014
siesta: Fermi energy =      -3.940829 eV

siesta: Program's energy decomposition (eV):
siesta: Ebs     =     -1120.636123
siesta: Eions   =      3553.971015
siesta: Ena     =       374.984508
siesta: Ekin    =      2743.200011
siesta: Enl     =     -2522.828742
siesta: Eso     =        -0.004664
siesta: Edftu   =         0.000000
siesta: DEna    =        36.842401
siesta: DUscf   =        13.886789
siesta: DUext   =         0.000000
siesta: Exc     =     -1090.895997
siesta: eta*DQ  =         0.000000
siesta: Emadel  =         0.000000
siesta: Emeta   =         0.000000
siesta: Emolmec =         0.000000
siesta: Ekinion =         0.000000
siesta: Eharris =     -3998.786707
siesta: Etot    =     -3998.786707
siesta: FreeEng =     -3998.786708

siesta: Final energy (eV):
siesta:  Band Struct. =   -1120.636123
siesta:       Kinetic =    2743.200011
siesta:       Hartree =    7292.209556
siesta:       Edftu   =       0.000000
siesta:       Eso     =      -0.004664
siesta:    Ext. field =       0.000000
siesta:   Exch.-corr. =   -1090.895997
siesta:  Ion-electron =  -17032.500175
siesta:       Ion-ion =    4089.204560
siesta:       Ekinion =       0.000000
siesta:         Total =   -3998.786707
siesta:         Fermi =      -3.940829

siesta: Atomic forces (eV/Ang):
siesta:      1    0.155062   -0.014301   -0.000000
siesta:      2   -0.035374    0.029710    0.000000
siesta:      3   -0.028080   -0.007737   -0.000000
siesta:      4    0.068933   -0.204542   -0.000000
siesta:      5    0.003242   -0.032892    0.000000
siesta:      6   -0.187823    0.018604    0.000000
siesta:      7    1.049308   -0.016345   -0.000000
siesta:      8   -0.644748    1.406891   -0.000000
siesta:      9    0.209180   -1.036361   -0.000000
siesta:     10   -0.154125    0.161246    0.000000
siesta:     11   -0.238939   -0.350960    0.000000
siesta:     12   -0.280998    0.054730    0.000000
siesta:     13   -0.124296   -0.013012    0.000000
siesta:     14    0.034721   -0.131271   -0.000000
siesta:     15    0.108041    0.106296    0.000000
siesta:     16   -0.035658   -0.053390   -0.000946
siesta:     17    0.068781   -0.094814   -0.000805
siesta:     18   -0.170721    0.037578    0.005216
siesta:     19    0.019614   -0.062359   -0.001436
siesta:     20    0.127769    0.083573   -0.000947
siesta:     21    0.031908   -0.029962   -0.007072
siesta:     22    0.039022    0.026590    0.103212
siesta:     23    0.000161    0.052005   -0.016755
siesta:     24    0.038311    0.057331   -0.082365
siesta:     25   -0.661501   -0.390208    0.001023
siesta:     26    3.457421   -0.301352    0.000523
siesta:     27    0.375121   -0.442396   -0.000553
siesta:     28   -0.179531    0.725108   -0.000071
siesta:     29    0.110550    0.180388   -0.000229
siesta:     30    1.352188    0.069754    0.000260
siesta: ----------------------------------------
siesta:    Tot    4.507539   -0.172096   -0.000946

siesta: Stress tensor (static) (eV/Ang**3):
siesta:     0.000092    0.000186    0.000001
siesta:     0.000186    0.000498   -0.000010
siesta:     0.000001   -0.000010   -0.000037

siesta: Cell volume =       5642.093089 Ang**3

siesta: Pressure (static):
siesta:                Solid            Molecule  Units
siesta:          -0.00000201          0.00000115  Ry/Bohr**3
siesta:          -0.00018440          0.00010567  eV/Ang**3
siesta:          -0.29544296          0.16930292  kBar
(Free)E+ p_basis*V_orbitals  =       -3977.658623
(Free)Eharris+ p_basis*V_orbitals  =       -3977.658623
     spin moment: S , {S} =    0.00000  -0.00000   0.00000  -0.00000

siesta: Electric dipole (a.u.)  =   -1.250728    1.639104   -0.001786
siesta: Electric dipole (Debye) =   -3.179035    4.166190   -0.004538

cite: Please see "AT.bib" for an exhaustive BiBTeX file.
cite: Please clearly indicate Siesta version in published work: v4.1.5-1-g384057250
cite: This calculation has made use of the following articles
cite: which are encouraged to be cited in a published work.
        Primary SIESTA paper
          DOI: www.doi.org/10.1088/0953-8984/14/11/302
        Spin-orbit coupling (on-site approximation)
          DOI: www.doi.org/10.1088/0953-8984/19/19/489001


WARNING: alloc-realloc-dealloc name mismatch
         Name: atomlist isa
         Size:              -120. Bytes
         Node:     0
         Subsequent mismatches will not be reported
>> End of run:  16-OCT-2023  21:10:45
Job completed
