Siesta Version  : v4.1.5-1-g384057250
Architecture    : gcc
Compiler version: GNU Fortran (Debian 12.2.0-14) 12.2.0
Compiler flags  : mpifort -O2 -fPIC -ftree-vectorize -fallow-argument-mismatch
PP flags        : -DFC_HAVE_ABORT -DMPI -DSIESTA__FLOOK -DSIESTA__METIS -DSIESTA__MUMPS -DCDF -DNCDF -DNCDF_4 -DNCDF_PARALLEL -DSIESTA__MRRR -DSIESTA__ELPA
Libraries       : libncdf.a libfdict.a  -lflookall -ldl -lnetcdff -lnetcdf -lz -lscalapack-openmpi -lopenblas -lmetis -lzmumps -lcmumps -ldmumps -lmumps_common -lpord -lsmumps -lesmumps -lscotch -lscotcherr -fopenmp -lelpa
PARALLEL version
NetCDF support
NetCDF-4 support
NetCDF-4 MPI-IO support
METIS ordering support
Lua support

* Running on 32 nodes in parallel
>> Start of run:  16-OCT-2023  20:53:26

                           ***********************       
                           *  WELCOME TO SIESTA  *       
                           ***********************       

reinit: Reading from standard input
reinit: Dumped input in INPUT_TMP.20901
************************** Dump of input data file ****************************
# mpirun -np 4 siesta-4.1.5 < AT.fdf > AT.out &
SystemLabel      AT
NumberOfAtoms    30
NumberOfSpecies  4
%block ChemicalSpeciesLabel
    1    1  H
    2    7  N
    3   14  Si
    4    8  O
%endblock ChemicalSpeciesLabel
############################################
# This overrides Defaults.fdf configuration
############################################
MD.TypeOfRun                Verlet # CG, Verlet
MD.Steps                    0
MaxSCFIterations            300
AtomicCoordinatesFormat NotScaledCartesianAng
%block AtomicCoordinatesAndAtomicSpecies
    2.28494382 -5.19529124 0.0  1  1  H
    1.37433094 -4.6647107 0.0  2  2  N
    -0.21830245 -5.49458215 0.0  3  3  Si
    -0.17484108 -6.98516892 0.0  1  4  H
    -1.66171682 -4.58600741 0.0  2  5  N
    -1.09026419 -2.87456374 0.0  3  6  Si
    -1.53038332 -0.70765692 0.0  3  7  Si
    -3.14415959 -0.09186471 0.0  2  8  N
    -3.40268075 0.95848335 0.0  1  9  H
    -3.95073599 -0.76720972 0.0  1  10  H
    -0.17836637 0.41349951 0.0  2  11  N
    1.49520211 -0.0473996 0.0  3  12  Si
    2.45603905 1.10727302 0.0  1  13  H
    2.30451743 -1.58574382 0.0  2  14  N
    1.10725559 -2.84610319 0.0  3  15  Si
    0.2111938332216144 10.12207487781618 0.0  1  16  H
    -0.5975168467783856 9.42986899781618 0.0  2  17  N
    -2.2541066867783854 10.14298909781618 0.0  3  18  Si
    -2.1572415167783854 11.65371430781618 0.0  1  19  H
    -3.9802630367783856 8.79994096781618 0.0  3  20  Si
    -6.334717286778385 8.791954037816181 0.0  3  21  Si
    -6.897135406778386 9.52644368781618 -1.20183078  1  22  H
    -6.634531036778386 7.31286290781618 -0.08618332  1  23  H
    -6.897247866778385 9.35678649781618 1.28814761  1  24  H
    -3.0508723967783857 6.72936973781618 0.0  3  25  Si
    -4.000340756778385 5.44083360781618 0.0  4  26  O
    -1.2599275267783856 6.55563426781618 0.0  2  27  N
    -0.9289361667783855 5.52327728781618 0.0  1  28  H
    0.04853069322161435 7.750180687816179 0.0  3  29  Si
    1.6144676232216142 7.48293383781618 0.0  4  30  O
%endblock AtomicCoordinatesAndAtomicSpecies
%include ../../../../Defaults.fdf
************************** End of input data file *****************************

reinit: -----------------------------------------------------------------------
reinit: System Name: 
reinit: -----------------------------------------------------------------------
reinit: System Label: AT
reinit: -----------------------------------------------------------------------

initatom: Reading input for the pseudopotentials and atomic orbitals ----------
Species number:   1 Atomic number:    1 Label: H
Species number:   2 Atomic number:    7 Label: N
Species number:   3 Atomic number:   14 Label: Si
Species number:   4 Atomic number:    8 Label: O

Ground state valence configuration:   1s01
Reading pseudopotential information in formatted form from H.psf

Pseudopotential generated from a relativistic atomic calculation

Valence configuration for pseudopotential generation:
1s( 1.00) rc: 0.01
2p( 0.00) rc: 0.60
3d( 0.00) rc: 1.99
4f( 0.00) rc: 2.49
Ground state valence configuration:   2s02  2p03
Reading pseudopotential information in formatted form from N.psf

Pseudopotential generated from a relativistic atomic calculation

Valence configuration for pseudopotential generation:
2s( 2.00) rc: 0.94
2p( 3.00) rc: 0.59
3d( 0.00) rc: 3.46
4f( 0.00) rc: 2.47
Ground state valence configuration:   3s02  3p02
Reading pseudopotential information in formatted form from Si.psf

Pseudopotential generated from a relativistic atomic calculation

Valence configuration for pseudopotential generation:
3s( 2.00) rc: 1.67
3p( 2.00) rc: 2.04
3d( 0.00) rc: 2.89
4f( 0.00) rc: 2.49
Ground state valence configuration:   2s02  2p04
Reading pseudopotential information in formatted form from O.psf

Pseudopotential generated from a relativistic atomic calculation

Valence configuration for pseudopotential generation:
2s( 2.00) rc: 0.45
2p( 4.00) rc: 0.92
3d( 0.00) rc: 2.24
4f( 0.00) rc: 0.25
For H, standard SIESTA heuristics set lmxkb to 2
 (one more than the basis l, including polarization orbitals).
Use PS.lmax or PS.KBprojectors blocks to override.
For N, standard SIESTA heuristics set lmxkb to 3
 (one more than the basis l, including polarization orbitals).
Use PS.lmax or PS.KBprojectors blocks to override.
For Si, standard SIESTA heuristics set lmxkb to 3
 (one more than the basis l, including polarization orbitals).
Use PS.lmax or PS.KBprojectors blocks to override.
For O, standard SIESTA heuristics set lmxkb to 3
 (one more than the basis l, including polarization orbitals).
Use PS.lmax or PS.KBprojectors blocks to override.

<basis_specs>
===============================================================================
H                    Z=   1    Mass=  1.0100        Charge= 0.17977+309
Lmxo=0 Lmxkb= 2    BasisType=split      Semic=F
L=0  Nsemic=0  Cnfigmx=1
          i=1  nzeta=2  polorb=1  (1s)
            splnorm:   0.62000    
               vcte:    0.0000    
               rinn:    0.0000    
               qcoe:    0.0000    
               qyuk:    0.0000    
               qwid:   0.10000E-01
                rcs:    0.0000      0.0000    
            lambdas:    1.0000      1.0000    
-------------------------------------------------------------------------------
L=0  Nkbl=1  erefs: 0.17977+309
L=1  Nkbl=1  erefs: 0.17977+309
L=2  Nkbl=1  erefs: 0.17977+309
===============================================================================
</basis_specs>

atom: Called for H                     (Z =   1)

read_vps: Pseudopotential generation method:
read_vps: ATM4.2.7  Troullier-Martins                       
Valence charge for ps generation:    1.00000

xc_check: Exchange-correlation functional:
xc_check: GGA Perdew, Burke & Ernzerhof 1996
V l=0 = -2*Zval/r beyond r=  0.0098
V l=1 = -2*Zval/r beyond r=  0.5817
V l=2 = -2*Zval/r beyond r=  1.9372
All V_l potentials equal beyond r=  1.9372
This should be close to max(r_c) in ps generation
All pots = -2*Zval/r beyond r=  1.9372

VLOCAL1: 99.0% of the norm of Vloc inside     11.567 Ry
VLOCAL1: 99.9% of the norm of Vloc inside     26.362 Ry
atom: Maximum radius for 4*pi*r*r*local-pseudopot. charge    2.25106
atom: Maximum radius for r*vlocal+2*Zval:    1.91306
GHOST: No ghost state for L =  0
GHOST: No ghost state for L =  1
GHOST: No ghost state for L =  2

KBgen: Kleinman-Bylander projectors: 
   l= 0   rc=  2.036604   el= -0.477180   Ekb= -6.081590   kbcos= -0.277285
   l= 1   rc=  2.195416   el=  0.001076   Ekb= -0.926943   kbcos= -0.034643
   l= 2   rc=  2.251056   el=  0.002010   Ekb= -0.130941   kbcos= -0.009788

KBgen: Total number of Kleinman-Bylander projectors:    9
atom: -------------------------------------------------------------------------

atom: SANKEY-TYPE ORBITALS:
atom: Selected multiple-zeta basis: split     

SPLIT: Orbitals with angular momentum L= 0

SPLIT: Basis orbitals for state 1s

SPLIT: PAO cut-off radius determined from an
SPLIT: energy shift=  0.002000 Ry

   izeta = 1
                 lambda =    1.000000
                     rc =    6.518340
                 energy =   -0.475305
                kinetic =    0.912139
    potential(screened) =   -1.387444
       potential(ionic) =   -1.907295

   izeta = 2
                 rmatch =    2.141150
              splitnorm =    0.620000
                 energy =    0.566467
                kinetic =    3.772856
    potential(screened) =   -3.206389
       potential(ionic) =   -3.759093

POLgen: Perturbative polarization orbital with L=  1

POLgen: Polarization orbital for state 1s

   izeta = 1
                     rc =    6.518340
                 energy =    0.533861
                kinetic =    1.121086
    potential(screened) =   -0.587225
       potential(ionic) =   -1.053027
atom: Total number of Sankey-type orbitals:  5

atm_pop: Valence configuration (for local Pseudopot. screening):
 1s( 1.00)                                                            
Vna: chval, zval:    1.00000   1.00000

Vna:  Cut-off radius for the neutral-atom potential:   6.518340

atom: _________________________________________________________________________

<basis_specs>
===============================================================================
N                    Z=   7    Mass=  14.010        Charge= 0.17977+309
Lmxo=1 Lmxkb= 3    BasisType=split      Semic=F
L=0  Nsemic=0  Cnfigmx=2
          i=1  nzeta=2  polorb=0  (2s)
            splnorm:   0.28000    
               vcte:    0.0000    
               rinn:    0.0000    
               qcoe:    0.0000    
               qyuk:    0.0000    
               qwid:   0.10000E-01
                rcs:    0.0000      0.0000    
            lambdas:    1.0000      1.0000    
L=1  Nsemic=0  Cnfigmx=2
          i=1  nzeta=2  polorb=1  (2p)
            splnorm:   0.28000    
               vcte:    0.0000    
               rinn:    0.0000    
               qcoe:    0.0000    
               qyuk:    0.0000    
               qwid:   0.10000E-01
                rcs:    0.0000      0.0000    
            lambdas:    1.0000      1.0000    
-------------------------------------------------------------------------------
L=0  Nkbl=1  erefs: 0.17977+309
L=1  Nkbl=1  erefs: 0.17977+309
L=2  Nkbl=1  erefs: 0.17977+309
L=3  Nkbl=1  erefs: 0.17977+309
===============================================================================
</basis_specs>

atom: Called for N                     (Z =   7)

read_vps: Pseudopotential generation method:
read_vps: ATM4.2.7  Troullier-Martins                       
Valence charge for ps generation:    5.00000

xc_check: Exchange-correlation functional:
xc_check: GGA Perdew, Burke & Ernzerhof 1996
V l=0 = -2*Zval/r beyond r=  1.2889
V l=1 = -2*Zval/r beyond r=  1.2889
V l=2 = -2*Zval/r beyond r=  3.4178
V l=3 = -2*Zval/r beyond r=  2.4084
All V_l potentials equal beyond r=  3.3753
This should be close to max(r_c) in ps generation
All pots = -2*Zval/r beyond r=  3.4178

VLOCAL1: 99.0% of the norm of Vloc inside      3.810 Ry
VLOCAL1: 99.9% of the norm of Vloc inside      8.683 Ry
atom: Maximum radius for 4*pi*r*r*local-pseudopot. charge    4.02088
atom: Maximum radius for r*vlocal+2*Zval:    3.54838
GHOST: No ghost state for L =  0
GHOST: No ghost state for L =  1
GHOST: No ghost state for L =  2
GHOST: No ghost state for L =  3

KBgen: Kleinman-Bylander projectors: 
   l= 0   rc=  3.417763   el= -1.365098   Ekb= -4.433130   kbcos= -0.707855
   l= 1   rc=  3.375302   el= -0.521201   Ekb=-13.264039   kbcos= -0.535594
   l= 2   rc=  3.872880   el=  0.001991   Ekb= -0.641094   kbcos= -0.062456
   l= 3   rc=  3.970931   el=  0.003093   Ekb= -0.474517   kbcos= -0.018236

KBgen: Total number of Kleinman-Bylander projectors:   16
atom: -------------------------------------------------------------------------

atom: SANKEY-TYPE ORBITALS:
atom: Selected multiple-zeta basis: split     

SPLIT: Orbitals with angular momentum L= 0

SPLIT: Basis orbitals for state 2s

SPLIT: PAO cut-off radius determined from an
SPLIT: energy shift=  0.002000 Ry

   izeta = 1
                 lambda =    1.000000
                     rc =    4.730425
                 energy =   -1.363399
                kinetic =    1.245246
    potential(screened) =   -2.608645
       potential(ionic) =   -8.121105

   izeta = 2
                 rmatch =    2.531849
              splitnorm =    0.280000
                 energy =   -0.959908
                kinetic =    2.409435
    potential(screened) =   -3.369343
       potential(ionic) =   -9.427975

SPLIT: Orbitals with angular momentum L= 1

SPLIT: Basis orbitals for state 2p

SPLIT: PAO cut-off radius determined from an
SPLIT: energy shift=  0.002000 Ry

   izeta = 1
                 lambda =    1.000000
                     rc =    5.924108
                 energy =   -0.519262
                kinetic =    3.672940
    potential(screened) =   -4.192202
       potential(ionic) =   -9.518354

   izeta = 2
                 rmatch =    2.531849
              splitnorm =    0.280000
                 energy =   -0.104258
                kinetic =    6.807538
    potential(screened) =   -6.911796
       potential(ionic) =  -13.149920

POLgen: Perturbative polarization orbital with L=  2

POLgen: Polarization orbital for state 2p

   izeta = 1
                     rc =    5.924108
                 energy =    1.427508
                kinetic =    2.872379
    potential(screened) =   -1.444871
       potential(ionic) =   -5.563644
atom: Total number of Sankey-type orbitals: 13

atm_pop: Valence configuration (for local Pseudopot. screening):
 2s( 2.00)                                                            
 2p( 3.00)                                                            
Vna: chval, zval:    5.00000   5.00000

Vna:  Cut-off radius for the neutral-atom potential:   5.924108

atom: _________________________________________________________________________

<basis_specs>
===============================================================================
Si                   Z=  14    Mass=  28.090        Charge= 0.17977+309
Lmxo=1 Lmxkb= 3    BasisType=split      Semic=F
L=0  Nsemic=0  Cnfigmx=3
          i=1  nzeta=2  polorb=0  (3s)
            splnorm:   0.28000    
               vcte:    0.0000    
               rinn:    0.0000    
               qcoe:    0.0000    
               qyuk:    0.0000    
               qwid:   0.10000E-01
                rcs:    0.0000      0.0000    
            lambdas:    1.0000      1.0000    
L=1  Nsemic=0  Cnfigmx=3
          i=1  nzeta=2  polorb=1  (3p)
            splnorm:   0.28000    
               vcte:    0.0000    
               rinn:    0.0000    
               qcoe:    0.0000    
               qyuk:    0.0000    
               qwid:   0.10000E-01
                rcs:    0.0000      0.0000    
            lambdas:    1.0000      1.0000    
-------------------------------------------------------------------------------
L=0  Nkbl=1  erefs: 0.17977+309
L=1  Nkbl=1  erefs: 0.17977+309
L=2  Nkbl=1  erefs: 0.17977+309
L=3  Nkbl=1  erefs: 0.17977+309
===============================================================================
</basis_specs>

atom: Called for Si                    (Z =  14)

read_vps: Pseudopotential generation method:
read_vps: ATM4.2.7  Troullier-Martins                       
Valence charge for ps generation:    4.00000

xc_check: Exchange-correlation functional:
xc_check: GGA Perdew, Burke & Ernzerhof 1996
V l=0 = -2*Zval/r beyond r=  2.7826
V l=1 = -2*Zval/r beyond r=  2.7826
V l=2 = -2*Zval/r beyond r=  2.9253
V l=3 = -2*Zval/r beyond r=  2.7826
All V_l potentials equal beyond r=  2.8530
This should be close to max(r_c) in ps generation
All pots = -2*Zval/r beyond r=  2.9253

VLOCAL1: 99.0% of the norm of Vloc inside      5.333 Ry
VLOCAL1: 99.9% of the norm of Vloc inside     12.154 Ry
atom: Maximum radius for 4*pi*r*r*local-pseudopot. charge    3.39869
atom: Maximum radius for r*vlocal+2*Zval:    2.96205
GHOST: No ghost state for L =  0
GHOST: No ghost state for L =  1
GHOST: No ghost state for L =  2
GHOST: No ghost state for L =  3

KBgen: Kleinman-Bylander projectors: 
   l= 0   rc=  3.075247   el= -0.794092   Ekb=  5.879390   kbcos=  0.167461
   l= 1   rc=  3.153101   el= -0.300068   Ekb=  2.642817   kbcos=  0.058301
   l= 2   rc=  3.273594   el=  0.001958   Ekb= -1.185135   kbcos= -0.104411
   l= 3   rc=  3.232927   el=  0.003046   Ekb= -0.497174   kbcos= -0.015889

KBgen: Total number of Kleinman-Bylander projectors:   16
atom: -------------------------------------------------------------------------

atom: SANKEY-TYPE ORBITALS:
atom: Selected multiple-zeta basis: split     

SPLIT: Orbitals with angular momentum L= 0

SPLIT: Basis orbitals for state 3s

SPLIT: PAO cut-off radius determined from an
SPLIT: energy shift=  0.002000 Ry

   izeta = 1
                 lambda =    1.000000
                     rc =    6.429618
                 energy =   -0.792283
                kinetic =    0.525293
    potential(screened) =   -1.317576
       potential(ionic) =   -3.744923

   izeta = 2
                 rmatch =    3.998416
              splitnorm =    0.280000
                 energy =   -0.583081
                kinetic =    1.069570
    potential(screened) =   -1.652651
       potential(ionic) =   -4.235185

SPLIT: Orbitals with angular momentum L= 1

SPLIT: Basis orbitals for state 3p

SPLIT: PAO cut-off radius determined from an
SPLIT: energy shift=  0.002000 Ry

   izeta = 1
                 lambda =    1.000000
                     rc =    8.464845
                 energy =   -0.298236
                kinetic =    0.785360
    potential(screened) =   -1.083596
       potential(ionic) =   -3.273779

   izeta = 2
                 rmatch =    4.587816
              splitnorm =    0.280000
                 energy =   -0.131871
                kinetic =    1.403687
    potential(screened) =   -1.535557
       potential(ionic) =   -4.015310

POLgen: Perturbative polarization orbital with L=  2

POLgen: Polarization orbital for state 3p

   izeta = 1
                     rc =    8.464845
                 energy =    0.321949
                kinetic =    1.055677
    potential(screened) =   -0.733728
       potential(ionic) =   -2.672950
atom: Total number of Sankey-type orbitals: 13

atm_pop: Valence configuration (for local Pseudopot. screening):
 3s( 2.00)                                                            
 3p( 2.00)                                                            
Vna: chval, zval:    4.00000   4.00000

Vna:  Cut-off radius for the neutral-atom potential:   8.464845

atom: _________________________________________________________________________

<basis_specs>
===============================================================================
O                    Z=   8    Mass=  16.000        Charge= 0.17977+309
Lmxo=1 Lmxkb= 3    BasisType=split      Semic=F
L=0  Nsemic=0  Cnfigmx=2
          i=1  nzeta=2  polorb=0  (2s)
            splnorm:   0.28000    
               vcte:    0.0000    
               rinn:    0.0000    
               qcoe:    0.0000    
               qyuk:    0.0000    
               qwid:   0.10000E-01
                rcs:    0.0000      0.0000    
            lambdas:    1.0000      1.0000    
L=1  Nsemic=0  Cnfigmx=2
          i=1  nzeta=2  polorb=1  (2p)
            splnorm:   0.28000    
               vcte:    0.0000    
               rinn:    0.0000    
               qcoe:    0.0000    
               qyuk:    0.0000    
               qwid:   0.10000E-01
                rcs:    0.0000      0.0000    
            lambdas:    1.0000      1.0000    
-------------------------------------------------------------------------------
L=0  Nkbl=1  erefs: 0.17977+309
L=1  Nkbl=1  erefs: 0.17977+309
L=2  Nkbl=1  erefs: 0.17977+309
L=3  Nkbl=1  erefs: 0.17977+309
===============================================================================
</basis_specs>

atom: Called for O                     (Z =   8)

read_vps: Pseudopotential generation method:
read_vps: ATM4.2.7  Troullier-Martins                       
Valence charge for ps generation:    6.00000

xc_check: Exchange-correlation functional:
xc_check: GGA Perdew, Burke & Ernzerhof 1996
V l=0 = -2*Zval/r beyond r=  1.1000
V l=1 = -2*Zval/r beyond r=  1.1000
V l=2 = -2*Zval/r beyond r=  2.2154
V l=3 = -2*Zval/r beyond r=  1.1000
All V_l potentials equal beyond r=  2.2154
This should be close to max(r_c) in ps generation
All pots = -2*Zval/r beyond r=  2.2154

VLOCAL1: 99.0% of the norm of Vloc inside      8.845 Ry
VLOCAL1: 99.9% of the norm of Vloc inside     20.157 Ry
atom: Maximum radius for 4*pi*r*r*local-pseudopot. charge    2.67231
atom: Maximum radius for r*vlocal+2*Zval:    2.32897
GHOST: No ghost state for L =  0
GHOST: No ghost state for L =  1
GHOST: No ghost state for L =  2
GHOST: No ghost state for L =  3

KBgen: Kleinman-Bylander projectors: 
   l= 0   rc=  2.243238   el= -1.759686   Ekb=**********   kbcos= -0.171774
   l= 1   rc=  2.328968   el= -0.663873   Ekb=-14.506792   kbcos= -0.519897
   l= 2   rc=  2.573941   el=  0.002031   Ekb= -1.137373   kbcos= -0.019581
   l= 3   rc=  2.606321   el=  0.003153   Ekb= -1.013546   kbcos= -0.003122

KBgen: Total number of Kleinman-Bylander projectors:   16
atom: -------------------------------------------------------------------------

atom: SANKEY-TYPE ORBITALS:
atom: Selected multiple-zeta basis: split     

SPLIT: Orbitals with angular momentum L= 0

SPLIT: Basis orbitals for state 2s

SPLIT: PAO cut-off radius determined from an
SPLIT: energy shift=  0.002000 Ry

   izeta = 1
                 lambda =    1.000000
                     rc =    4.243912
                 energy =   -1.758270
                kinetic =    3.286084
    potential(screened) =   -5.044353
       potential(ionic) =  -12.921184

   izeta = 2
                 rmatch =    2.187845
              splitnorm =    0.280000
                 energy =   -0.885018
                kinetic =    8.134434
    potential(screened) =   -9.019452
       potential(ionic) =  -17.710645

SPLIT: Orbitals with angular momentum L= 1

SPLIT: Basis orbitals for state 2p

SPLIT: PAO cut-off radius determined from an
SPLIT: energy shift=  0.002000 Ry

   izeta = 1
                 lambda =    1.000000
                     rc =    5.314825
                 energy =   -0.661986
                kinetic =    4.917472
    potential(screened) =   -5.579458
       potential(ionic) =  -13.236259

   izeta = 2
                 rmatch =    2.160663
              splitnorm =    0.280000
                 energy =   -0.068760
                kinetic =    9.183374
    potential(screened) =   -9.252135
       potential(ionic) =  -18.274251

POLgen: Perturbative polarization orbital with L=  2

POLgen: Polarization orbital for state 2p

   izeta = 1
                     rc =    5.314825
                 energy =    1.970580
                kinetic =    3.886128
    potential(screened) =   -1.915547
       potential(ionic) =   -7.749584
atom: Total number of Sankey-type orbitals: 13

atm_pop: Valence configuration (for local Pseudopot. screening):
 2s( 2.00)                                                            
 2p( 4.00)                                                            
Vna: chval, zval:    6.00000   6.00000

Vna:  Cut-off radius for the neutral-atom potential:   5.314825

atom: _________________________________________________________________________

prinput: Basis input ----------------------------------------------------------

PAO.BasisType split     

%block ChemicalSpeciesLabel
    1    1 H                       # Species index, atomic number, species label
    2    7 N                       # Species index, atomic number, species label
    3   14 Si                      # Species index, atomic number, species label
    4    8 O                       # Species index, atomic number, species label
%endblock ChemicalSpeciesLabel

%block PAO.Basis                 # Define Basis set
H                     1                    # Species label, number of l-shells
 n=1   0   2 P   1                   # n, l, Nzeta, Polarization, NzetaPol
   6.518      2.141   
   1.000      1.000   
N                     2                    # Species label, number of l-shells
 n=2   0   2                         # n, l, Nzeta 
   4.730      2.532   
   1.000      1.000   
 n=2   1   2 P   1                   # n, l, Nzeta, Polarization, NzetaPol
   5.924      2.532   
   1.000      1.000   
Si                    2                    # Species label, number of l-shells
 n=3   0   2                         # n, l, Nzeta 
   6.430      3.998   
   1.000      1.000   
 n=3   1   2 P   1                   # n, l, Nzeta, Polarization, NzetaPol
   8.465      4.588   
   1.000      1.000   
O                     2                    # Species label, number of l-shells
 n=2   0   2                         # n, l, Nzeta 
   4.244      2.188   
   1.000      1.000   
 n=2   1   2 P   1                   # n, l, Nzeta, Polarization, NzetaPol
   5.315      2.161   
   1.000      1.000   
%endblock PAO.Basis

prinput: ----------------------------------------------------------------------

Dumping basis to NetCDF file H.ion.nc
Dumping basis to NetCDF file N.ion.nc
Dumping basis to NetCDF file Si.ion.nc
Dumping basis to NetCDF file O.ion.nc
coor:   Atomic-coordinates input format  =     Cartesian coordinates
coor:                                          (in Angstroms)

siesta: Atomic coordinates (Bohr) and species
siesta:      4.31792  -9.81768   0.00000  1        1
siesta:      2.59711  -8.81503   0.00000  2        2
siesta:     -0.41253 -10.38326   0.00000  3        3
siesta:     -0.33040 -13.20006   0.00000  1        4
siesta:     -3.14019  -8.66630   0.00000  2        5
siesta:     -2.06030  -5.43214   0.00000  3        6
siesta:     -2.89201  -1.33728   0.00000  3        7
siesta:     -5.94160  -0.17360   0.00000  2        8
siesta:     -6.43014   1.81127   0.00000  1        9
siesta:     -7.46581  -1.44982   0.00000  1       10
siesta:     -0.33706   0.78140   0.00000  2       11
siesta:      2.82552  -0.08957   0.00000  3       12
siesta:      4.64124   2.09244   0.00000  1       13
siesta:      4.35491  -2.99662   0.00000  2       14
siesta:      2.09241  -5.37836   0.00000  3       15
siesta:      0.39910  19.12796   0.00000  1       16
siesta:     -1.12914  17.81988   0.00000  2       17
siesta:     -4.25965  19.16748   0.00000  3       18
siesta:     -4.07660  22.02234   0.00000  1       19
siesta:     -7.52161  16.62948   0.00000  3       20
siesta:    -11.97089  16.61439   0.00000  3       21
siesta:    -13.03370  18.00238  -2.27113  1       22
siesta:    -12.53745  13.81931  -0.16286  1       23
siesta:    -13.03391  17.68177   2.43425  1       24
siesta:     -5.76532  12.71667   0.00000  3       25
siesta:     -7.55955  10.28169   0.00000  4       26
siesta:     -2.38092  12.38836   0.00000  2       27
siesta:     -1.75544  10.43749   0.00000  1       28
siesta:      0.09171  14.64572   0.00000  3       29
siesta:      3.05090  14.14070   0.00000  4       30

siesta: Automatic unit cell vectors (Ang):
siesta:   18.467595    0.000000    0.000000
siesta:    0.000000   28.091354    0.000000
siesta:    0.000000    0.000000   10.327559

siesta: System type = molecule  

initatomlists: Number of atoms, orbitals, and projectors:     30   302   403

siesta: ******************** Simulation parameters ****************************
siesta:
siesta: The following are some of the parameters of the simulation.
siesta: A complete list of the parameters used, including default values,
siesta: can be found in file out.fdf
siesta:
redata: Spin configuration                          = spin-orbit
redata: Number of spin components                   = 8
redata: Time-Reversal Symmetry                      = F
redata: Spin spiral                                 = F
############################################################
This spin-orbit implementation uses a local approximation.
From 4.2 and onwards the full non-local approximation is implemented
You are strongly advised to use >=4.2 versions!
############################################################
redata: Long output                                 =   F
redata: Number of Atomic Species                    =        4
redata: Charge density info will appear in .RHO file
redata: Write Mulliken Pop.                         = NO
redata: Matel table size (NRTAB)                    =     1024
redata: Mesh Cutoff                                 =   340.0000 Ry
redata: Net charge of the system                    =     0.0000 |e|
redata: Min. number of SCF Iter                     =        1
redata: Max. number of SCF Iter                     =      300
redata: SCF convergence failure will abort job
redata: SCF mix quantity                            = Hamiltonian
redata: Mix DM or H after convergence               =   F
redata: Recompute H after scf cycle                 =   F
redata: Mix DM in first SCF step                    =   T
redata: Write Pulay info on disk                    =   F
redata: New DM Occupancy tolerance                  = 0.000000000001
redata: No kicks to SCF
redata: DM Mixing Weight for Kicks                  =     0.5000
redata: Require Harris convergence for SCF          =   F
redata: Harris energy tolerance for SCF             =     0.000100 eV
redata: Require DM convergence for SCF              =   T
redata: DM tolerance for SCF                        =     0.000008
redata: Require EDM convergence for SCF             =   F
redata: EDM tolerance for SCF                       =     0.001000 eV
redata: Require H convergence for SCF               =   T
redata: Hamiltonian tolerance for SCF               =     0.000001 eV
redata: Require (free) Energy convergence for SCF   =   F
redata: (free) Energy tolerance for SCF             =     0.000100 eV
redata: Using Saved Data (generic)                  =   F
redata: Use continuation files for DM               =   T
redata: Neglect nonoverlap interactions             =   F
redata: Method of Calculation                       = Diagonalization
redata: Electronic Temperature                      =   299.9978 K
redata: Fix the spin of the system                  =   F
redata: Dynamics option                             = Verlet MD run
redata: Initial MD time step                        =        1
redata:   Final MD time step                        =        1
redata: Length of MD time step                      =     0.5000 fs
redata: Initial Temperature of MD run               =     0.0000 K
redata: Perform a MD quench                         =   F
mix.SCF: Pulay mixing                            = Pulay
mix.SCF:    Variant                              = stable
mix.SCF:    History steps                        = 6
mix.SCF:    Linear mixing weight                 =     0.250000
mix.SCF:    Mixing weight                        =     0.250000
mix.SCF:    SVD condition                        = 0.1000E-07
mix.SCF:    Restart steps                        = 24
mix.SCF:    Restart save steps                   = 3
mix.SCF: Spin-component mixing                   all
redata: Save all siesta data in one NC              =   F
redata: ***********************************************************************

%block SCF.Mixers
  Pulay
%endblock SCF.Mixers

%block SCF.Mixer.Pulay
  # Mixing method
  method pulay
  variant stable

  # Mixing options
  weight 0.2500
  weight.linear 0.2500
  history 6
  restart 24
  restart.save 3
%endblock SCF.Mixer.Pulay

Size of DM history Fstack: 3
Total number of electrons:    98.000000
Total ionic charge:    98.000000

* ProcessorY, Blocksize:    4   9


* Orbital distribution balance (max,min):    18     9


Time-reversal symmetry not used.

siesta: k-grid: Number of k-points =     1
siesta: k-grid: Cutoff (effective) =     5.164 Ang
siesta: k-grid: Supercell and displacements
siesta: k-grid:    1   0   0      0.000
siesta: k-grid:    0   1   0      0.000
siesta: k-grid:    0   0   1      0.000

diag: Algorithm                                     = ELPA-1stage
diag: Parallel over k                               =   F
diag: Use parallel 2D distribution                  =   T
diag: Parallel block-size                           = 9
diag: Parallel distribution                         =     4 x     8
diag: Used triangular part                          = Lower
diag: Absolute tolerance                            =  0.100E-15
diag: Orthogonalization factor                      =  0.100E-05
diag: Memory factor                                 =  1.0000


ts: **************************************************************
ts: Save H and S matrices                           =    F
ts: Save DM and EDM matrices                        =    F
ts: Only save the overlap matrix S                  =    F
ts: **************************************************************

************************ Begin: TS CHECKS AND WARNINGS ************************
************************ End: TS CHECKS AND WARNINGS **************************


                     ====================================
                        Begin MD step =      1
                     ====================================

outcoor: Atomic coordinates (Ang):                          
    2.28494382   -5.19529124    0.00000000   1       1  H
    1.37433094   -4.66471070    0.00000000   2       2  N
   -0.21830245   -5.49458215    0.00000000   3       3  Si
   -0.17484108   -6.98516892    0.00000000   1       4  H
   -1.66171682   -4.58600741    0.00000000   2       5  N
   -1.09026419   -2.87456374    0.00000000   3       6  Si
   -1.53038332   -0.70765692    0.00000000   3       7  Si
   -3.14415959   -0.09186471    0.00000000   2       8  N
   -3.40268075    0.95848335    0.00000000   1       9  H
   -3.95073599   -0.76720972    0.00000000   1      10  H
   -0.17836637    0.41349951    0.00000000   2      11  N
    1.49520211   -0.04739960    0.00000000   3      12  Si
    2.45603905    1.10727302    0.00000000   1      13  H
    2.30451743   -1.58574382    0.00000000   2      14  N
    1.10725559   -2.84610319    0.00000000   3      15  Si
    0.21119383   10.12207488    0.00000000   1      16  H
   -0.59751685    9.42986900    0.00000000   2      17  N
   -2.25410669   10.14298910    0.00000000   3      18  Si
   -2.15724152   11.65371431    0.00000000   1      19  H
   -3.98026304    8.79994097    0.00000000   3      20  Si
   -6.33471729    8.79195404    0.00000000   3      21  Si
   -6.89713541    9.52644369   -1.20183078   1      22  H
   -6.63453104    7.31286291   -0.08618332   1      23  H
   -6.89724787    9.35678650    1.28814761   1      24  H
   -3.05087240    6.72936974    0.00000000   3      25  Si
   -4.00034076    5.44083361    0.00000000   4      26  O
   -1.25992753    6.55563427    0.00000000   2      27  N
   -0.92893617    5.52327729    0.00000000   1      28  H
    0.04853069    7.75018069    0.00000000   3      29  Si
    1.61446762    7.48293384    0.00000000   4      30  O

outcell: Unit cell vectors (Ang):
       18.467595    0.000000    0.000000
        0.000000   28.091354    0.000000
        0.000000    0.000000   10.327559

outcell: Cell vector modules (Ang)   :   18.467595   28.091354   10.327559
outcell: Cell angles (23,13,12) (deg):     90.0000     90.0000     90.0000
outcell: Cell volume (Ang**3)        :   5357.7284
<dSpData1D:S at geom step 1
  <sparsity:sparsity for geom step 1
    nrows_g=302 nrows=18 sparsity=.0279 nnzs=2543, refcount: 8>
  <dData1D:(new from dSpData1D) n=2543, refcount: 1>
refcount: 1>
new_DM -- step:     1
Initializing Density Matrix...

Attempting to read DM from file... Failed...
DM filled with atomic data:
<dSpData2D:DM initialized from atoms
  <sparsity:sparsity for geom step 1
    nrows_g=302 nrows=18 sparsity=.0279 nnzs=2543, refcount: 9>
  <dData2D:DM n=2543 m=8, refcount: 1>
refcount: 1>
     spin moment: S , {S} =   56.00000   0.00000   0.00000  56.00000
No. of atoms with KB's overlaping orbs in proc 0. Max # of overlaps:      20     134

Initializing spin-orbit part of the Hamiltonian
  Adding spin-orbit effects for H 
  Adding spin-orbit effects for N 
  Adding spin-orbit effects for Si
  Adding spin-orbit effects for O 


New grid distribution:   1
           1       1:  108    1:   40    1:    8
           2       1:  108    1:   40    9:   16
           3       1:  108    1:   40   17:   24
           4       1:  108    1:   40   25:   32
           5       1:  108    1:   40   33:   39
           6       1:  108    1:   40   40:   46
           7       1:  108    1:   40   47:   53
           8       1:  108    1:   40   54:   60
           9       1:  108   41:   80    1:    8
          10       1:  108   41:   80    9:   16
          11       1:  108   41:   80   17:   24
          12       1:  108   41:   80   25:   32
          13       1:  108   41:   80   33:   39
          14       1:  108   41:   80   40:   46
          15       1:  108   41:   80   47:   53
          16       1:  108   41:   80   54:   60
          17       1:  108   81:  120    1:    8
          18       1:  108   81:  120    9:   16
          19       1:  108   81:  120   17:   24
          20       1:  108   81:  120   25:   32
          21       1:  108   81:  120   33:   39
          22       1:  108   81:  120   40:   46
          23       1:  108   81:  120   47:   53
          24       1:  108   81:  120   54:   60
          25       1:  108  121:  160    1:    8
          26       1:  108  121:  160    9:   16
          27       1:  108  121:  160   17:   24
          28       1:  108  121:  160   25:   32
          29       1:  108  121:  160   33:   39
          30       1:  108  121:  160   40:   46
          31       1:  108  121:  160   47:   53
          32       1:  108  121:  160   54:   60

InitMesh: MESH =   216 x   320 x   120 =     8294400
InitMesh: (bp) =   108 x   160 x    60 =     1036800
InitMesh: Mesh cutoff (required, used) =   340.000   358.638 Ry
ExtMesh (bp) on 0 =   216 x   144 x   116 =     3608064
New grid distribution:   2
           1       1:   71   43:   59    1:   22
           2      88:   98    1:   41    1:   18
           3      98:  108   42:   59    1:   21
           4      23:   87    1:   42   20:   60
           5      23:   87    1:   42    1:   19
           6      88:   98    1:   41   19:   60
           7      98:  108   42:   59   22:   60
           8     100:  108  141:  160    1:   21
           9      10:   80   60:  141    1:   20
          10     100:  108   60:  140    1:   20
          11      72:   87   43:   59    1:   22
          12     100:  108   60:  140   21:   60
          13       1:   71   43:   59   23:   60
          14       1:   22    1:   42    1:   19
          15      72:   87   43:   59   23:   60
          16      88:   97   42:   59   22:   60
          17      81:   99   60:  140    1:   20
          18       1:    9   60:  141    1:   20
          19      88:   97   42:   59    1:   21
          20      10:   80   60:  141   21:   60
          21      81:   99   60:  140   21:   60
          22       1:    9   60:  141   21:   60
          23      99:  108    1:   41    1:   18
          24       1:    9  142:  160    1:   20
          25      10:   80  142:  160    1:   20
          26      81:   99  141:  160    1:   21
          27       1:    9  142:  160   21:   60
          28      10:   80  142:  160   21:   60
          29       1:   22    1:   42   20:   60
          30      99:  108    1:   41   19:   60
          31      81:   99  141:  160   22:   60
          32     100:  108  141:  160   22:   60
New grid distribution:   3
           1      92:  108    1:   33   25:   60
           2      91:  108   34:   59   27:   60
           3      73:   91    1:   33    1:   24
           4      16:   72    1:   37   25:   60
           5      17:   72    1:   37    1:   24
           6      73:   91    1:   33   25:   60
           7       1:   15    1:   37   25:   60
           8       1:   16    1:   37    1:   24
           9      16:   76   60:  130    1:   25
          10       1:   48   38:   59    1:   26
          11      49:   72   38:   59    1:   26
          12      73:   90   34:   59   27:   60
          13      17:   76  131:  160    1:   25
          14       1:   48   38:   59   27:   60
          15      49:   72   38:   59   27:   60
          16      92:  108    1:   33    1:   24
          17      77:   96   60:  126    1:   24
          18      97:  108   60:  126    1:   24
          19      91:  108   34:   59    1:   26
          20      16:   76   60:  130   26:   60
          21      77:   96   60:  126   25:   60
          22      97:  108   60:  126   25:   60
          23      96:  108  127:  160   26:   60
          24      73:   90   34:   59    1:   26
          25       1:   15   60:  130    1:   25
          26      77:   94  127:  160    1:   25
          27       1:   16  131:  160    1:   25
          28      16:   76  131:  160   26:   60
          29       1:   15   60:  130   26:   60
          30      77:   95  127:  160   26:   60
          31       1:   15  131:  160   26:   60
          32      95:  108  127:  160    1:   25
Setting up quadratic distribution...
ExtMesh (bp) on 0 =   179 x   121 x   130 =     2815670
PhiOnMesh: Number of (b)points on node 0 =                26554
PhiOnMesh: nlist on node 0 =               399525

stepf: Fermi-Dirac step function

siesta: Program's energy decomposition (eV):
siesta: Ebs     =      -644.379134
siesta: Eions   =      3553.971015
siesta: Ena     =       374.984496
siesta: Ekin    =      3171.862018
siesta: Enl     =     -2985.199925
siesta: Eso     =        -0.003881
siesta: Edftu   =         0.000000
siesta: DEna    =       129.754546
siesta: DUscf   =        75.723773
siesta: DUext   =         0.000000
siesta: Exc     =     -1168.860627
siesta: eta*DQ  =         0.000000
siesta: Emadel  =         0.000000
siesta: Emeta   =         0.000000
siesta: Emolmec =         0.000000
siesta: Ekinion =         0.000000
siesta: Eharris =     -3884.563400
siesta: Etot    =     -3955.710615
siesta: FreeEng =     -3955.713944

        iscf     Eharris(eV)        E_KS(eV)     FreeEng(eV)     dDmax    Ef(eV) dHmax(eV)
   scf:    1    -3884.563400    -3955.710615    -3955.713944  0.970472 -4.935479 21.526456
     spin moment: S , {S} =    2.02367  -0.00000  -0.00000   2.02367
timer: Routine,Calls,Time,% = IterSCF        1       4.102   9.31
   scf:    2    -3997.385462    -3989.172667    -3989.172681  0.466512 -4.299494 11.424997
     spin moment: S , {S} =    2.00006   0.00000  -0.00000   2.00006
   scf:    3    -3963.198553    -3986.916645    -3986.948634  0.419763 -4.188658 11.030540
     spin moment: S , {S} =    1.87692  -0.00000  -0.00000   1.87692
   scf:    4    -4002.185217    -3997.411874    -3997.411875  0.227409 -3.920330  6.150538
     spin moment: S , {S} =    0.00010  -0.00000   0.00000   0.00010
   scf:    5    -3998.788620    -3998.180706    -3998.180706  0.039159 -3.828016  3.952284
     spin moment: S , {S} =    0.00006  -0.00000   0.00000   0.00006
   scf:    6    -3998.949530    -3998.567660    -3998.567660  0.025768 -3.817518  2.030230
     spin moment: S , {S} =    0.00003  -0.00000   0.00000   0.00003
   scf:    7    -3998.954144    -3998.754520    -3998.754520  0.022776 -3.854338  0.715914
     spin moment: S , {S} =    0.00001  -0.00000   0.00000   0.00001
   scf:    8    -3998.881392    -3998.815549    -3998.815549  0.012183 -3.908982  0.438529
     spin moment: S , {S} =    0.00000  -0.00000   0.00000   0.00000
   scf:    9    -3998.864046    -3998.838691    -3998.838691  0.007068 -3.927283  0.343474
     spin moment: S , {S} =    0.00000  -0.00000   0.00000   0.00000
   scf:   10    -3998.895725    -3998.859768    -3998.859769  0.021259 -3.951150  0.181647
     spin moment: S , {S} =    0.00000  -0.00000  -0.00000  -0.00000
   scf:   11    -3998.863425    -3998.861696    -3998.861696  0.004364 -3.939125  0.058136
     spin moment: S , {S} =    0.00000  -0.00000  -0.00000  -0.00000
   scf:   12    -3998.862302    -3998.862017    -3998.862018  0.001495 -3.937074  0.034402
     spin moment: S , {S} =    0.00000  -0.00000  -0.00000  -0.00000
   scf:   13    -3998.862462    -3998.862238    -3998.862238  0.000820 -3.935508  0.017733
     spin moment: S , {S} =    0.00000  -0.00000  -0.00000   0.00000
   scf:   14    -3998.862491    -3998.862360    -3998.862360  0.001008 -3.934692  0.010246
     spin moment: S , {S} =    0.00000  -0.00000  -0.00000   0.00000
   scf:   15    -3998.862473    -3998.862413    -3998.862413  0.000797 -3.934404  0.007855
     spin moment: S , {S} =    0.00000  -0.00000  -0.00000   0.00000
   scf:   16    -3998.862481    -3998.862444    -3998.862444  0.000787 -3.934324  0.004930
     spin moment: S , {S} =    0.00000  -0.00000  -0.00000   0.00000
   scf:   17    -3998.862461    -3998.862452    -3998.862452  0.000381 -3.934399  0.003945
     spin moment: S , {S} =    0.00000  -0.00000  -0.00000   0.00000
   scf:   18    -3998.862460    -3998.862455    -3998.862456  0.000298 -3.934448  0.002574
     spin moment: S , {S} =    0.00000  -0.00000  -0.00000   0.00000
   scf:   19    -3998.862460    -3998.862457    -3998.862457  0.000263 -3.934466  0.001546
     spin moment: S , {S} =    0.00000  -0.00000  -0.00000   0.00000
   scf:   20    -3998.862458    -3998.862458    -3998.862458  0.000111 -3.934486  0.001028
     spin moment: S , {S} =    0.00000  -0.00000  -0.00000   0.00000
   scf:   21    -3998.862458    -3998.862458    -3998.862458  0.000098 -3.934494  0.000624
     spin moment: S , {S} =    0.00000  -0.00000  -0.00000   0.00000
   scf:   22    -3998.862458    -3998.862458    -3998.862458  0.000090 -3.934503  0.000217
     spin moment: S , {S} =    0.00000  -0.00000  -0.00000   0.00000
   scf:   23    -3998.862458    -3998.862458    -3998.862458  0.000031 -3.934505  0.000110
     spin moment: S , {S} =    0.00000  -0.00000   0.00000   0.00000
   scf:   24    -3998.862458    -3998.862458    -3998.862458  0.000021 -3.934509  0.000065
     spin moment: S , {S} =    0.00000   0.00000   0.00000  -0.00000
mix: Pulay -- resetting history
   scf:   25    -3998.862458    -3998.862458    -3998.862458  0.000012 -3.934502  0.000038
     spin moment: S , {S} =    0.00000   0.00000   0.00000  -0.00000
   scf:   26    -3998.862458    -3998.862458    -3998.862458  0.000002 -3.934502  0.000028
     spin moment: S , {S} =    0.00000  -0.00000   0.00000  -0.00000
   scf:   27    -3998.862458    -3998.862458    -3998.862458  0.000002 -3.934500  0.000014
     spin moment: S , {S} =    0.00000  -0.00000   0.00000  -0.00000
   scf:   28    -3998.862458    -3998.862458    -3998.862458  0.000001 -3.934499  0.000008
     spin moment: S , {S} =    0.00000  -0.00000   0.00000  -0.00000
   scf:   29    -3998.862458    -3998.862458    -3998.862458  0.000001 -3.934499  0.000005
     spin moment: S , {S} =    0.00000  -0.00000   0.00000  -0.00000
   scf:   30    -3998.862458    -3998.862458    -3998.862458  0.000000 -3.934499  0.000004
     spin moment: S , {S} =    0.00000   0.00000   0.00000   0.00000
   scf:   31    -3998.862458    -3998.862458    -3998.862458  0.000000 -3.934499  0.000003
     spin moment: S , {S} =    0.00000   0.00000   0.00000   0.00000
   scf:   32    -3998.862458    -3998.862458    -3998.862458  0.000000 -3.934499  0.000002
     spin moment: S , {S} =    0.00000   0.00000   0.00000   0.00000
   scf:   33    -3998.862458    -3998.862458    -3998.862458  0.000000 -3.934499  0.000001
     spin moment: S , {S} =    0.00000   0.00000  -0.00000  -0.00000
   scf:   34    -3998.862458    -3998.862458    -3998.862458  0.000000 -3.934499  0.000001
     spin moment: S , {S} =    0.00000  -0.00000   0.00000  -0.00000

SCF Convergence by DM+H criterion
max |DM_out - DM_in|         :     0.0000002122
max |H_out - H_in|      (eV) :     0.0000007376
SCF cycle converged after 34 iterations

Using DM_out to compute the final energy and forces
No. of atoms with KB's overlaping orbs in proc 0. Max # of overlaps:      20     134

siesta: E_KS(eV) =            -3998.8625

siesta: E_KS - E_eggbox =     -3998.8625
     spin moment: S , {S} =    0.00000  -0.00000   0.00000  -0.00000

siesta: Atomic forces (eV/Ang):
     1    0.218893    0.052608   -0.000000
     2   -0.016828   -0.008687    0.000000
     3   -0.027551   -0.006362   -0.000000
     4    0.061460   -0.124409   -0.000000
     5    0.009707   -0.043062    0.000000
     6   -0.181861    0.018490    0.000000
     7    1.013207   -0.008636   -0.000001
     8   -0.606862    1.391576    0.000000
     9    0.086330   -0.991951   -0.000001
    10   -0.075679    0.083520    0.000001
    11   -0.173497   -0.370953    0.000001
    12   -0.278182    0.048452    0.000000
    13   -0.089523    0.003023    0.000000
    14   -0.024453   -0.160790   -0.000000
    15    0.103591    0.103362    0.000000
    16   -0.095360   -0.088379   -0.000945
    17    0.060814   -0.093918   -0.000804
    18   -0.162654    0.037367    0.005221
    19    0.121585   -0.060153   -0.001439
    20    0.124374    0.079248   -0.000961
    21    0.032263   -0.027064   -0.006903
    22    0.051286    0.004442    0.104868
    23    0.006137    0.031611   -0.016768
    24    0.043671    0.064970   -0.082981
    25   -0.640731   -0.389707    0.001021
    26   -1.737466    0.769973    0.000498
    27    0.362749   -0.448227   -0.000552
    28   -0.271770    0.786889   -0.000072
    29    0.119272    0.176135   -0.000225
    30    1.580886   -2.559047    0.000262
----------------------------------------
   Tot   -0.386195   -1.729678    0.000219
----------------------------------------
   Max    2.559047
   Res    0.461463    sqrt( Sum f_i^2 / 3N )
----------------------------------------
   Max    2.559047    constrained

Stress tensor Voigt[x,y,z,yz,xz,xy] (kbar):        0.20        0.66       -0.07       -0.02        0.00        0.30
(Free)E + p*V (eV/cell)    -3999.7371
Target enthalpy (eV/cell)    -3998.8625

siesta: Stress tensor (static) (eV/Ang**3):
         0.000122    0.000188    0.000001
         0.000188    0.000411   -0.000010
         0.000001   -0.000010   -0.000043

siesta: Pressure (static):         -0.26155892  kBar

siesta: Stress tensor (total) (eV/Ang**3):
         0.000122    0.000188    0.000001
         0.000188    0.000411   -0.000010
         0.000001   -0.000010   -0.000043

siesta: Pressure (total):         -0.26155892  kBar

siesta: Temp_ion =       0.000 K

siesta: Eigenvalues (eV):
ik =     1
  -22.9133  -22.9133  -22.4027  -22.4027  -21.7791  -21.7791  -21.3287  -21.3287  -21.1629  -21.1629
  -21.0263  -21.0263  -19.5276  -19.5276  -19.3776  -19.3776  -18.7402  -18.7402  -15.0544  -15.0544
  -14.1341  -14.1341  -13.7792  -13.7792  -13.6169  -13.6169  -13.1190  -13.1190  -13.0319  -13.0319
  -12.6599  -12.6599  -12.2525  -12.2525  -11.9481  -11.9481  -11.7288  -11.7288  -11.5334  -11.5334
  -11.1078  -11.1078  -10.6602  -10.6602  -10.3418  -10.3418   -9.5782   -9.5782   -9.3358   -9.3358
   -9.2847   -9.2847   -9.1252   -9.1252   -9.0708   -9.0708   -8.9356   -8.9356   -8.6430   -8.6430
   -8.4297   -8.4297   -8.3689   -8.3689   -8.2725   -8.2725   -8.0518   -8.0518   -8.0509   -8.0509
   -7.7647   -7.7647   -7.5114   -7.5114   -7.4363   -7.4363   -7.3219   -7.3219   -6.9601   -6.9601
   -6.9047   -6.9047   -6.7736   -6.7736   -6.5438   -6.5438   -6.3206   -6.3206   -6.3054   -6.3054
   -5.9294   -5.9294   -5.7394   -5.7394   -5.6764   -5.6764   -4.3458   -4.3458   -3.5232   -3.5232
   -2.7298   -2.7298   -2.3157   -2.3157   -2.2440   -2.2440   -2.1632   -2.1632   -2.0807   -2.0807
   -2.0163   -2.0163   -1.8400   -1.8400   -1.7184   -1.7184   -1.6674   -1.6674   -1.5384   -1.5384
   -1.1960   -1.1960   -0.6966   -0.6966   -0.4394   -0.4394   -0.3387   -0.3387   -0.2003   -0.2003
   -0.0331   -0.0331    0.0291    0.0291    0.2148    0.2148    0.4475    0.4475    0.4733    0.4733
    0.5260    0.5260    0.7052    0.7052    1.0859    1.0859    1.1498    1.1498    1.2565    1.2565
    1.4224    1.4224    1.5335    1.5335    1.8069    1.8069    1.9217    1.9217    2.0580    2.0580
    2.3237    2.3237    2.6564    2.6564    2.7115    2.7115    2.7542    2.7542    2.7729    2.7729
    2.9523    2.9523    2.9794    2.9794    3.1278    3.1278    3.2273    3.2273    3.2766    3.2766
    3.5436    3.5436    3.8732    3.8732    4.0811    4.0811    4.0939    4.0939    4.1969    4.1969
    4.3230    4.3230    4.5616    4.5616    4.5836    4.5836    4.7598    4.7598    4.9503    4.9503
    5.0354    5.0354    5.0899    5.0899    5.5331    5.5331    5.6463    5.6463    5.6654    5.6654
    5.7534    5.7534    6.0174    6.0174    6.0361    6.0361    6.1931    6.1931    6.2018    6.2018
    6.5307    6.5307    6.5507    6.5507    6.7860    6.7860    7.0109    7.0109    7.0863    7.0863
    7.1318    7.1318    7.3610    7.3610    7.5299    7.5299    7.8076    7.8076    7.8405    7.8405
    7.9504    7.9504    8.1096    8.1096    8.2545    8.2545    8.2605    8.2605    8.6448    8.6448
    8.8077    8.8077    8.9121    8.9121    8.9375    8.9375    9.1671    9.1671    9.5370    9.5370
    9.5722    9.5722    9.7363    9.7363    9.7660    9.7660    9.8032    9.8032    9.8970    9.8970
   10.1336   10.1336   10.3342   10.3342   10.6129   10.6129   10.8881   10.8881   10.8980   10.8980
   11.2485   11.2485   11.3005   11.3005   11.5557   11.5557   11.6021   11.6021   11.6085   11.6085
   11.8932   11.8932   12.2110   12.2110   12.2949   12.2949   12.3692   12.3692   12.5962   12.5962
   12.8118   12.8118   12.9118   12.9118   13.0101   13.0101   13.1670   13.1670   13.3161   13.3161
   13.3883   13.3883   13.6187   13.6187   14.4444   14.4444   14.6195   14.6195   14.6429   14.6429
   14.6985   14.6985   14.8144   14.8144   15.1304   15.1304   16.0733   16.0733   16.5409   16.5409
   16.6630   16.6630   16.7949   16.7949   16.9914   16.9914   17.1417   17.1417   17.3415   17.3415
   18.1069   18.1069   18.2183   18.2183   18.4602   18.4602   18.7086   18.7086   18.7264   18.7264
   18.7406   18.7406   19.5066   19.5066   19.7853   19.7853   19.9855   19.9855   20.1986   20.1986
   20.6057   20.6057   21.0546   21.0546   21.0963   21.0963   21.6816   21.6816   22.1871   22.1871
   22.2432   22.2432   22.8324   22.8324   22.8780   22.8780   23.0618   23.0618   23.8088   23.8088
   24.5598   24.5598   24.7286   24.7286   24.7969   24.7969   25.6916   25.6916   25.9227   25.9227
   26.0247   26.0247   26.4805   26.4805   26.5116   26.5116   27.7321   27.7321   28.0055   28.0055
   28.3378   28.3378   28.4728   28.4728   29.2042   29.2042   29.4622   29.4622   30.3477   30.3477
   30.7190   30.7190   30.7489   30.7489   30.8413   30.8413   31.2711   31.2711   31.5589   31.5589
   31.7301   31.7301   31.9498   31.9498   32.0545   32.0545   33.3398   33.3398   33.3668   33.3668
   33.6930   33.6930   34.0054   34.0054   34.4368   34.4368   34.7678   34.7678   34.8719   34.8719
   35.4760   35.4760   35.9651   35.9651   36.0360   36.0360   37.0582   37.0582   37.4858   37.4858
   37.5077   37.5077   37.7533   37.7533   38.0442   38.0442   38.4000   38.4000   38.4321   38.4321
   39.0862   39.0862   40.1342   40.1342   40.1987   40.1987   40.7043   40.7043   41.1635   41.1635
   41.6086   41.6086   41.8337   41.8337   41.8364   41.8364   43.2797   43.2797   43.3692   43.3692
   43.7943   43.7943   44.4338   44.4338   44.7329   44.7329   44.9650   44.9650   45.0604   45.0604
   45.5305   45.5305   45.6831   45.6831   45.9871   45.9871   46.4951   46.4951   46.9113   46.9113
   47.0645   47.0645   47.4257   47.4257   48.5190   48.5190   48.7811   48.7811   49.3684   49.3684
   49.7028   49.7028   50.1818   50.1818   50.2081   50.2081   50.3248   50.3248   50.3549   50.3549
   51.7006   51.7006   52.5496   52.5496   52.7345   52.7345   53.8593   53.8593   54.3379   54.3379
   54.7846   54.7846   54.8002   54.8002   55.9425   55.9425   56.1203   56.1203   56.2042   56.2042
   56.8668   56.8668   57.6861   57.6861   57.9579   57.9579   58.4109   58.4109   59.5780   59.5780
   60.0489   60.0489   61.1185   61.1185   61.6281   61.6281   62.8332   62.8332   63.2817   63.2817
   65.1733   65.1733   65.4352   65.4352   66.9573   66.9573   67.2606   67.2606   68.3340   68.3340
   68.3944   68.3944   70.5529   70.5529   71.8864   71.8864   76.4798   76.4798   88.6308   88.6308
   91.8829   91.8829   92.9581   92.9581   94.9895   94.9895   96.4101   96.4101  100.0678  100.0678
  100.6745  100.6745  102.4771  102.4771  114.2611  114.2611  118.3376  118.3376  123.1643  123.1643
  132.4489  132.4489  138.7565  138.7565
siesta: Fermi energy =      -3.934499 eV

siesta: Program's energy decomposition (eV):
siesta: Ebs     =     -1119.814030
siesta: Eions   =      3553.971015
siesta: Ena     =       374.984496
siesta: Ekin    =      2743.370020
siesta: Enl     =     -2522.993366
siesta: Eso     =        -0.004663
siesta: Edftu   =         0.000000
siesta: DEna    =        36.847091
siesta: DUscf   =        13.884160
siesta: DUext   =         0.000000
siesta: Exc     =     -1090.979181
siesta: eta*DQ  =         0.000000
siesta: Emadel  =         0.000000
siesta: Emeta   =         0.000000
siesta: Emolmec =         0.000000
siesta: Ekinion =         0.000000
siesta: Eharris =     -3998.862458
siesta: Etot    =     -3998.862458
siesta: FreeEng =     -3998.862458

siesta: Final energy (eV):
siesta:  Band Struct. =   -1119.814030
siesta:       Kinetic =    2743.370020
siesta:       Hartree =    7410.315401
siesta:       Edftu   =       0.000000
siesta:       Eso     =      -0.004663
siesta:    Ext. field =       0.000000
siesta:   Exch.-corr. =   -1090.979181
siesta:  Ion-electron =  -17267.936977
siesta:       Ion-ion =    4206.372942
siesta:       Ekinion =       0.000000
siesta:         Total =   -3998.862458
siesta:         Fermi =      -3.934499

siesta: Atomic forces (eV/Ang):
siesta:      1    0.218893    0.052608   -0.000000
siesta:      2   -0.016828   -0.008687    0.000000
siesta:      3   -0.027551   -0.006362   -0.000000
siesta:      4    0.061460   -0.124409   -0.000000
siesta:      5    0.009707   -0.043062    0.000000
siesta:      6   -0.181861    0.018490    0.000000
siesta:      7    1.013207   -0.008636   -0.000001
siesta:      8   -0.606862    1.391576    0.000000
siesta:      9    0.086330   -0.991951   -0.000001
siesta:     10   -0.075679    0.083520    0.000001
siesta:     11   -0.173497   -0.370953    0.000001
siesta:     12   -0.278182    0.048452    0.000000
siesta:     13   -0.089523    0.003023    0.000000
siesta:     14   -0.024453   -0.160790   -0.000000
siesta:     15    0.103591    0.103362    0.000000
siesta:     16   -0.095360   -0.088379   -0.000945
siesta:     17    0.060814   -0.093918   -0.000804
siesta:     18   -0.162654    0.037367    0.005221
siesta:     19    0.121585   -0.060153   -0.001439
siesta:     20    0.124374    0.079248   -0.000961
siesta:     21    0.032263   -0.027064   -0.006903
siesta:     22    0.051286    0.004442    0.104868
siesta:     23    0.006137    0.031611   -0.016768
siesta:     24    0.043671    0.064970   -0.082981
siesta:     25   -0.640731   -0.389707    0.001021
siesta:     26   -1.737466    0.769973    0.000498
siesta:     27    0.362749   -0.448227   -0.000552
siesta:     28   -0.271770    0.786889   -0.000072
siesta:     29    0.119272    0.176135   -0.000225
siesta:     30    1.580886   -2.559047    0.000262
siesta: ----------------------------------------
siesta:    Tot   -0.386195   -1.729678    0.000219

siesta: Stress tensor (static) (eV/Ang**3):
siesta:     0.000122    0.000188    0.000001
siesta:     0.000188    0.000411   -0.000010
siesta:     0.000001   -0.000010   -0.000043

siesta: Cell volume =       5357.728415 Ang**3

siesta: Pressure (static):
siesta:                Solid            Molecule  Units
siesta:          -0.00000178         -0.00000091  Ry/Bohr**3
siesta:          -0.00016325         -0.00008347  eV/Ang**3
siesta:          -0.26155892         -0.13373445  kBar
(Free)E+ p_basis*V_orbitals  =       -3977.734373
(Free)Eharris+ p_basis*V_orbitals  =       -3977.734373
     spin moment: S , {S} =    0.00000  -0.00000   0.00000  -0.00000

siesta: Electric dipole (a.u.)  =   -1.259814    1.661990   -0.001779
siesta: Electric dipole (Debye) =   -3.202131    4.224359   -0.004523

cite: Please see "AT.bib" for an exhaustive BiBTeX file.
cite: Please clearly indicate Siesta version in published work: v4.1.5-1-g384057250
cite: This calculation has made use of the following articles
cite: which are encouraged to be cited in a published work.
        Primary SIESTA paper
          DOI: www.doi.org/10.1088/0953-8984/14/11/302
        Spin-orbit coupling (on-site approximation)
          DOI: www.doi.org/10.1088/0953-8984/19/19/489001


WARNING: alloc-realloc-dealloc name mismatch
         Name: atomlist isa
         Size:              -120. Bytes
         Node:     0
         Subsequent mismatches will not be reported
>> End of run:  16-OCT-2023  20:55:37
Job completed
