Siesta Version  : v4.1.5-1-g384057250
Architecture    : gcc
Compiler version: GNU Fortran (Debian 10.2.1-6) 10.2.1 20210110
Compiler flags  : mpifort -O2 -fPIC -ftree-vectorize -fallow-argument-mismatch
PP flags        : -DFC_HAVE_ABORT -DMPI -DSIESTA__FLOOK -DSIESTA__METIS -DSIESTA__MUMPS -DCDF -DNCDF -DNCDF_4 -DNCDF_PARALLEL -DSIESTA__MRRR -DSIESTA__ELPA
Libraries       : libncdf.a libfdict.a  -lflookall -ldl -lnetcdff -lnetcdf -lhdf5_hl -lhdf5 -lhdf5_fortran -lz -lscalapack-openmpi -lopenblas -lmetis -lzmumps -lcmumps -ldmumps -lmumps_common -lpord -lsmumps -lesmumps -lscotch -lscotcherr -fopenmp -lelpa
PARALLEL version
NetCDF support
NetCDF-4 support
NetCDF-4 MPI-IO support
METIS ordering support
Lua support

* Running on 6 nodes in parallel
>> Start of run:  16-OCT-2023  19:21:30

                           ***********************       
                           *  WELCOME TO SIESTA  *       
                           ***********************       

reinit: Reading from standard input
reinit: Dumped input in INPUT_TMP.45540
************************** Dump of input data file ****************************
# mpirun -np 4 siesta-4.1.5 < GC.fdf > GC.out &
SystemLabel      GC
NumberOfAtoms    29
NumberOfSpecies  4
%block ChemicalSpeciesLabel
    1    1  H
    2    7  N
    3   14  Si
    4    8  O
%endblock ChemicalSpeciesLabel
############################################
# This overrides Defaults.fdf configuration
############################################
MD.TypeOfRun                CG # CG, Verlet
MD.Steps                    0
MaxSCFIterations            600
AtomicCoordinatesFormat NotScaledCartesianAng
%block AtomicCoordinatesAndAtomicSpecies
    -1.4759106313254433 7.333589535309953 0.0  1  1  H
    -2.1823973613254433 6.543553355309952 0.0  2  2  N
    -3.9126842713254435 6.984917265309952 0.0  3  3  Si
    -4.068463951325443 8.474909525309952 0.0  1  4  H
    -5.436005891325443 5.426009745309952 0.0  3  5  Si
    -6.919193521325443 5.668840105309952 0.0  1  6  H
    -4.2376150313254435 3.512733585309952 0.0  3  7  Si
    -5.003640491325443 1.980016845309952 0.0  2  8  N
    -4.4133939413254435 1.0228038153099521 0.0  1  9  H
    -6.055262811325443 1.8995566153099521 0.0  1  10  H
    -2.5214149713254432 3.567907895309952 0.0  2  11  N
    -1.4463923513254433 4.898246735309952 0.0  3  12  Si
    0.16228096867455655 4.879436475309952 0.0  4  13  O
    5.6164483 -7.44953905 0.0  1  14  H
    4.58206954 -7.2320376 0.0  2  15  N
    3.29666389 -8.492636 0.0  3  16  Si
    3.80117524 -9.90371886 -0.0  1  17  H
    1.65934232 -8.01362137 0.0  2  18  N
    1.68097912 -6.20463398 -0.0  3  19  Si
    0.54543521 -4.28636135 0.0  3  20  Si
    -1.03431493 -3.94450034 0.0  4  21  O
    1.73226934 -2.87719605 0.0  2  22  N
    1.20957366 -1.92961761 -0.0  1  23  H
    3.50853448 -2.77677601 0.0  3  24  Si
    4.13684451 -1.17938608 0.0  2  25  N
    3.54296161 -0.26248101 0.0  1  26  H
    5.18364407 -1.05231197 -0.0  1  27  H
    4.63288658 -4.07521596 -0.0  2  28  N
    3.79410501 -5.58634043 0.0  3  29  Si
%endblock AtomicCoordinatesAndAtomicSpecies
%include ../../../../Defaults.fdf
************************** End of input data file *****************************

reinit: -----------------------------------------------------------------------
reinit: System Name: 
reinit: -----------------------------------------------------------------------
reinit: System Label: GC
reinit: -----------------------------------------------------------------------

initatom: Reading input for the pseudopotentials and atomic orbitals ----------
Species number:   1 Atomic number:    1 Label: H
Species number:   2 Atomic number:    7 Label: N
Species number:   3 Atomic number:   14 Label: Si
Species number:   4 Atomic number:    8 Label: O

Ground state valence configuration:   1s01
Reading pseudopotential information in formatted form from H.psf

Pseudopotential generated from a relativistic atomic calculation

Valence configuration for pseudopotential generation:
1s( 1.00) rc: 0.01
2p( 0.00) rc: 0.60
3d( 0.00) rc: 1.99
4f( 0.00) rc: 2.49
Ground state valence configuration:   2s02  2p03
Reading pseudopotential information in formatted form from N.psf

Pseudopotential generated from a relativistic atomic calculation

Valence configuration for pseudopotential generation:
2s( 2.00) rc: 0.94
2p( 3.00) rc: 0.59
3d( 0.00) rc: 3.46
4f( 0.00) rc: 2.47
Ground state valence configuration:   3s02  3p02
Reading pseudopotential information in formatted form from Si.psf

Pseudopotential generated from a relativistic atomic calculation

Valence configuration for pseudopotential generation:
3s( 2.00) rc: 1.67
3p( 2.00) rc: 2.04
3d( 0.00) rc: 2.89
4f( 0.00) rc: 2.49
Ground state valence configuration:   2s02  2p04
Reading pseudopotential information in formatted form from O.psf

Pseudopotential generated from a relativistic atomic calculation

Valence configuration for pseudopotential generation:
2s( 2.00) rc: 0.45
2p( 4.00) rc: 0.92
3d( 0.00) rc: 2.24
4f( 0.00) rc: 0.25
For H, standard SIESTA heuristics set lmxkb to 2
 (one more than the basis l, including polarization orbitals).
Use PS.lmax or PS.KBprojectors blocks to override.
For N, standard SIESTA heuristics set lmxkb to 3
 (one more than the basis l, including polarization orbitals).
Use PS.lmax or PS.KBprojectors blocks to override.
For Si, standard SIESTA heuristics set lmxkb to 3
 (one more than the basis l, including polarization orbitals).
Use PS.lmax or PS.KBprojectors blocks to override.
For O, standard SIESTA heuristics set lmxkb to 3
 (one more than the basis l, including polarization orbitals).
Use PS.lmax or PS.KBprojectors blocks to override.

<basis_specs>
===============================================================================
H                    Z=   1    Mass=  1.0100        Charge= 0.17977+309
Lmxo=0 Lmxkb= 2    BasisType=split      Semic=F
L=0  Nsemic=0  Cnfigmx=1
          i=1  nzeta=2  polorb=1  (1s)
            splnorm:   0.62000    
               vcte:    0.0000    
               rinn:    0.0000    
               qcoe:    0.0000    
               qyuk:    0.0000    
               qwid:   0.10000E-01
                rcs:    0.0000      0.0000    
            lambdas:    1.0000      1.0000    
-------------------------------------------------------------------------------
L=0  Nkbl=1  erefs: 0.17977+309
L=1  Nkbl=1  erefs: 0.17977+309
L=2  Nkbl=1  erefs: 0.17977+309
===============================================================================
</basis_specs>

atom: Called for H                     (Z =   1)

read_vps: Pseudopotential generation method:
read_vps: ATM4.2.7  Troullier-Martins                       
Valence charge for ps generation:    1.00000

xc_check: Exchange-correlation functional:
xc_check: GGA Perdew, Burke & Ernzerhof 1996
V l=0 = -2*Zval/r beyond r=  0.0098
V l=1 = -2*Zval/r beyond r=  0.5817
V l=2 = -2*Zval/r beyond r=  1.9372
All V_l potentials equal beyond r=  1.9372
This should be close to max(r_c) in ps generation
All pots = -2*Zval/r beyond r=  1.9372

VLOCAL1: 99.0% of the norm of Vloc inside     11.567 Ry
VLOCAL1: 99.9% of the norm of Vloc inside     26.362 Ry
atom: Maximum radius for 4*pi*r*r*local-pseudopot. charge    2.25106
atom: Maximum radius for r*vlocal+2*Zval:    1.91306
GHOST: No ghost state for L =  0
GHOST: No ghost state for L =  1
GHOST: No ghost state for L =  2

KBgen: Kleinman-Bylander projectors: 
   l= 0   rc=  2.036604   el= -0.477180   Ekb= -6.081590   kbcos= -0.277285
   l= 1   rc=  2.195416   el=  0.001076   Ekb= -0.926943   kbcos= -0.034643
   l= 2   rc=  2.251056   el=  0.002010   Ekb= -0.130941   kbcos= -0.009788

KBgen: Total number of Kleinman-Bylander projectors:    9
atom: -------------------------------------------------------------------------

atom: SANKEY-TYPE ORBITALS:
atom: Selected multiple-zeta basis: split     

SPLIT: Orbitals with angular momentum L= 0

SPLIT: Basis orbitals for state 1s

SPLIT: PAO cut-off radius determined from an
SPLIT: energy shift=  0.002000 Ry

   izeta = 1
                 lambda =    1.000000
                     rc =    6.518340
                 energy =   -0.475305
                kinetic =    0.912139
    potential(screened) =   -1.387444
       potential(ionic) =   -1.907295

   izeta = 2
                 rmatch =    2.141150
              splitnorm =    0.620000
                 energy =    0.566467
                kinetic =    3.772856
    potential(screened) =   -3.206389
       potential(ionic) =   -3.759093

POLgen: Perturbative polarization orbital with L=  1

POLgen: Polarization orbital for state 1s

   izeta = 1
                     rc =    6.518340
                 energy =    0.533861
                kinetic =    1.121086
    potential(screened) =   -0.587225
       potential(ionic) =   -1.053027
atom: Total number of Sankey-type orbitals:  5

atm_pop: Valence configuration (for local Pseudopot. screening):
 1s( 1.00)                                                            
Vna: chval, zval:    1.00000   1.00000

Vna:  Cut-off radius for the neutral-atom potential:   6.518340

atom: _________________________________________________________________________

<basis_specs>
===============================================================================
N                    Z=   7    Mass=  14.010        Charge= 0.17977+309
Lmxo=1 Lmxkb= 3    BasisType=split      Semic=F
L=0  Nsemic=0  Cnfigmx=2
          i=1  nzeta=2  polorb=0  (2s)
            splnorm:   0.28000    
               vcte:    0.0000    
               rinn:    0.0000    
               qcoe:    0.0000    
               qyuk:    0.0000    
               qwid:   0.10000E-01
                rcs:    0.0000      0.0000    
            lambdas:    1.0000      1.0000    
L=1  Nsemic=0  Cnfigmx=2
          i=1  nzeta=2  polorb=1  (2p)
            splnorm:   0.28000    
               vcte:    0.0000    
               rinn:    0.0000    
               qcoe:    0.0000    
               qyuk:    0.0000    
               qwid:   0.10000E-01
                rcs:    0.0000      0.0000    
            lambdas:    1.0000      1.0000    
-------------------------------------------------------------------------------
L=0  Nkbl=1  erefs: 0.17977+309
L=1  Nkbl=1  erefs: 0.17977+309
L=2  Nkbl=1  erefs: 0.17977+309
L=3  Nkbl=1  erefs: 0.17977+309
===============================================================================
</basis_specs>

atom: Called for N                     (Z =   7)

read_vps: Pseudopotential generation method:
read_vps: ATM4.2.7  Troullier-Martins                       
Valence charge for ps generation:    5.00000

xc_check: Exchange-correlation functional:
xc_check: GGA Perdew, Burke & Ernzerhof 1996
V l=0 = -2*Zval/r beyond r=  1.2889
V l=1 = -2*Zval/r beyond r=  1.2889
V l=2 = -2*Zval/r beyond r=  3.4178
V l=3 = -2*Zval/r beyond r=  2.4084
All V_l potentials equal beyond r=  3.3753
This should be close to max(r_c) in ps generation
All pots = -2*Zval/r beyond r=  3.4178

VLOCAL1: 99.0% of the norm of Vloc inside      3.810 Ry
VLOCAL1: 99.9% of the norm of Vloc inside      8.683 Ry
atom: Maximum radius for 4*pi*r*r*local-pseudopot. charge    4.02088
atom: Maximum radius for r*vlocal+2*Zval:    3.54838
GHOST: No ghost state for L =  0
GHOST: No ghost state for L =  1
GHOST: No ghost state for L =  2
GHOST: No ghost state for L =  3

KBgen: Kleinman-Bylander projectors: 
   l= 0   rc=  3.417763   el= -1.365098   Ekb= -4.433130   kbcos= -0.707855
   l= 1   rc=  3.375302   el= -0.521201   Ekb=-13.264039   kbcos= -0.535594
   l= 2   rc=  3.872880   el=  0.001991   Ekb= -0.641094   kbcos= -0.062456
   l= 3   rc=  3.970931   el=  0.003093   Ekb= -0.474517   kbcos= -0.018236

KBgen: Total number of Kleinman-Bylander projectors:   16
atom: -------------------------------------------------------------------------

atom: SANKEY-TYPE ORBITALS:
atom: Selected multiple-zeta basis: split     

SPLIT: Orbitals with angular momentum L= 0

SPLIT: Basis orbitals for state 2s

SPLIT: PAO cut-off radius determined from an
SPLIT: energy shift=  0.002000 Ry

   izeta = 1
                 lambda =    1.000000
                     rc =    4.730425
                 energy =   -1.363399
                kinetic =    1.245246
    potential(screened) =   -2.608645
       potential(ionic) =   -8.121105

   izeta = 2
                 rmatch =    2.531849
              splitnorm =    0.280000
                 energy =   -0.959908
                kinetic =    2.409435
    potential(screened) =   -3.369343
       potential(ionic) =   -9.427975

SPLIT: Orbitals with angular momentum L= 1

SPLIT: Basis orbitals for state 2p

SPLIT: PAO cut-off radius determined from an
SPLIT: energy shift=  0.002000 Ry

   izeta = 1
                 lambda =    1.000000
                     rc =    5.924108
                 energy =   -0.519262
                kinetic =    3.672940
    potential(screened) =   -4.192202
       potential(ionic) =   -9.518354

   izeta = 2
                 rmatch =    2.531849
              splitnorm =    0.280000
                 energy =   -0.104258
                kinetic =    6.807538
    potential(screened) =   -6.911796
       potential(ionic) =  -13.149920

POLgen: Perturbative polarization orbital with L=  2

POLgen: Polarization orbital for state 2p

   izeta = 1
                     rc =    5.924108
                 energy =    1.427508
                kinetic =    2.872379
    potential(screened) =   -1.444871
       potential(ionic) =   -5.563644
atom: Total number of Sankey-type orbitals: 13

atm_pop: Valence configuration (for local Pseudopot. screening):
 2s( 2.00)                                                            
 2p( 3.00)                                                            
Vna: chval, zval:    5.00000   5.00000

Vna:  Cut-off radius for the neutral-atom potential:   5.924108

atom: _________________________________________________________________________

<basis_specs>
===============================================================================
Si                   Z=  14    Mass=  28.090        Charge= 0.17977+309
Lmxo=1 Lmxkb= 3    BasisType=split      Semic=F
L=0  Nsemic=0  Cnfigmx=3
          i=1  nzeta=2  polorb=0  (3s)
            splnorm:   0.28000    
               vcte:    0.0000    
               rinn:    0.0000    
               qcoe:    0.0000    
               qyuk:    0.0000    
               qwid:   0.10000E-01
                rcs:    0.0000      0.0000    
            lambdas:    1.0000      1.0000    
L=1  Nsemic=0  Cnfigmx=3
          i=1  nzeta=2  polorb=1  (3p)
            splnorm:   0.28000    
               vcte:    0.0000    
               rinn:    0.0000    
               qcoe:    0.0000    
               qyuk:    0.0000    
               qwid:   0.10000E-01
                rcs:    0.0000      0.0000    
            lambdas:    1.0000      1.0000    
-------------------------------------------------------------------------------
L=0  Nkbl=1  erefs: 0.17977+309
L=1  Nkbl=1  erefs: 0.17977+309
L=2  Nkbl=1  erefs: 0.17977+309
L=3  Nkbl=1  erefs: 0.17977+309
===============================================================================
</basis_specs>

atom: Called for Si                    (Z =  14)

read_vps: Pseudopotential generation method:
read_vps: ATM4.2.7  Troullier-Martins                       
Valence charge for ps generation:    4.00000

xc_check: Exchange-correlation functional:
xc_check: GGA Perdew, Burke & Ernzerhof 1996
V l=0 = -2*Zval/r beyond r=  2.7826
V l=1 = -2*Zval/r beyond r=  2.7826
V l=2 = -2*Zval/r beyond r=  2.9253
V l=3 = -2*Zval/r beyond r=  2.7826
All V_l potentials equal beyond r=  2.8530
This should be close to max(r_c) in ps generation
All pots = -2*Zval/r beyond r=  2.9253

VLOCAL1: 99.0% of the norm of Vloc inside      5.333 Ry
VLOCAL1: 99.9% of the norm of Vloc inside     12.154 Ry
atom: Maximum radius for 4*pi*r*r*local-pseudopot. charge    3.39869
atom: Maximum radius for r*vlocal+2*Zval:    2.96205
GHOST: No ghost state for L =  0
GHOST: No ghost state for L =  1
GHOST: No ghost state for L =  2
GHOST: No ghost state for L =  3

KBgen: Kleinman-Bylander projectors: 
   l= 0   rc=  3.075247   el= -0.794092   Ekb=  5.879390   kbcos=  0.167461
   l= 1   rc=  3.153101   el= -0.300068   Ekb=  2.642817   kbcos=  0.058301
   l= 2   rc=  3.273594   el=  0.001958   Ekb= -1.185135   kbcos= -0.104411
   l= 3   rc=  3.232927   el=  0.003046   Ekb= -0.497174   kbcos= -0.015889

KBgen: Total number of Kleinman-Bylander projectors:   16
atom: -------------------------------------------------------------------------

atom: SANKEY-TYPE ORBITALS:
atom: Selected multiple-zeta basis: split     

SPLIT: Orbitals with angular momentum L= 0

SPLIT: Basis orbitals for state 3s

SPLIT: PAO cut-off radius determined from an
SPLIT: energy shift=  0.002000 Ry

   izeta = 1
                 lambda =    1.000000
                     rc =    6.429618
                 energy =   -0.792283
                kinetic =    0.525293
    potential(screened) =   -1.317576
       potential(ionic) =   -3.744923

   izeta = 2
                 rmatch =    3.998416
              splitnorm =    0.280000
                 energy =   -0.583081
                kinetic =    1.069570
    potential(screened) =   -1.652651
       potential(ionic) =   -4.235185

SPLIT: Orbitals with angular momentum L= 1

SPLIT: Basis orbitals for state 3p

SPLIT: PAO cut-off radius determined from an
SPLIT: energy shift=  0.002000 Ry

   izeta = 1
                 lambda =    1.000000
                     rc =    8.464845
                 energy =   -0.298236
                kinetic =    0.785360
    potential(screened) =   -1.083596
       potential(ionic) =   -3.273779

   izeta = 2
                 rmatch =    4.587816
              splitnorm =    0.280000
                 energy =   -0.131871
                kinetic =    1.403687
    potential(screened) =   -1.535557
       potential(ionic) =   -4.015310

POLgen: Perturbative polarization orbital with L=  2

POLgen: Polarization orbital for state 3p

   izeta = 1
                     rc =    8.464845
                 energy =    0.321949
                kinetic =    1.055677
    potential(screened) =   -0.733728
       potential(ionic) =   -2.672950
atom: Total number of Sankey-type orbitals: 13

atm_pop: Valence configuration (for local Pseudopot. screening):
 3s( 2.00)                                                            
 3p( 2.00)                                                            
Vna: chval, zval:    4.00000   4.00000

Vna:  Cut-off radius for the neutral-atom potential:   8.464845

atom: _________________________________________________________________________

<basis_specs>
===============================================================================
O                    Z=   8    Mass=  16.000        Charge= 0.17977+309
Lmxo=1 Lmxkb= 3    BasisType=split      Semic=F
L=0  Nsemic=0  Cnfigmx=2
          i=1  nzeta=2  polorb=0  (2s)
            splnorm:   0.28000    
               vcte:    0.0000    
               rinn:    0.0000    
               qcoe:    0.0000    
               qyuk:    0.0000    
               qwid:   0.10000E-01
                rcs:    0.0000      0.0000    
            lambdas:    1.0000      1.0000    
L=1  Nsemic=0  Cnfigmx=2
          i=1  nzeta=2  polorb=1  (2p)
            splnorm:   0.28000    
               vcte:    0.0000    
               rinn:    0.0000    
               qcoe:    0.0000    
               qyuk:    0.0000    
               qwid:   0.10000E-01
                rcs:    0.0000      0.0000    
            lambdas:    1.0000      1.0000    
-------------------------------------------------------------------------------
L=0  Nkbl=1  erefs: 0.17977+309
L=1  Nkbl=1  erefs: 0.17977+309
L=2  Nkbl=1  erefs: 0.17977+309
L=3  Nkbl=1  erefs: 0.17977+309
===============================================================================
</basis_specs>

atom: Called for O                     (Z =   8)

read_vps: Pseudopotential generation method:
read_vps: ATM4.2.7  Troullier-Martins                       
Valence charge for ps generation:    6.00000

xc_check: Exchange-correlation functional:
xc_check: GGA Perdew, Burke & Ernzerhof 1996
V l=0 = -2*Zval/r beyond r=  1.1000
V l=1 = -2*Zval/r beyond r=  1.1000
V l=2 = -2*Zval/r beyond r=  2.2154
V l=3 = -2*Zval/r beyond r=  1.1000
All V_l potentials equal beyond r=  2.2154
This should be close to max(r_c) in ps generation
All pots = -2*Zval/r beyond r=  2.2154

VLOCAL1: 99.0% of the norm of Vloc inside      8.845 Ry
VLOCAL1: 99.9% of the norm of Vloc inside     20.157 Ry
atom: Maximum radius for 4*pi*r*r*local-pseudopot. charge    2.67231
atom: Maximum radius for r*vlocal+2*Zval:    2.32897
GHOST: No ghost state for L =  0
GHOST: No ghost state for L =  1
GHOST: No ghost state for L =  2
GHOST: No ghost state for L =  3

KBgen: Kleinman-Bylander projectors: 
   l= 0   rc=  2.243238   el= -1.759686   Ekb=**********   kbcos= -0.171774
   l= 1   rc=  2.328968   el= -0.663873   Ekb=-14.506792   kbcos= -0.519897
   l= 2   rc=  2.573941   el=  0.002031   Ekb= -1.137373   kbcos= -0.019581
   l= 3   rc=  2.606321   el=  0.003153   Ekb= -1.013546   kbcos= -0.003122

KBgen: Total number of Kleinman-Bylander projectors:   16
atom: -------------------------------------------------------------------------

atom: SANKEY-TYPE ORBITALS:
atom: Selected multiple-zeta basis: split     

SPLIT: Orbitals with angular momentum L= 0

SPLIT: Basis orbitals for state 2s

SPLIT: PAO cut-off radius determined from an
SPLIT: energy shift=  0.002000 Ry

   izeta = 1
                 lambda =    1.000000
                     rc =    4.243912
                 energy =   -1.758270
                kinetic =    3.286084
    potential(screened) =   -5.044353
       potential(ionic) =  -12.921184

   izeta = 2
                 rmatch =    2.187845
              splitnorm =    0.280000
                 energy =   -0.885018
                kinetic =    8.134434
    potential(screened) =   -9.019452
       potential(ionic) =  -17.710645

SPLIT: Orbitals with angular momentum L= 1

SPLIT: Basis orbitals for state 2p

SPLIT: PAO cut-off radius determined from an
SPLIT: energy shift=  0.002000 Ry

   izeta = 1
                 lambda =    1.000000
                     rc =    5.314825
                 energy =   -0.661986
                kinetic =    4.917472
    potential(screened) =   -5.579458
       potential(ionic) =  -13.236259

   izeta = 2
                 rmatch =    2.160663
              splitnorm =    0.280000
                 energy =   -0.068760
                kinetic =    9.183374
    potential(screened) =   -9.252135
       potential(ionic) =  -18.274251

POLgen: Perturbative polarization orbital with L=  2

POLgen: Polarization orbital for state 2p

   izeta = 1
                     rc =    5.314825
                 energy =    1.970580
                kinetic =    3.886128
    potential(screened) =   -1.915547
       potential(ionic) =   -7.749584
atom: Total number of Sankey-type orbitals: 13

atm_pop: Valence configuration (for local Pseudopot. screening):
 2s( 2.00)                                                            
 2p( 4.00)                                                            
Vna: chval, zval:    6.00000   6.00000

Vna:  Cut-off radius for the neutral-atom potential:   5.314825

atom: _________________________________________________________________________

prinput: Basis input ----------------------------------------------------------

PAO.BasisType split     

%block ChemicalSpeciesLabel
    1    1 H                       # Species index, atomic number, species label
    2    7 N                       # Species index, atomic number, species label
    3   14 Si                      # Species index, atomic number, species label
    4    8 O                       # Species index, atomic number, species label
%endblock ChemicalSpeciesLabel

%block PAO.Basis                 # Define Basis set
H                     1                    # Species label, number of l-shells
 n=1   0   2 P   1                   # n, l, Nzeta, Polarization, NzetaPol
   6.518      2.141   
   1.000      1.000   
N                     2                    # Species label, number of l-shells
 n=2   0   2                         # n, l, Nzeta 
   4.730      2.532   
   1.000      1.000   
 n=2   1   2 P   1                   # n, l, Nzeta, Polarization, NzetaPol
   5.924      2.532   
   1.000      1.000   
Si                    2                    # Species label, number of l-shells
 n=3   0   2                         # n, l, Nzeta 
   6.430      3.998   
   1.000      1.000   
 n=3   1   2 P   1                   # n, l, Nzeta, Polarization, NzetaPol
   8.465      4.588   
   1.000      1.000   
O                     2                    # Species label, number of l-shells
 n=2   0   2                         # n, l, Nzeta 
   4.244      2.188   
   1.000      1.000   
 n=2   1   2 P   1                   # n, l, Nzeta, Polarization, NzetaPol
   5.315      2.161   
   1.000      1.000   
%endblock PAO.Basis

prinput: ----------------------------------------------------------------------

Dumping basis to NetCDF file H.ion.nc
Dumping basis to NetCDF file N.ion.nc
Dumping basis to NetCDF file Si.ion.nc
Dumping basis to NetCDF file O.ion.nc
coor:   Atomic-coordinates input format  =     Cartesian coordinates
coor:                                          (in Angstroms)

siesta: Atomic coordinates (Bohr) and species
siesta:     -2.78907  13.85848   0.00000  1        1
siesta:     -4.12413  12.36553   0.00000  2        2
siesta:     -7.39390  13.19959   0.00000  3        3
siesta:     -7.68829  16.01526   0.00000  1        4
siesta:    -10.27257  10.25368   0.00000  3        5
siesta:    -13.07539  10.71256   0.00000  1        6
siesta:     -8.00794   6.63811   0.00000  3        7
siesta:     -9.45551   3.74169   0.00000  2        8
siesta:     -8.34011   1.93282   0.00000  1        9
siesta:    -11.44279   3.58964   0.00000  1       10
siesta:     -4.76479   6.74237   0.00000  2       11
siesta:     -2.73329   9.25635   0.00000  3       12
siesta:      0.30667   9.22080   0.00000  4       13
siesta:     10.61355 -14.07759   0.00000  1       14
siesta:      8.65886 -13.66658   0.00000  2       15
siesta:      6.22979 -16.04876   0.00000  3       16
siesta:      7.18318 -18.71532  -0.00000  1       17
siesta:      3.13570 -15.14356   0.00000  2       18
siesta:      3.17659 -11.72506  -0.00000  3       19
siesta:      1.03072  -8.10005   0.00000  3       20
siesta:     -1.95457  -7.45403   0.00000  4       21
siesta:      3.27352  -5.43711   0.00000  2       22
siesta:      2.28576  -3.64645  -0.00000  1       23
siesta:      6.63017  -5.24735   0.00000  3       24
siesta:      7.81751  -2.22872   0.00000  2       25
siesta:      6.69523  -0.49602   0.00000  1       26
siesta:      9.79567  -1.98858  -0.00000  1       27
siesta:      8.75489  -7.70105  -0.00000  2       28
siesta:      7.16982 -10.55666   0.00000  3       29

siesta: Automatic unit cell vectors (Ang):
siesta:   21.377789    0.000000    0.000000
siesta:    0.000000   27.805074    0.000000
siesta:    0.000000    0.000000    9.854683

siesta: System type = molecule  

initatomlists: Number of atoms, orbitals, and projectors:     29   297   394

siesta: ******************** Simulation parameters ****************************
siesta:
siesta: The following are some of the parameters of the simulation.
siesta: A complete list of the parameters used, including default values,
siesta: can be found in file out.fdf
siesta:
redata: Spin configuration                          = spin-orbit
redata: Number of spin components                   = 8
redata: Time-Reversal Symmetry                      = F
redata: Spin spiral                                 = F
############################################################
This spin-orbit implementation uses a local approximation.
From 4.2 and onwards the full non-local approximation is implemented
You are strongly advised to use >=4.2 versions!
############################################################
redata: Long output                                 =   F
redata: Number of Atomic Species                    =        4
redata: Charge density info will appear in .RHO file
redata: Write Mulliken Pop.                         = NO
redata: Matel table size (NRTAB)                    =     1024
redata: Mesh Cutoff                                 =   340.0000 Ry
redata: Net charge of the system                    =     0.0000 |e|
redata: Min. number of SCF Iter                     =        1
redata: Max. number of SCF Iter                     =      600
redata: SCF convergence failure will abort job
redata: SCF mix quantity                            = Hamiltonian
redata: Mix DM or H after convergence               =   F
redata: Recompute H after scf cycle                 =   F
redata: Mix DM in first SCF step                    =   T
redata: Write Pulay info on disk                    =   F
redata: New DM Occupancy tolerance                  = 0.000000000001
redata: No kicks to SCF
redata: DM Mixing Weight for Kicks                  =     0.5000
redata: Require Harris convergence for SCF          =   F
redata: Harris energy tolerance for SCF             =     0.000100 eV
redata: Require DM convergence for SCF              =   T
redata: DM tolerance for SCF                        =     0.000008
redata: Require EDM convergence for SCF             =   F
redata: EDM tolerance for SCF                       =     0.001000 eV
redata: Require H convergence for SCF               =   T
redata: Hamiltonian tolerance for SCF               =     0.000001 eV
redata: Require (free) Energy convergence for SCF   =   F
redata: (free) Energy tolerance for SCF             =     0.000100 eV
redata: Using Saved Data (generic)                  =   F
redata: Use continuation files for DM               =   T
redata: Neglect nonoverlap interactions             =   F
redata: Method of Calculation                       = Diagonalization
redata: Electronic Temperature                      =   299.9978 K
redata: Fix the spin of the system                  =   F
redata: Dynamics option                             = Single-point calculation
mix.SCF: Pulay mixing                            = Pulay
mix.SCF:    Variant                              = stable
mix.SCF:    History steps                        = 6
mix.SCF:    Linear mixing weight                 =     0.250000
mix.SCF:    Mixing weight                        =     0.250000
mix.SCF:    SVD condition                        = 0.1000E-07
mix.SCF:    Restart steps                        = 24
mix.SCF:    Restart save steps                   = 3
mix.SCF: Spin-component mixing                   all
redata: Save all siesta data in one NC              =   F
redata: ***********************************************************************

%block SCF.Mixers
  Pulay
%endblock SCF.Mixers

%block SCF.Mixer.Pulay
  # Mixing method
  method pulay
  variant stable

  # Mixing options
  weight 0.2500
  weight.linear 0.2500
  history 6
  restart 24
  restart.save 3
%endblock SCF.Mixer.Pulay

DM_history_depth set to one: no extrapolation allowed by default for geometry relaxation
Size of DM history Fstack: 1
Total number of electrons:    98.000000
Total ionic charge:    98.000000

* ProcessorY, Blocksize:    2  24


* Orbital distribution balance (max,min):    57    48


Time-reversal symmetry not used.

siesta: k-grid: Number of k-points =     1
siesta: k-grid: Cutoff (effective) =     4.927 Ang
siesta: k-grid: Supercell and displacements
siesta: k-grid:    1   0   0      0.000
siesta: k-grid:    0   1   0      0.000
siesta: k-grid:    0   0   1      0.000

diag: Algorithm                                     = ELPA-1stage
diag: Parallel over k                               =   F
diag: Use parallel 2D distribution                  =   T
diag: Parallel block-size                           = 24
diag: Parallel distribution                         =     2 x     3
diag: Used triangular part                          = Lower
diag: Absolute tolerance                            =  0.100E-15
diag: Orthogonalization factor                      =  0.100E-05
diag: Memory factor                                 =  1.0000


ts: **************************************************************
ts: Save H and S matrices                           =    F
ts: Save DM and EDM matrices                        =    F
ts: Only save the overlap matrix S                  =    F
ts: **************************************************************

************************ Begin: TS CHECKS AND WARNINGS ************************
************************ End: TS CHECKS AND WARNINGS **************************


                     ====================================
                        Single-point calculation
                     ====================================

outcoor: Atomic coordinates (Ang):                          
   -1.47591063    7.33358954    0.00000000   1       1  H
   -2.18239736    6.54355336    0.00000000   2       2  N
   -3.91268427    6.98491727    0.00000000   3       3  Si
   -4.06846395    8.47490953    0.00000000   1       4  H
   -5.43600589    5.42600975    0.00000000   3       5  Si
   -6.91919352    5.66884011    0.00000000   1       6  H
   -4.23761503    3.51273359    0.00000000   3       7  Si
   -5.00364049    1.98001685    0.00000000   2       8  N
   -4.41339394    1.02280382    0.00000000   1       9  H
   -6.05526281    1.89955662    0.00000000   1      10  H
   -2.52141497    3.56790790    0.00000000   2      11  N
   -1.44639235    4.89824674    0.00000000   3      12  Si
    0.16228097    4.87943648    0.00000000   4      13  O
    5.61644830   -7.44953905    0.00000000   1      14  H
    4.58206954   -7.23203760    0.00000000   2      15  N
    3.29666389   -8.49263600    0.00000000   3      16  Si
    3.80117524   -9.90371886    0.00000000   1      17  H
    1.65934232   -8.01362137    0.00000000   2      18  N
    1.68097912   -6.20463398    0.00000000   3      19  Si
    0.54543521   -4.28636135    0.00000000   3      20  Si
   -1.03431493   -3.94450034    0.00000000   4      21  O
    1.73226934   -2.87719605    0.00000000   2      22  N
    1.20957366   -1.92961761    0.00000000   1      23  H
    3.50853448   -2.77677601    0.00000000   3      24  Si
    4.13684451   -1.17938608    0.00000000   2      25  N
    3.54296161   -0.26248101    0.00000000   1      26  H
    5.18364407   -1.05231197    0.00000000   1      27  H
    4.63288658   -4.07521596    0.00000000   2      28  N
    3.79410501   -5.58634043    0.00000000   3      29  Si

outcell: Unit cell vectors (Ang):
       21.377789    0.000000    0.000000
        0.000000   27.805074    0.000000
        0.000000    0.000000    9.854683

outcell: Cell vector modules (Ang)   :   21.377789   27.805074    9.854683
outcell: Cell angles (23,13,12) (deg):     90.0000     90.0000     90.0000
outcell: Cell volume (Ang**3)        :   5857.7321
<dSpData1D:S at geom step 0
  <sparsity:sparsity for geom step 0
    nrows_g=297 nrows=57 sparsity=.0950 nnzs=8377, refcount: 8>
  <dData1D:(new from dSpData1D) n=8377, refcount: 1>
refcount: 1>
new_DM -- step:     1
Initializing Density Matrix...

Attempting to read DM from file... Failed...
DM filled with atomic data:
<dSpData2D:DM initialized from atoms
  <sparsity:sparsity for geom step 0
    nrows_g=297 nrows=57 sparsity=.0950 nnzs=8377, refcount: 9>
  <dData2D:DM n=8377 m=8, refcount: 1>
refcount: 1>
     spin moment: S , {S} =   56.00000   0.00000   0.00000  56.00000
No. of atoms with KB's overlaping orbs in proc 0. Max # of overlaps:      28     142

Initializing spin-orbit part of the Hamiltonian
  Adding spin-orbit effects for H 
  Adding spin-orbit effects for N 
  Adding spin-orbit effects for Si
  Adding spin-orbit effects for O 


New grid distribution:   1
           1       1:  120    1:   80    1:   20
           2       1:  120    1:   80   21:   40
           3       1:  120    1:   80   41:   60
           4       1:  120   81:  160    1:   20
           5       1:  120   81:  160   21:   40
           6       1:  120   81:  160   41:   60

InitMesh: MESH =   240 x   320 x   120 =     9216000
InitMesh: (bp) =   120 x   160 x    60 =     1152000
InitMesh: Mesh cutoff (required, used) =   340.000   348.336 Ry
ExtMesh (bp) on 0 =   224 x   184 x   132 =     5440512
New grid distribution:   2
           1       1:   88    1:  114    1:   60
           2      89:  120   30:  114    1:   60
           3      89:  120    1:   29    1:   60
           4       1:   14  115:  160    1:   60
           5      15:  120  135:  160    1:   60
           6      15:  120  115:  134    1:   60
New grid distribution:   3
           1       1:   77    1:   92    1:   60
           2      78:  120    1:   31    1:   60
           3       1:   19   93:  160    1:   60
           4      20:  120  133:  160    1:   60
           5      20:  120   93:  132    1:   60
           6      78:  120   32:   92    1:   60
Setting up quadratic distribution...
ExtMesh (bp) on 0 =   192 x   218 x   172 =     7199232
PhiOnMesh: Number of (b)points on node 0 =               601920
PhiOnMesh: nlist on node 0 =              2463057

stepf: Fermi-Dirac step function

siesta: Program's energy decomposition (eV):
siesta: Ebs     =      -626.467963
siesta: Eions   =      3585.165840
siesta: Ena     =       381.828398
siesta: Ekin    =      3368.592835
siesta: Enl     =     -3296.965171
siesta: Eso     =        -0.003411
siesta: Edftu   =         0.000000
siesta: DEna    =       153.488937
siesta: DUscf   =        81.915850
siesta: DUext   =         0.000000
siesta: Exc     =     -1203.957849
siesta: eta*DQ  =         0.000000
siesta: Emadel  =         0.000000
siesta: Emeta   =         0.000000
siesta: Emolmec =         0.000000
siesta: Ekinion =         0.000000
siesta: Eharris =     -4020.393124
siesta: Etot    =     -4100.266250
siesta: FreeEng =     -4100.267285

        iscf     Eharris(eV)        E_KS(eV)     FreeEng(eV)     dDmax    Ef(eV) dHmax(eV)
   scf:    1    -4020.393124    -4100.266250    -4100.267285  0.965620 -4.903673 21.937835
     spin moment: S , {S} =    2.00582  -0.00000   0.00000   2.00582
timer: Routine,Calls,Time,% = IterSCF        1       6.452  24.78
   scf:    2    -4146.480095    -4135.552030    -4135.554475  0.448883 -4.223932 11.399949
     spin moment: S , {S} =    1.98599  -0.00000  -0.00000   1.98599
   scf:    3    -4105.296731    -4132.693642    -4132.709078  0.421072 -4.338134 12.298280
     spin moment: S , {S} =    2.16530  -0.00000  -0.00000   2.16530
   scf:    4    -4149.596483    -4144.798401    -4144.798402  0.321869 -3.920855  7.390619
     spin moment: S , {S} =    0.00010  -0.00000  -0.00000   0.00010
   scf:    5    -4146.173025    -4145.589817    -4145.589817  0.036575 -3.727777  4.733923
     spin moment: S , {S} =    0.00006  -0.00000   0.00000   0.00006
   scf:    6    -4146.359341    -4145.983739    -4145.983739  0.024257 -3.657976  2.335561
     spin moment: S , {S} =    0.00003  -0.00000   0.00000   0.00003
   scf:    7    -4146.341265    -4146.158519    -4146.158519  0.021610 -3.557250  0.890910
     spin moment: S , {S} =    0.00001  -0.00000  -0.00000   0.00001
   scf:    8    -4146.277795    -4146.216193    -4146.216193  0.012173 -3.800617  0.509184
     spin moment: S , {S} =    0.00000  -0.00000  -0.00000   0.00000
   scf:    9    -4146.255055    -4146.234941    -4146.234941  0.006601 -3.755437  0.391680
     spin moment: S , {S} =    0.00000  -0.00000  -0.00000   0.00000
   scf:   10    -4146.287488    -4146.254339    -4146.254339  0.022384 -3.784206  0.240956
     spin moment: S , {S} =    0.00000  -0.00000  -0.00000  -0.00000
   scf:   11    -4146.258363    -4146.256373    -4146.256373  0.005731 -3.773429  0.067275
     spin moment: S , {S} =    0.00000   0.00000  -0.00000  -0.00000
   scf:   12    -4146.257673    -4146.257037    -4146.257037  0.001070 -3.771146  0.030525
     spin moment: S , {S} =    0.00000   0.00000  -0.00000  -0.00000
   scf:   13    -4146.257572    -4146.257302    -4146.257302  0.001184 -3.768129  0.019920
     spin moment: S , {S} =    0.00000   0.00000  -0.00000  -0.00000
   scf:   14    -4146.257585    -4146.257437    -4146.257437  0.000857 -3.765465  0.011491
     spin moment: S , {S} =    0.00000   0.00000  -0.00000  -0.00000
   scf:   15    -4146.257546    -4146.257488    -4146.257488  0.000771 -3.766824  0.007333
     spin moment: S , {S} =    0.00000   0.00000  -0.00000  -0.00000
   scf:   16    -4146.257551    -4146.257517    -4146.257517  0.000718 -3.768575  0.005436
     spin moment: S , {S} =    0.00000   0.00000  -0.00000   0.00000
   scf:   17    -4146.257535    -4146.257525    -4146.257525  0.000403 -3.768464  0.003959
     spin moment: S , {S} =    0.00000   0.00000  -0.00000   0.00000
   scf:   18    -4146.257533    -4146.257529    -4146.257529  0.000262 -3.768643  0.002668
     spin moment: S , {S} =    0.00000   0.00000  -0.00000   0.00000
   scf:   19    -4146.257533    -4146.257530    -4146.257530  0.000225 -3.766375  0.001762
     spin moment: S , {S} =    0.00000   0.00000  -0.00000   0.00000
   scf:   20    -4146.257532    -4146.257531    -4146.257531  0.000116 -3.766405  0.001270
     spin moment: S , {S} =    0.00000   0.00000  -0.00000   0.00000
   scf:   21    -4146.257533    -4146.257532    -4146.257532  0.000173 -3.768830  0.000683
     spin moment: S , {S} =    0.00000   0.00000  -0.00000   0.00000
   scf:   22    -4146.257532    -4146.257532    -4146.257532  0.000110 -3.768799  0.000222
     spin moment: S , {S} =    0.00000   0.00000  -0.00000   0.00000
   scf:   23    -4146.257532    -4146.257532    -4146.257532  0.000035 -3.768792  0.000163
     spin moment: S , {S} =    0.00000   0.00000  -0.00000   0.00000
   scf:   24    -4146.257532    -4146.257532    -4146.257532  0.000016 -3.768796  0.000098
     spin moment: S , {S} =    0.00000   0.00000  -0.00000   0.00000
mix: Pulay -- resetting history
   scf:   25    -4146.257532    -4146.257532    -4146.257532  0.000010 -3.768801  0.000047
     spin moment: S , {S} =    0.00000   0.00000  -0.00000   0.00000
   scf:   26    -4146.257532    -4146.257532    -4146.257532  0.000003 -3.768802  0.000030
     spin moment: S , {S} =    0.00000   0.00000  -0.00000   0.00000
   scf:   27    -4146.257532    -4146.257532    -4146.257532  0.000003 -3.768800  0.000019
     spin moment: S , {S} =    0.00000   0.00000  -0.00000   0.00000
   scf:   28    -4146.257532    -4146.257532    -4146.257532  0.000002 -3.768799  0.000011
     spin moment: S , {S} =    0.00000   0.00000  -0.00000  -0.00000
   scf:   29    -4146.257532    -4146.257532    -4146.257532  0.000001 -3.768798  0.000006
     spin moment: S , {S} =    0.00000   0.00000  -0.00000  -0.00000
   scf:   30    -4146.257532    -4146.257532    -4146.257532  0.000001 -3.768798  0.000002
     spin moment: S , {S} =    0.00000   0.00000  -0.00000  -0.00000
   scf:   31    -4146.257532    -4146.257532    -4146.257532  0.000000 -3.768799  0.000001
     spin moment: S , {S} =    0.00000   0.00000  -0.00000  -0.00000
   scf:   32    -4146.257532    -4146.257532    -4146.257532  0.000000 -3.768799  0.000001
     spin moment: S , {S} =    0.00000   0.00000  -0.00000  -0.00000
   scf:   33    -4146.257532    -4146.257532    -4146.257532  0.000000 -3.768799  0.000001
     spin moment: S , {S} =    0.00000   0.00000  -0.00000  -0.00000

SCF Convergence by DM+H criterion
max |DM_out - DM_in|         :     0.0000001248
max |H_out - H_in|      (eV) :     0.0000005542
SCF cycle converged after 33 iterations

Using DM_out to compute the final energy and forces
No. of atoms with KB's overlaping orbs in proc 0. Max # of overlaps:      28     142

siesta: E_KS(eV) =            -4146.2575

siesta: E_KS - E_eggbox =     -4146.2575
     spin moment: S , {S} =    0.00000   0.00000  -0.00000  -0.00000

siesta: Atomic forces (eV/Ang):
     1    0.034008   -0.043529    0.000000
     2   -0.557281    0.303636    0.000000
     3    0.444373   -0.020893    0.000000
     4   -0.126490    0.117541    0.000000
     5   -0.214272   -0.228399   -0.000000
     6   -0.032747    0.018854   -0.000000
     7    1.224825    1.086905    0.000000
     8    0.769007   -2.356498   -0.000000
     9   -1.310121    1.862125   -0.000000
    10    0.114432   -0.151618    0.000000
    11   -1.068166   -0.342153   -0.000000
    12    1.271333   -0.225585   -0.000000
    13    2.108701   -2.125923    0.000000
    14   -0.009291   -0.087363   -0.000000
    15    0.116001    0.033914   -0.000000
    16    0.022439   -0.018245    0.000000
    17    0.022347    0.031870    0.000000
    18   -0.008431    0.050047    0.000000
    19    0.266179    0.026815   -0.000000
    20   -1.412778   -0.202270    0.000000
    21   -2.513208    2.402320   -0.000000
    22    0.389942    0.786526   -0.000000
    23    0.225316   -0.590508    0.000000
    24   -0.344288   -1.026654    0.000000
    25   -0.469277    1.608001    0.000000
    26    0.952489   -1.197482   -0.000000
    27   -0.202785    0.204540   -0.000000
    28    0.024646    0.826686    0.000000
    29   -0.320347   -0.435584    0.000000
----------------------------------------
   Tot   -0.603446    0.307076   -0.000000
----------------------------------------
   Max    2.513208
   Res    0.753861    sqrt( Sum f_i^2 / 3N )
----------------------------------------
   Max    2.513208    constrained

Stress tensor Voigt[x,y,z,yz,xz,xy] (kbar):        1.15        0.38       -0.08        0.00        0.00       -1.14
(Free)E + p*V (eV/cell)    -4148.0234
Target enthalpy (eV/cell)    -4146.2575

siesta: Eigenvalues (eV):
ik =     1
  -21.9721  -21.9721  -21.7499  -21.7499  -21.6143  -21.6143  -21.5461  -21.5461  -21.2542  -21.2542
  -20.9898  -20.9898  -20.8931  -20.8931  -19.8672  -19.8672  -19.3807  -19.3807  -19.3539  -19.3539
  -14.7306  -14.7306  -13.9373  -13.9373  -13.3290  -13.3290  -13.2470  -13.2470  -13.0950  -13.0950
  -12.9646  -12.9646  -12.8838  -12.8838  -12.5374  -12.5374  -12.4282  -12.4282  -12.0168  -12.0168
  -11.4922  -11.4922  -10.7996  -10.7996  -10.7904  -10.7904  -10.7851  -10.7851  -10.0543  -10.0543
   -9.5312   -9.5312   -9.3090   -9.3090   -8.8743   -8.8743   -8.7221   -8.7221   -8.7006   -8.7006
   -8.6588   -8.6588   -8.3791   -8.3791   -8.2187   -8.2187   -7.8453   -7.8453   -7.6506   -7.6506
   -7.5267   -7.5267   -7.3881   -7.3881   -7.2948   -7.2948   -6.9445   -6.9445   -6.7157   -6.7157
   -6.5394   -6.5394   -6.4494   -6.4494   -6.1364   -6.1364   -6.1075   -6.1075   -6.0614   -6.0614
   -5.6526   -5.6526   -5.6180   -5.6180   -5.4227   -5.4227   -4.3277   -4.3277   -3.2066   -3.2066
   -2.3337   -2.3337   -2.3256   -2.3256   -2.2823   -2.2823   -1.9566   -1.9566   -1.8790   -1.8790
   -1.8302   -1.8302   -1.7678   -1.7678   -1.6189   -1.6189   -1.5691   -1.5691   -0.9643   -0.9643
   -0.9355   -0.9355   -0.8410   -0.8410   -0.4419   -0.4419   -0.1223   -0.1223    0.0043    0.0043
    0.2136    0.2136    0.3822    0.3822    0.5247    0.5247    0.7149    0.7149    0.7368    0.7368
    0.9441    0.9441    1.1743    1.1743    1.3359    1.3359    1.3477    1.3477    1.4598    1.4598
    1.6869    1.6869    1.8242    1.8242    1.9139    1.9139    2.2674    2.2674    2.7050    2.7050
    2.7125    2.7125    2.8269    2.8269    2.9288    2.9288    3.1657    3.1657    3.3478    3.3478
    3.3511    3.3511    3.6835    3.6835    3.7825    3.7825    4.1288    4.1288    4.2035    4.2035
    4.4537    4.4537    4.4833    4.4833    4.5514    4.5514    4.5993    4.5993    4.7586    4.7586
    4.9069    4.9069    4.9549    4.9549    5.2011    5.2011    5.5410    5.5410    5.6346    5.6346
    5.7121    5.7121    5.8068    5.8068    5.8070    5.8070    5.8681    5.8681    5.9495    5.9495
    6.1907    6.1907    6.3294    6.3294    6.6442    6.6442    6.6592    6.6592    6.8685    6.8685
    7.0514    7.0514    7.1413    7.1413    7.3884    7.3884    7.4650    7.4650    7.7287    7.7287
    7.8270    7.8270    7.9707    7.9707    8.1237    8.1237    8.2233    8.2233    8.3199    8.3199
    8.4316    8.4316    8.6777    8.6777    8.8106    8.8106    8.9243    8.9243    9.1550    9.1550
    9.1591    9.1591    9.1844    9.1844    9.7744    9.7744    9.8000    9.8000    9.8412    9.8412
   10.0290   10.0290   10.1967   10.1967   10.4125   10.4125   10.6690   10.6690   10.7450   10.7450
   10.8873   10.8873   10.9339   10.9339   11.2218   11.2218   11.6604   11.6604   11.6620   11.6620
   11.7740   11.7740   11.8948   11.8948   12.0101   12.0101   12.3198   12.3198   12.7495   12.7495
   12.7609   12.7609   12.7668   12.7668   13.2255   13.2255   13.4771   13.4771   13.5879   13.5879
   13.8292   13.8292   14.1425   14.1425   14.2225   14.2225   14.5615   14.5615   14.7086   14.7086
   14.9103   14.9103   15.3763   15.3763   15.9724   15.9724   16.4188   16.4188   16.7416   16.7416
   16.8826   16.8826   17.3408   17.3408   17.6170   17.6170   18.1182   18.1182   18.3537   18.3537
   18.5802   18.5802   19.2493   19.2493   19.3192   19.3192   19.8360   19.8360   20.3087   20.3087
   20.9894   20.9894   21.2688   21.2688   21.8980   21.8980   22.2804   22.2804   22.2913   22.2913
   22.9033   22.9033   23.1788   23.1788   23.6341   23.6341   23.7959   23.7959   23.8826   23.8826
   24.8413   24.8413   25.2944   25.2944   26.0120   26.0120   26.6520   26.6520   27.3459   27.3459
   28.0459   28.0459   28.8782   28.8782   29.1787   29.1787   29.3154   29.3154   29.6373   29.6373
   29.9015   29.9015   30.0231   30.0231   30.1976   30.1976   30.6517   30.6517   30.7755   30.7755
   30.9785   30.9785   31.2373   31.2373   31.5413   31.5413   31.6698   31.6698   32.0367   32.0367
   32.5956   32.5956   33.7460   33.7460   34.5741   34.5741   34.7056   34.7056   34.9737   34.9737
   35.0391   35.0391   35.1410   35.1410   35.4775   35.4775   35.5651   35.5651   35.9750   35.9750
   36.6889   36.6889   36.7485   36.7485   36.9997   36.9997   37.1899   37.1899   37.4194   37.4194
   38.1976   38.1976   38.2770   38.2770   39.2803   39.2803   39.4083   39.4083   39.7297   39.7297
   40.3847   40.3847   40.4972   40.4972   40.5096   40.5096   40.6784   40.6784   40.8336   40.8336
   40.8804   40.8804   41.2120   41.2120   42.4881   42.4881   42.7562   42.7562   42.9117   42.9117
   43.2857   43.2857   43.8120   43.8120   43.8339   43.8339   43.9392   43.9392   44.3360   44.3360
   44.6149   44.6149   44.7277   44.7277   44.9741   44.9741   45.3359   45.3359   46.0915   46.0915
   46.1232   46.1232   46.9445   46.9445   47.2857   47.2857   48.8471   48.8471   49.0130   49.0130
   49.3697   49.3697   50.2707   50.2707   50.4917   50.4917   51.0045   51.0045   51.0332   51.0332
   51.5982   51.5982   51.6894   51.6894   52.6723   52.6723   52.6867   52.6867   54.2104   54.2104
   54.3126   54.3126   54.4445   54.4445   54.4720   54.4720   55.6306   55.6306   55.7010   55.7010
   55.8135   55.8135   55.8842   55.8842   56.4302   56.4302   57.9841   57.9841   58.2720   58.2720
   58.5461   58.5461   60.0557   60.0557   60.1967   60.1967   60.4024   60.4024   61.0514   61.0514
   61.8605   61.8605   61.8659   61.8659   62.0609   62.0609   64.6820   64.6820   66.5839   66.5839
   66.7197   66.7197   67.1248   67.1248   68.0939   68.0939   68.3989   68.3989   70.8188   70.8188
   73.6893   73.6893   80.1783   80.1783   90.9997   90.9997   92.0782   92.0782   93.1925   93.1925
   98.2776   98.2776   98.4849   98.4849   99.5143   99.5143  103.0470  103.0470  103.5645  103.5645
  109.9608  109.9608  111.5069  111.5069  123.9775  123.9775  126.2729  126.2729  129.0299  129.0299
  135.0565  135.0565  138.0921  138.0921
siesta: Fermi energy =      -3.768799 eV

siesta: Program's energy decomposition (eV):
siesta: Ebs     =     -1135.574883
siesta: Eions   =      3585.165840
siesta: Ena     =       381.828398
siesta: Ekin    =      2902.580698
siesta: Enl     =     -2787.166782
siesta: Eso     =        -0.004279
siesta: Edftu   =         0.000000
siesta: DEna    =        46.869074
siesta: DUscf   =        14.365380
siesta: DUext   =         0.000000
siesta: Exc     =     -1119.564183
siesta: eta*DQ  =         0.000000
siesta: Emadel  =         0.000000
siesta: Emeta   =         0.000000
siesta: Emolmec =         0.000000
siesta: Ekinion =         0.000000
siesta: Eharris =     -4146.257532
siesta: Etot    =     -4146.257532
siesta: FreeEng =     -4146.257532

siesta: Final energy (eV):
siesta:  Band Struct. =   -1135.574883
siesta:       Kinetic =    2902.580698
siesta:       Hartree =    8083.074867
siesta:       Edftu   =       0.000000
siesta:       Eso     =      -0.004279
siesta:    Ext. field =       0.000000
siesta:   Exch.-corr. =   -1119.564183
siesta:  Ion-electron =  -18750.981162
siesta:       Ion-ion =    4738.636526
siesta:       Ekinion =       0.000000
siesta:         Total =   -4146.257532
siesta:         Fermi =      -3.768799

siesta: Atomic forces (eV/Ang):
siesta:      1    0.034008   -0.043529    0.000000
siesta:      2   -0.557281    0.303636    0.000000
siesta:      3    0.444373   -0.020893    0.000000
siesta:      4   -0.126490    0.117541    0.000000
siesta:      5   -0.214272   -0.228399   -0.000000
siesta:      6   -0.032747    0.018854   -0.000000
siesta:      7    1.224825    1.086905    0.000000
siesta:      8    0.769007   -2.356498   -0.000000
siesta:      9   -1.310121    1.862125   -0.000000
siesta:     10    0.114432   -0.151618    0.000000
siesta:     11   -1.068166   -0.342153   -0.000000
siesta:     12    1.271333   -0.225585   -0.000000
siesta:     13    2.108701   -2.125923    0.000000
siesta:     14   -0.009291   -0.087363   -0.000000
siesta:     15    0.116001    0.033914   -0.000000
siesta:     16    0.022439   -0.018245    0.000000
siesta:     17    0.022347    0.031870    0.000000
siesta:     18   -0.008431    0.050047    0.000000
siesta:     19    0.266179    0.026815   -0.000000
siesta:     20   -1.412778   -0.202270    0.000000
siesta:     21   -2.513208    2.402320   -0.000000
siesta:     22    0.389942    0.786526   -0.000000
siesta:     23    0.225316   -0.590508    0.000000
siesta:     24   -0.344288   -1.026654    0.000000
siesta:     25   -0.469277    1.608001    0.000000
siesta:     26    0.952489   -1.197482   -0.000000
siesta:     27   -0.202785    0.204540   -0.000000
siesta:     28    0.024646    0.826686    0.000000
siesta:     29   -0.320347   -0.435584    0.000000
siesta: ----------------------------------------
siesta:    Tot   -0.603446    0.307076   -0.000000

siesta: Stress tensor (static) (eV/Ang**3):
siesta:     0.000719   -0.000710    0.000000
siesta:    -0.000710    0.000238    0.000000
siesta:     0.000000    0.000000   -0.000052

siesta: Cell volume =       5857.732144 Ang**3

siesta: Pressure (static):
siesta:                Solid            Molecule  Units
siesta:          -0.00000328          0.00000901  Ry/Bohr**3
siesta:          -0.00030147          0.00082715  eV/Ang**3
siesta:          -0.48300964          1.32524970  kBar
(Free)E+ p_basis*V_orbitals  =       -4126.407115
(Free)Eharris+ p_basis*V_orbitals  =       -4126.407115
     spin moment: S , {S} =    0.00000   0.00000  -0.00000  -0.00000

siesta: Electric dipole (a.u.)  =    0.061481    1.492612   -0.000000
siesta: Electric dipole (Debye) =    0.156268    3.793843   -0.000000

cite: Please see "GC.bib" for an exhaustive BiBTeX file.
cite: Please clearly indicate Siesta version in published work: v4.1.5-1-g384057250
cite: This calculation has made use of the following articles
cite: which are encouraged to be cited in a published work.
        Primary SIESTA paper
          DOI: www.doi.org/10.1088/0953-8984/14/11/302
        Spin-orbit coupling (on-site approximation)
          DOI: www.doi.org/10.1088/0953-8984/19/19/489001


WARNING: alloc-realloc-dealloc name mismatch
         Name: atomlist isa
         Size:              -116. Bytes
         Node:     0
         Subsequent mismatches will not be reported
>> End of run:  16-OCT-2023  19:23:49
Job completed
