Siesta Version  : v4.1.5-1-g384057250
Architecture    : gcc
Compiler version: GNU Fortran (Ubuntu 11.4.0-1ubuntu1~22.04) 11.4.0
Compiler flags  : mpifort -O2 -fPIC -ftree-vectorize -fallow-argument-mismatch
PP flags        : -DFC_HAVE_ABORT -DMPI -DSIESTA__FLOOK -DSIESTA__METIS -DSIESTA__MUMPS -DCDF -DNCDF -DNCDF_4 -DNCDF_PARALLEL -DSIESTA__MRRR -DSIESTA__ELPA
Libraries       : libncdf.a libfdict.a  -lflookall -ldl -lnetcdff -lnetcdf -lhdf5_hl -lhdf5 -lhdf5_fortran -lz -lscalapack-openmpi -lopenblas -lmetis -lzmumps -lcmumps -ldmumps -lmumps_common -lpord -lsmumps -lesmumps -lscotch -lscotcherr -fopenmp -lelpa
PARALLEL version
NetCDF support
NetCDF-4 support
NetCDF-4 MPI-IO support
METIS ordering support
Lua support

* Running on 8 nodes in parallel
>> Start of run:   1-FEB-2024  20:13:53

                           ***********************       
                           *  WELCOME TO SIESTA  *       
                           ***********************       

reinit: Reading from standard input
reinit: Dumped input in INPUT_TMP.03553
************************** Dump of input data file ****************************
# mpirun -np 4 siesta-4.1.5 < AT.fdf > AT.out &
SystemLabel      AT
NumberOfAtoms    30
NumberOfSpecies  4
%block ChemicalSpeciesLabel
    1    1  H
    2    7  N
    3   14  Si
    4    8  O
%endblock ChemicalSpeciesLabel
############################################
# This overrides Defaults.fdf configuration
############################################
MD.TypeOfRun                Verlet # CG, Verlet
MD.Steps                    0
MaxSCFIterations            200
SCF.MustConverge            F
AtomicCoordinatesFormat NotScaledCartesianAng
%block AtomicCoordinatesAndAtomicSpecies
    2.28494382 -5.19529124 0.0  1  1  H
    1.37433094 -4.6647107 0.0  2  2  N
    -0.21830245 -5.49458215 0.0  3  3  Si
    -0.17484108 -6.98516892 0.0  1  4  H
    -1.66171682 -4.58600741 0.0  2  5  N
    -1.09026419 -2.87456374 0.0  3  6  Si
    -1.53038332 -0.70765692 0.0  3  7  Si
    -3.14415959 -0.09186471 0.0  2  8  N
    -3.40268075 0.95848335 0.0  1  9  H
    -3.95073599 -0.76720972 0.0  1  10  H
    -0.17836637 0.41349951 0.0  2  11  N
    1.49520211 -0.0473996 0.0  3  12  Si
    2.45603905 1.10727302 0.0  1  13  H
    2.30451743 -1.58574382 0.0  2  14  N
    1.10725559 -2.84610319 0.0  3  15  Si
    0.2069450391764444 10.152549347644086 0.0  1  16  H
    -0.6017656408235557 9.460343467644087 0.0  2  17  N
    -2.2583554808235555 10.173463567644086 0.0  3  18  Si
    -2.1614903108235555 11.684188777644085 0.0  1  19  H
    -3.9845118308235556 8.830415437644085 0.0  3  20  Si
    -6.338966080823556 8.822428507644087 0.0  3  21  Si
    -6.901384200823556 9.556918157644086 -1.20183078  1  22  H
    -6.638779830823556 7.343337377644086 -0.08618332  1  23  H
    -6.901496660823556 9.387260967644085 1.28814761  1  24  H
    -3.055121190823556 6.759844207644086 0.0  3  25  Si
    -4.004589550823556 5.471308077644085 0.0  4  26  O
    -1.2641763208235557 6.586108737644086 0.0  2  27  N
    -0.9331849608235556 5.553751757644086 0.0  1  28  H
    0.04428189917644437 7.780655157644086 0.0  3  29  Si
    1.6102188291764443 7.513408307644086 0.0  4  30  O
%endblock AtomicCoordinatesAndAtomicSpecies
#############
# Unit Cell
#############
LatticeConstant 1.0 Ang
%block LatticeVectors
    30.00000    0.000000    0.000000
    0.000000    45.00000    0.000000
    0.000000    0.000000    10.00000
%endblock LatticeVectors
%include ../../../../Defaults.fdf
************************** End of input data file *****************************

reinit: -----------------------------------------------------------------------
reinit: System Name: 
reinit: -----------------------------------------------------------------------
reinit: System Label: AT
reinit: -----------------------------------------------------------------------

initatom: Reading input for the pseudopotentials and atomic orbitals ----------
Species number:   1 Atomic number:    1 Label: H
Species number:   2 Atomic number:    7 Label: N
Species number:   3 Atomic number:   14 Label: Si
Species number:   4 Atomic number:    8 Label: O

Ground state valence configuration:   1s01
Reading pseudopotential information in formatted form from H.psf

Pseudopotential generated from a relativistic atomic calculation

Valence configuration for pseudopotential generation:
1s( 1.00) rc: 0.01
2p( 0.00) rc: 0.60
3d( 0.00) rc: 1.99
4f( 0.00) rc: 2.49
Ground state valence configuration:   2s02  2p03
Reading pseudopotential information in formatted form from N.psf

Pseudopotential generated from a relativistic atomic calculation

Valence configuration for pseudopotential generation:
2s( 2.00) rc: 0.94
2p( 3.00) rc: 0.59
3d( 0.00) rc: 3.46
4f( 0.00) rc: 2.47
Ground state valence configuration:   3s02  3p02
Reading pseudopotential information in formatted form from Si.psf

Pseudopotential generated from a relativistic atomic calculation

Valence configuration for pseudopotential generation:
3s( 2.00) rc: 1.67
3p( 2.00) rc: 2.04
3d( 0.00) rc: 2.89
4f( 0.00) rc: 2.49
Ground state valence configuration:   2s02  2p04
Reading pseudopotential information in formatted form from O.psf

Pseudopotential generated from a relativistic atomic calculation

Valence configuration for pseudopotential generation:
2s( 2.00) rc: 0.45
2p( 4.00) rc: 0.92
3d( 0.00) rc: 2.24
4f( 0.00) rc: 0.25
For H, standard SIESTA heuristics set lmxkb to 2
 (one more than the basis l, including polarization orbitals).
Use PS.lmax or PS.KBprojectors blocks to override.
For N, standard SIESTA heuristics set lmxkb to 3
 (one more than the basis l, including polarization orbitals).
Use PS.lmax or PS.KBprojectors blocks to override.
For Si, standard SIESTA heuristics set lmxkb to 3
 (one more than the basis l, including polarization orbitals).
Use PS.lmax or PS.KBprojectors blocks to override.
For O, standard SIESTA heuristics set lmxkb to 3
 (one more than the basis l, including polarization orbitals).
Use PS.lmax or PS.KBprojectors blocks to override.

<basis_specs>
===============================================================================
H                    Z=   1    Mass=  1.0100        Charge= 0.17977+309
Lmxo=0 Lmxkb= 2    BasisType=split      Semic=F
L=0  Nsemic=0  Cnfigmx=1
          i=1  nzeta=2  polorb=1  (1s)
            splnorm:   0.62000    
               vcte:    0.0000    
               rinn:    0.0000    
               qcoe:    0.0000    
               qyuk:    0.0000    
               qwid:   0.10000E-01
                rcs:    0.0000      0.0000    
            lambdas:    1.0000      1.0000    
-------------------------------------------------------------------------------
L=0  Nkbl=1  erefs: 0.17977+309
L=1  Nkbl=1  erefs: 0.17977+309
L=2  Nkbl=1  erefs: 0.17977+309
===============================================================================
</basis_specs>

atom: Called for H                     (Z =   1)

read_vps: Pseudopotential generation method:
read_vps: ATM4.2.7  Troullier-Martins                       
Valence charge for ps generation:    1.00000

xc_check: Exchange-correlation functional:
xc_check: GGA Perdew, Burke & Ernzerhof 1996
V l=0 = -2*Zval/r beyond r=  0.0098
V l=1 = -2*Zval/r beyond r=  0.5817
V l=2 = -2*Zval/r beyond r=  1.9372
All V_l potentials equal beyond r=  1.9372
This should be close to max(r_c) in ps generation
All pots = -2*Zval/r beyond r=  1.9372

VLOCAL1: 99.0% of the norm of Vloc inside     11.567 Ry
VLOCAL1: 99.9% of the norm of Vloc inside     26.362 Ry
atom: Maximum radius for 4*pi*r*r*local-pseudopot. charge    2.25106
atom: Maximum radius for r*vlocal+2*Zval:    1.91306
GHOST: No ghost state for L =  0
GHOST: No ghost state for L =  1
GHOST: No ghost state for L =  2

KBgen: Kleinman-Bylander projectors: 
   l= 0   rc=  2.036604   el= -0.477180   Ekb= -6.081590   kbcos= -0.277285
   l= 1   rc=  2.195416   el=  0.001076   Ekb= -0.926943   kbcos= -0.034643
   l= 2   rc=  2.251056   el=  0.002010   Ekb= -0.130941   kbcos= -0.009788

KBgen: Total number of Kleinman-Bylander projectors:    9
atom: -------------------------------------------------------------------------

atom: SANKEY-TYPE ORBITALS:
atom: Selected multiple-zeta basis: split     

SPLIT: Orbitals with angular momentum L= 0

SPLIT: Basis orbitals for state 1s

SPLIT: PAO cut-off radius determined from an
SPLIT: energy shift=  0.002000 Ry

   izeta = 1
                 lambda =    1.000000
                     rc =    6.518340
                 energy =   -0.475305
                kinetic =    0.912139
    potential(screened) =   -1.387444
       potential(ionic) =   -1.907295

   izeta = 2
                 rmatch =    2.141150
              splitnorm =    0.620000
                 energy =    0.566467
                kinetic =    3.772856
    potential(screened) =   -3.206389
       potential(ionic) =   -3.759093

POLgen: Perturbative polarization orbital with L=  1

POLgen: Polarization orbital for state 1s

   izeta = 1
                     rc =    6.518340
                 energy =    0.533861
                kinetic =    1.121086
    potential(screened) =   -0.587225
       potential(ionic) =   -1.053027
atom: Total number of Sankey-type orbitals:  5

atm_pop: Valence configuration (for local Pseudopot. screening):
 1s( 1.00)                                                            
Vna: chval, zval:    1.00000   1.00000

Vna:  Cut-off radius for the neutral-atom potential:   6.518340

atom: _________________________________________________________________________

<basis_specs>
===============================================================================
N                    Z=   7    Mass=  14.010        Charge= 0.17977+309
Lmxo=1 Lmxkb= 3    BasisType=split      Semic=F
L=0  Nsemic=0  Cnfigmx=2
          i=1  nzeta=2  polorb=0  (2s)
            splnorm:   0.28000    
               vcte:    0.0000    
               rinn:    0.0000    
               qcoe:    0.0000    
               qyuk:    0.0000    
               qwid:   0.10000E-01
                rcs:    0.0000      0.0000    
            lambdas:    1.0000      1.0000    
L=1  Nsemic=0  Cnfigmx=2
          i=1  nzeta=2  polorb=1  (2p)
            splnorm:   0.28000    
               vcte:    0.0000    
               rinn:    0.0000    
               qcoe:    0.0000    
               qyuk:    0.0000    
               qwid:   0.10000E-01
                rcs:    0.0000      0.0000    
            lambdas:    1.0000      1.0000    
-------------------------------------------------------------------------------
L=0  Nkbl=1  erefs: 0.17977+309
L=1  Nkbl=1  erefs: 0.17977+309
L=2  Nkbl=1  erefs: 0.17977+309
L=3  Nkbl=1  erefs: 0.17977+309
===============================================================================
</basis_specs>

atom: Called for N                     (Z =   7)

read_vps: Pseudopotential generation method:
read_vps: ATM4.2.7  Troullier-Martins                       
Valence charge for ps generation:    5.00000

xc_check: Exchange-correlation functional:
xc_check: GGA Perdew, Burke & Ernzerhof 1996
V l=0 = -2*Zval/r beyond r=  1.2889
V l=1 = -2*Zval/r beyond r=  1.2889
V l=2 = -2*Zval/r beyond r=  3.4178
V l=3 = -2*Zval/r beyond r=  2.4084
All V_l potentials equal beyond r=  3.3753
This should be close to max(r_c) in ps generation
All pots = -2*Zval/r beyond r=  3.4178

VLOCAL1: 99.0% of the norm of Vloc inside      3.810 Ry
VLOCAL1: 99.9% of the norm of Vloc inside      8.683 Ry
atom: Maximum radius for 4*pi*r*r*local-pseudopot. charge    4.02088
atom: Maximum radius for r*vlocal+2*Zval:    3.54838
GHOST: No ghost state for L =  0
GHOST: No ghost state for L =  1
GHOST: No ghost state for L =  2
GHOST: No ghost state for L =  3

KBgen: Kleinman-Bylander projectors: 
   l= 0   rc=  3.417763   el= -1.365098   Ekb= -4.433130   kbcos= -0.707855
   l= 1   rc=  3.375302   el= -0.521201   Ekb=-13.264039   kbcos= -0.535594
   l= 2   rc=  3.872880   el=  0.001991   Ekb= -0.641094   kbcos= -0.062456
   l= 3   rc=  3.970931   el=  0.003093   Ekb= -0.474517   kbcos= -0.018236

KBgen: Total number of Kleinman-Bylander projectors:   16
atom: -------------------------------------------------------------------------

atom: SANKEY-TYPE ORBITALS:
atom: Selected multiple-zeta basis: split     

SPLIT: Orbitals with angular momentum L= 0

SPLIT: Basis orbitals for state 2s

SPLIT: PAO cut-off radius determined from an
SPLIT: energy shift=  0.002000 Ry

   izeta = 1
                 lambda =    1.000000
                     rc =    4.730425
                 energy =   -1.363399
                kinetic =    1.245246
    potential(screened) =   -2.608645
       potential(ionic) =   -8.121105

   izeta = 2
                 rmatch =    2.531849
              splitnorm =    0.280000
                 energy =   -0.959908
                kinetic =    2.409435
    potential(screened) =   -3.369343
       potential(ionic) =   -9.427975

SPLIT: Orbitals with angular momentum L= 1

SPLIT: Basis orbitals for state 2p

SPLIT: PAO cut-off radius determined from an
SPLIT: energy shift=  0.002000 Ry

   izeta = 1
                 lambda =    1.000000
                     rc =    5.924108
                 energy =   -0.519262
                kinetic =    3.672940
    potential(screened) =   -4.192202
       potential(ionic) =   -9.518354

   izeta = 2
                 rmatch =    2.531849
              splitnorm =    0.280000
                 energy =   -0.104258
                kinetic =    6.807538
    potential(screened) =   -6.911796
       potential(ionic) =  -13.149920

POLgen: Perturbative polarization orbital with L=  2

POLgen: Polarization orbital for state 2p

   izeta = 1
                     rc =    5.924108
                 energy =    1.427508
                kinetic =    2.872379
    potential(screened) =   -1.444871
       potential(ionic) =   -5.563644
atom: Total number of Sankey-type orbitals: 13

atm_pop: Valence configuration (for local Pseudopot. screening):
 2s( 2.00)                                                            
 2p( 3.00)                                                            
Vna: chval, zval:    5.00000   5.00000

Vna:  Cut-off radius for the neutral-atom potential:   5.924108

atom: _________________________________________________________________________

<basis_specs>
===============================================================================
Si                   Z=  14    Mass=  28.090        Charge= 0.17977+309
Lmxo=1 Lmxkb= 3    BasisType=split      Semic=F
L=0  Nsemic=0  Cnfigmx=3
          i=1  nzeta=2  polorb=0  (3s)
            splnorm:   0.28000    
               vcte:    0.0000    
               rinn:    0.0000    
               qcoe:    0.0000    
               qyuk:    0.0000    
               qwid:   0.10000E-01
                rcs:    0.0000      0.0000    
            lambdas:    1.0000      1.0000    
L=1  Nsemic=0  Cnfigmx=3
          i=1  nzeta=2  polorb=1  (3p)
            splnorm:   0.28000    
               vcte:    0.0000    
               rinn:    0.0000    
               qcoe:    0.0000    
               qyuk:    0.0000    
               qwid:   0.10000E-01
                rcs:    0.0000      0.0000    
            lambdas:    1.0000      1.0000    
-------------------------------------------------------------------------------
L=0  Nkbl=1  erefs: 0.17977+309
L=1  Nkbl=1  erefs: 0.17977+309
L=2  Nkbl=1  erefs: 0.17977+309
L=3  Nkbl=1  erefs: 0.17977+309
===============================================================================
</basis_specs>

atom: Called for Si                    (Z =  14)

read_vps: Pseudopotential generation method:
read_vps: ATM4.2.7  Troullier-Martins                       
Valence charge for ps generation:    4.00000

xc_check: Exchange-correlation functional:
xc_check: GGA Perdew, Burke & Ernzerhof 1996
V l=0 = -2*Zval/r beyond r=  2.7826
V l=1 = -2*Zval/r beyond r=  2.7826
V l=2 = -2*Zval/r beyond r=  2.9253
V l=3 = -2*Zval/r beyond r=  2.7826
All V_l potentials equal beyond r=  2.8530
This should be close to max(r_c) in ps generation
All pots = -2*Zval/r beyond r=  2.9253

VLOCAL1: 99.0% of the norm of Vloc inside      5.333 Ry
VLOCAL1: 99.9% of the norm of Vloc inside     12.154 Ry
atom: Maximum radius for 4*pi*r*r*local-pseudopot. charge    3.39869
atom: Maximum radius for r*vlocal+2*Zval:    2.96205
GHOST: No ghost state for L =  0
GHOST: No ghost state for L =  1
GHOST: No ghost state for L =  2
GHOST: No ghost state for L =  3

KBgen: Kleinman-Bylander projectors: 
   l= 0   rc=  3.075247   el= -0.794092   Ekb=  5.879390   kbcos=  0.167461
   l= 1   rc=  3.153101   el= -0.300068   Ekb=  2.642817   kbcos=  0.058301
   l= 2   rc=  3.273594   el=  0.001958   Ekb= -1.185135   kbcos= -0.104411
   l= 3   rc=  3.232927   el=  0.003046   Ekb= -0.497174   kbcos= -0.015889

KBgen: Total number of Kleinman-Bylander projectors:   16
atom: -------------------------------------------------------------------------

atom: SANKEY-TYPE ORBITALS:
atom: Selected multiple-zeta basis: split     

SPLIT: Orbitals with angular momentum L= 0

SPLIT: Basis orbitals for state 3s

SPLIT: PAO cut-off radius determined from an
SPLIT: energy shift=  0.002000 Ry

   izeta = 1
                 lambda =    1.000000
                     rc =    6.429618
                 energy =   -0.792283
                kinetic =    0.525293
    potential(screened) =   -1.317576
       potential(ionic) =   -3.744923

   izeta = 2
                 rmatch =    3.998416
              splitnorm =    0.280000
                 energy =   -0.583081
                kinetic =    1.069570
    potential(screened) =   -1.652651
       potential(ionic) =   -4.235185

SPLIT: Orbitals with angular momentum L= 1

SPLIT: Basis orbitals for state 3p

SPLIT: PAO cut-off radius determined from an
SPLIT: energy shift=  0.002000 Ry

   izeta = 1
                 lambda =    1.000000
                     rc =    8.464845
                 energy =   -0.298236
                kinetic =    0.785360
    potential(screened) =   -1.083596
       potential(ionic) =   -3.273779

   izeta = 2
                 rmatch =    4.587816
              splitnorm =    0.280000
                 energy =   -0.131871
                kinetic =    1.403687
    potential(screened) =   -1.535557
       potential(ionic) =   -4.015310

POLgen: Perturbative polarization orbital with L=  2

POLgen: Polarization orbital for state 3p

   izeta = 1
                     rc =    8.464845
                 energy =    0.321949
                kinetic =    1.055677
    potential(screened) =   -0.733728
       potential(ionic) =   -2.672950
atom: Total number of Sankey-type orbitals: 13

atm_pop: Valence configuration (for local Pseudopot. screening):
 3s( 2.00)                                                            
 3p( 2.00)                                                            
Vna: chval, zval:    4.00000   4.00000

Vna:  Cut-off radius for the neutral-atom potential:   8.464845

atom: _________________________________________________________________________

<basis_specs>
===============================================================================
O                    Z=   8    Mass=  16.000        Charge= 0.17977+309
Lmxo=1 Lmxkb= 3    BasisType=split      Semic=F
L=0  Nsemic=0  Cnfigmx=2
          i=1  nzeta=2  polorb=0  (2s)
            splnorm:   0.28000    
               vcte:    0.0000    
               rinn:    0.0000    
               qcoe:    0.0000    
               qyuk:    0.0000    
               qwid:   0.10000E-01
                rcs:    0.0000      0.0000    
            lambdas:    1.0000      1.0000    
L=1  Nsemic=0  Cnfigmx=2
          i=1  nzeta=2  polorb=1  (2p)
            splnorm:   0.28000    
               vcte:    0.0000    
               rinn:    0.0000    
               qcoe:    0.0000    
               qyuk:    0.0000    
               qwid:   0.10000E-01
                rcs:    0.0000      0.0000    
            lambdas:    1.0000      1.0000    
-------------------------------------------------------------------------------
L=0  Nkbl=1  erefs: 0.17977+309
L=1  Nkbl=1  erefs: 0.17977+309
L=2  Nkbl=1  erefs: 0.17977+309
L=3  Nkbl=1  erefs: 0.17977+309
===============================================================================
</basis_specs>

atom: Called for O                     (Z =   8)

read_vps: Pseudopotential generation method:
read_vps: ATM4.2.7  Troullier-Martins                       
Valence charge for ps generation:    6.00000

xc_check: Exchange-correlation functional:
xc_check: GGA Perdew, Burke & Ernzerhof 1996
V l=0 = -2*Zval/r beyond r=  1.1000
V l=1 = -2*Zval/r beyond r=  1.1000
V l=2 = -2*Zval/r beyond r=  2.2154
V l=3 = -2*Zval/r beyond r=  1.1000
All V_l potentials equal beyond r=  2.2154
This should be close to max(r_c) in ps generation
All pots = -2*Zval/r beyond r=  2.2154

VLOCAL1: 99.0% of the norm of Vloc inside      8.845 Ry
VLOCAL1: 99.9% of the norm of Vloc inside     20.157 Ry
atom: Maximum radius for 4*pi*r*r*local-pseudopot. charge    2.67231
atom: Maximum radius for r*vlocal+2*Zval:    2.32897
GHOST: No ghost state for L =  0
GHOST: No ghost state for L =  1
GHOST: No ghost state for L =  2
GHOST: No ghost state for L =  3

KBgen: Kleinman-Bylander projectors: 
   l= 0   rc=  2.243238   el= -1.759686   Ekb=**********   kbcos= -0.171774
   l= 1   rc=  2.328968   el= -0.663873   Ekb=-14.506792   kbcos= -0.519897
   l= 2   rc=  2.573941   el=  0.002031   Ekb= -1.137373   kbcos= -0.019581
   l= 3   rc=  2.606321   el=  0.003153   Ekb= -1.013546   kbcos= -0.003122

KBgen: Total number of Kleinman-Bylander projectors:   16
atom: -------------------------------------------------------------------------

atom: SANKEY-TYPE ORBITALS:
atom: Selected multiple-zeta basis: split     

SPLIT: Orbitals with angular momentum L= 0

SPLIT: Basis orbitals for state 2s

SPLIT: PAO cut-off radius determined from an
SPLIT: energy shift=  0.002000 Ry

   izeta = 1
                 lambda =    1.000000
                     rc =    4.243912
                 energy =   -1.758270
                kinetic =    3.286084
    potential(screened) =   -5.044353
       potential(ionic) =  -12.921184

   izeta = 2
                 rmatch =    2.187845
              splitnorm =    0.280000
                 energy =   -0.885018
                kinetic =    8.134434
    potential(screened) =   -9.019452
       potential(ionic) =  -17.710645

SPLIT: Orbitals with angular momentum L= 1

SPLIT: Basis orbitals for state 2p

SPLIT: PAO cut-off radius determined from an
SPLIT: energy shift=  0.002000 Ry

   izeta = 1
                 lambda =    1.000000
                     rc =    5.314825
                 energy =   -0.661986
                kinetic =    4.917472
    potential(screened) =   -5.579458
       potential(ionic) =  -13.236259

   izeta = 2
                 rmatch =    2.160663
              splitnorm =    0.280000
                 energy =   -0.068760
                kinetic =    9.183374
    potential(screened) =   -9.252135
       potential(ionic) =  -18.274251

POLgen: Perturbative polarization orbital with L=  2

POLgen: Polarization orbital for state 2p

   izeta = 1
                     rc =    5.314825
                 energy =    1.970580
                kinetic =    3.886128
    potential(screened) =   -1.915547
       potential(ionic) =   -7.749584
atom: Total number of Sankey-type orbitals: 13

atm_pop: Valence configuration (for local Pseudopot. screening):
 2s( 2.00)                                                            
 2p( 4.00)                                                            
Vna: chval, zval:    6.00000   6.00000

Vna:  Cut-off radius for the neutral-atom potential:   5.314825

atom: _________________________________________________________________________

prinput: Basis input ----------------------------------------------------------

PAO.BasisType split     

%block ChemicalSpeciesLabel
    1    1 H                       # Species index, atomic number, species label
    2    7 N                       # Species index, atomic number, species label
    3   14 Si                      # Species index, atomic number, species label
    4    8 O                       # Species index, atomic number, species label
%endblock ChemicalSpeciesLabel

%block PAO.Basis                 # Define Basis set
H                     1                    # Species label, number of l-shells
 n=1   0   2 P   1                   # n, l, Nzeta, Polarization, NzetaPol
   6.518      2.141   
   1.000      1.000   
N                     2                    # Species label, number of l-shells
 n=2   0   2                         # n, l, Nzeta 
   4.730      2.532   
   1.000      1.000   
 n=2   1   2 P   1                   # n, l, Nzeta, Polarization, NzetaPol
   5.924      2.532   
   1.000      1.000   
Si                    2                    # Species label, number of l-shells
 n=3   0   2                         # n, l, Nzeta 
   6.430      3.998   
   1.000      1.000   
 n=3   1   2 P   1                   # n, l, Nzeta, Polarization, NzetaPol
   8.465      4.588   
   1.000      1.000   
O                     2                    # Species label, number of l-shells
 n=2   0   2                         # n, l, Nzeta 
   4.244      2.188   
   1.000      1.000   
 n=2   1   2 P   1                   # n, l, Nzeta, Polarization, NzetaPol
   5.315      2.161   
   1.000      1.000   
%endblock PAO.Basis

prinput: ----------------------------------------------------------------------

Dumping basis to NetCDF file H.ion.nc
Dumping basis to NetCDF file N.ion.nc
Dumping basis to NetCDF file Si.ion.nc
Dumping basis to NetCDF file O.ion.nc
coor:   Atomic-coordinates input format  =     Cartesian coordinates
coor:                                          (in Angstroms)

siesta: Atomic coordinates (Bohr) and species
siesta:      4.31792  -9.81768   0.00000  1        1
siesta:      2.59711  -8.81503   0.00000  2        2
siesta:     -0.41253 -10.38326   0.00000  3        3
siesta:     -0.33040 -13.20006   0.00000  1        4
siesta:     -3.14019  -8.66630   0.00000  2        5
siesta:     -2.06030  -5.43214   0.00000  3        6
siesta:     -2.89201  -1.33728   0.00000  3        7
siesta:     -5.94160  -0.17360   0.00000  2        8
siesta:     -6.43014   1.81127   0.00000  1        9
siesta:     -7.46581  -1.44982   0.00000  1       10
siesta:     -0.33706   0.78140   0.00000  2       11
siesta:      2.82552  -0.08957   0.00000  3       12
siesta:      4.64124   2.09244   0.00000  1       13
siesta:      4.35491  -2.99662   0.00000  2       14
siesta:      2.09241  -5.37836   0.00000  3       15
siesta:      0.39107  19.18555   0.00000  1       16
siesta:     -1.13717  17.87747   0.00000  2       17
siesta:     -4.26768  19.22507   0.00000  3       18
siesta:     -4.08463  22.07993   0.00000  1       19
siesta:     -7.52964  16.68707   0.00000  3       20
siesta:    -11.97891  16.67198   0.00000  3       21
siesta:    -13.04173  18.05997  -2.27113  1       22
siesta:    -12.54548  13.87690  -0.16286  1       23
siesta:    -13.04194  17.73936   2.43425  1       24
siesta:     -5.77334  12.77426   0.00000  3       25
siesta:     -7.56758  10.33928   0.00000  4       26
siesta:     -2.38895  12.44595   0.00000  2       27
siesta:     -1.76346  10.49507   0.00000  1       28
siesta:      0.08368  14.70331   0.00000  3       29
siesta:      3.04287  14.19829   0.00000  4       30

siesta: System type = molecule  

initatomlists: Number of atoms, orbitals, and projectors:     30   302   403

siesta: ******************** Simulation parameters ****************************
siesta:
siesta: The following are some of the parameters of the simulation.
siesta: A complete list of the parameters used, including default values,
siesta: can be found in file out.fdf
siesta:
redata: Spin configuration                          = spin-orbit
redata: Number of spin components                   = 8
redata: Time-Reversal Symmetry                      = F
redata: Spin spiral                                 = F
############################################################
This spin-orbit implementation uses a local approximation.
From 4.2 and onwards the full non-local approximation is implemented
You are strongly advised to use >=4.2 versions!
############################################################
redata: Long output                                 =   F
redata: Number of Atomic Species                    =        4
redata: Charge density info will appear in .RHO file
redata: Write Mulliken Pop.                         = NO
redata: Matel table size (NRTAB)                    =     1024
redata: Mesh Cutoff                                 =   340.0000 Ry
redata: Net charge of the system                    =     0.0000 |e|
redata: Min. number of SCF Iter                     =        1
redata: Max. number of SCF Iter                     =      200
redata: SCF mix quantity                            = Hamiltonian
redata: Mix DM or H after convergence               =   F
redata: Recompute H after scf cycle                 =   F
redata: Mix DM in first SCF step                    =   T
redata: Write Pulay info on disk                    =   F
redata: New DM Occupancy tolerance                  = 0.000000000001
redata: No kicks to SCF
redata: DM Mixing Weight for Kicks                  =     0.5000
redata: Require Harris convergence for SCF          =   F
redata: Harris energy tolerance for SCF             =     0.000100 eV
redata: Require DM convergence for SCF              =   T
redata: DM tolerance for SCF                        =     0.000008
redata: Require EDM convergence for SCF             =   F
redata: EDM tolerance for SCF                       =     0.001000 eV
redata: Require H convergence for SCF               =   T
redata: Hamiltonian tolerance for SCF               =     0.000001 eV
redata: Require (free) Energy convergence for SCF   =   F
redata: (free) Energy tolerance for SCF             =     0.000100 eV
redata: Using Saved Data (generic)                  =   F
redata: Use continuation files for DM               =   T
redata: Neglect nonoverlap interactions             =   F
redata: Method of Calculation                       = Diagonalization
redata: Electronic Temperature                      =   299.9978 K
redata: Fix the spin of the system                  =   F
redata: Dynamics option                             = Verlet MD run
redata: Initial MD time step                        =        1
redata:   Final MD time step                        =        1
redata: Length of MD time step                      =     0.5000 fs
redata: Initial Temperature of MD run               =     0.0000 K
redata: Perform a MD quench                         =   F
mix.SCF: Pulay mixing                            = Pulay
mix.SCF:    Variant                              = stable
mix.SCF:    History steps                        = 6
mix.SCF:    Linear mixing weight                 =     0.250000
mix.SCF:    Mixing weight                        =     0.250000
mix.SCF:    SVD condition                        = 0.1000E-07
mix.SCF:    Restart steps                        = 24
mix.SCF:    Restart save steps                   = 3
mix.SCF: Spin-component mixing                   all
redata: Save all siesta data in one NC              =   F
redata: ***********************************************************************

%block SCF.Mixers
  Pulay
%endblock SCF.Mixers

%block SCF.Mixer.Pulay
  # Mixing method
  method pulay
  variant stable

  # Mixing options
  weight 0.2500
  weight.linear 0.2500
  history 6
  restart 24
  restart.save 3
%endblock SCF.Mixer.Pulay

Size of DM history Fstack: 3
Total number of electrons:    98.000000
Total ionic charge:    98.000000

* ProcessorY, Blocksize:    2  24


* Orbital distribution balance (max,min):    48    24


Time-reversal symmetry not used.

siesta: k-grid: Number of k-points =     1
siesta: k-grid: Cutoff (effective) =     5.000 Ang
siesta: k-grid: Supercell and displacements
siesta: k-grid:    1   0   0      0.000
siesta: k-grid:    0   1   0      0.000
siesta: k-grid:    0   0   1      0.000

diag: Algorithm                                     = ELPA-1stage
diag: Parallel over k                               =   F
diag: Use parallel 2D distribution                  =   T
diag: Parallel block-size                           = 24
diag: Parallel distribution                         =     2 x     4
diag: Used triangular part                          = Lower
diag: Absolute tolerance                            =  0.100E-15
diag: Orthogonalization factor                      =  0.100E-05
diag: Memory factor                                 =  1.0000


ts: **************************************************************
ts: Save H and S matrices                           =    F
ts: Save DM and EDM matrices                        =    F
ts: Only save the overlap matrix S                  =    F
ts: **************************************************************

************************ Begin: TS CHECKS AND WARNINGS ************************
************************ End: TS CHECKS AND WARNINGS **************************


                     ====================================
                        Begin MD step =      1
                     ====================================

outcoor: Atomic coordinates (Ang):                          
    2.28494382   -5.19529124    0.00000000   1       1  H
    1.37433094   -4.66471070    0.00000000   2       2  N
   -0.21830245   -5.49458215    0.00000000   3       3  Si
   -0.17484108   -6.98516892    0.00000000   1       4  H
   -1.66171682   -4.58600741    0.00000000   2       5  N
   -1.09026419   -2.87456374    0.00000000   3       6  Si
   -1.53038332   -0.70765692    0.00000000   3       7  Si
   -3.14415959   -0.09186471    0.00000000   2       8  N
   -3.40268075    0.95848335    0.00000000   1       9  H
   -3.95073599   -0.76720972    0.00000000   1      10  H
   -0.17836637    0.41349951    0.00000000   2      11  N
    1.49520211   -0.04739960    0.00000000   3      12  Si
    2.45603905    1.10727302    0.00000000   1      13  H
    2.30451743   -1.58574382    0.00000000   2      14  N
    1.10725559   -2.84610319    0.00000000   3      15  Si
    0.20694504   10.15254935    0.00000000   1      16  H
   -0.60176564    9.46034347    0.00000000   2      17  N
   -2.25835548   10.17346357    0.00000000   3      18  Si
   -2.16149031   11.68418878    0.00000000   1      19  H
   -3.98451183    8.83041544    0.00000000   3      20  Si
   -6.33896608    8.82242851    0.00000000   3      21  Si
   -6.90138420    9.55691816   -1.20183078   1      22  H
   -6.63877983    7.34333738   -0.08618332   1      23  H
   -6.90149666    9.38726097    1.28814761   1      24  H
   -3.05512119    6.75984421    0.00000000   3      25  Si
   -4.00458955    5.47130808    0.00000000   4      26  O
   -1.26417632    6.58610874    0.00000000   2      27  N
   -0.93318496    5.55375176    0.00000000   1      28  H
    0.04428190    7.78065516    0.00000000   3      29  Si
    1.61021883    7.51340831    0.00000000   4      30  O

outcell: Unit cell vectors (Ang):
       30.000000    0.000000    0.000000
        0.000000   45.000000    0.000000
        0.000000    0.000000   10.000000

outcell: Cell vector modules (Ang)   :   30.000000   45.000000   10.000000
outcell: Cell angles (23,13,12) (deg):     90.0000     90.0000     90.0000
outcell: Cell volume (Ang**3)        :  13500.0000
<dSpData1D:S at geom step 1
  <sparsity:sparsity for geom step 1
    nrows_g=302 nrows=48 sparsity=.0777 nnzs=7086, refcount: 8>
  <dData1D:(new from dSpData1D) n=7086, refcount: 1>
refcount: 1>
new_DM -- step:     1
Initializing Density Matrix...

Attempting to read DM from file... Failed...
DM filled with atomic data:
<dSpData2D:DM initialized from atoms
  <sparsity:sparsity for geom step 1
    nrows_g=302 nrows=48 sparsity=.0777 nnzs=7086, refcount: 9>
  <dData2D:DM n=7086 m=8, refcount: 1>
refcount: 1>
     spin moment: S , {S} =   56.00000   0.00000   0.00000  56.00000
No. of atoms with KB's overlaping orbs in proc 0. Max # of overlaps:      27     134

Initializing spin-orbit part of the Hamiltonian
  Adding spin-orbit effects for H 
  Adding spin-orbit effects for N 
  Adding spin-orbit effects for Si
  Adding spin-orbit effects for O 


New grid distribution:   1
           1       1:  180    1:  125    1:   15
           2       1:  180    1:  125   16:   30
           3       1:  180    1:  125   31:   45
           4       1:  180    1:  125   46:   60
           5       1:  180  126:  250    1:   15
           6       1:  180  126:  250   16:   30
           7       1:  180  126:  250   31:   45
           8       1:  180  126:  250   46:   60

InitMesh: MESH =   360 x   500 x   120 =    21600000
InitMesh: (bp) =   180 x   250 x    60 =     2700000
InitMesh: Mesh cutoff (required, used) =   340.000   341.206 Ry
ExtMesh (bp) on 0 =   288 x   225 x   123 =     7970400
New grid distribution:   2
           1       1:  159    1:   41    1:   60
           2       1:  151  233:  250    1:   60
           3       1:  159   42:   58    1:   60
           4     160:  180   41:   58    1:   60
           5       1:  151   59:  232    1:   60
           6     152:  180   59:  231    1:   60
           7     160:  180    1:   40    1:   60
           8     152:  180  232:  250    1:   60
New grid distribution:   3
           1     147:  180   59:  217    1:   60
           2       1:  143    1:   36    1:   60
           3       1:  143   37:   58    1:   60
           4     144:  180   34:   58    1:   60
           5       1:  146   59:  220    1:   60
           6       1:  146  221:  250    1:   60
           7     144:  180    1:   33    1:   60
           8     147:  180  218:  250    1:   60
Setting up quadratic distribution...
ExtMesh (bp) on 0 =   267 x   141 x   168 =     6324696
PhiOnMesh: Number of (b)points on node 0 =               391140
PhiOnMesh: nlist on node 0 =              1812295

stepf: Fermi-Dirac step function

siesta: Program's energy decomposition (eV):
siesta: Ebs     =      -621.241863
siesta: Eions   =      3553.971015
siesta: Ena     =       374.984498
siesta: Ekin    =      3171.367245
siesta: Enl     =     -2984.761942
siesta: Eso     =        -0.003881
siesta: Edftu   =         0.000000
siesta: DEna    =       129.766925
siesta: DUscf   =        75.683981
siesta: DUext   =         0.000000
siesta: Exc     =     -1168.664214
siesta: eta*DQ  =         0.000000
siesta: Emadel  =         0.000000
siesta: Emeta   =         0.000000
siesta: Emolmec =         0.000000
siesta: Ekinion =         0.000000
siesta: Eharris =     -3884.519092
siesta: Etot    =     -3955.598404
siesta: FreeEng =     -3955.601742

        iscf     Eharris(eV)        E_KS(eV)     FreeEng(eV)     dDmax    Ef(eV) dHmax(eV)
   scf:    1    -3884.519092    -3955.598404    -3955.601742  0.970539 -4.935493 21.660180
     spin moment: S , {S} =    2.02375  -0.00000  -0.00000   2.02375
timer: Routine,Calls,Time,% = IterSCF        1      10.759  33.08
   scf:    2    -3995.720780    -3988.569297    -3988.569304  0.465789 -4.242093 11.577022
     spin moment: S , {S} =    2.00009   0.00000  -0.00000   2.00009
   scf:    3    -3956.650016    -3985.113460    -3985.146732  0.423364 -4.175880 12.522988
     spin moment: S , {S} =    1.99148  -0.00000  -0.00000   1.99148
   scf:    4    -4002.413458    -3997.223432    -3997.223434  0.231507 -3.857959  6.127781
     spin moment: S , {S} =    0.00011  -0.00000   0.00000   0.00011
   scf:    5    -3998.644643    -3998.004825    -3998.004825  0.037410 -3.734057  4.113890
     spin moment: S , {S} =    0.00006  -0.00000   0.00000   0.00006
   scf:    6    -3998.832882    -3998.417007    -3998.417007  0.027850 -3.709580  2.037508
     spin moment: S , {S} =    0.00003  -0.00000   0.00000   0.00003
   scf:    7    -3998.801926    -3998.604117    -3998.604117  0.022437 -3.772740  0.761484
     spin moment: S , {S} =    0.00001  -0.00000   0.00000   0.00001
   scf:    8    -3998.730457    -3998.665360    -3998.665360  0.012051 -3.807836  0.514398
     spin moment: S , {S} =    0.00000  -0.00000   0.00000   0.00000
   scf:    9    -3998.715865    -3998.689510    -3998.689510  0.007177 -3.824385  0.402910
     spin moment: S , {S} =    0.00000  -0.00000   0.00000   0.00000
   scf:   10    -3998.750947    -3998.710279    -3998.710279  0.024310 -3.856599  0.210392
     spin moment: S , {S} =    0.00000  -0.00000  -0.00000  -0.00000
   scf:   11    -3998.715486    -3998.713034    -3998.713035  0.004287 -3.841682  0.080087
     spin moment: S , {S} =    0.00000  -0.00000  -0.00000  -0.00000
   scf:   12    -3998.714143    -3998.713618    -3998.713620  0.001238 -3.838315  0.045451
     spin moment: S , {S} =    0.00000  -0.00000  -0.00000   0.00000
   scf:   13    -3998.714461    -3998.714034    -3998.714035  0.000995 -3.836010  0.024688
     spin moment: S , {S} =    0.00000  -0.00000  -0.00000   0.00000
   scf:   14    -3998.714393    -3998.714207    -3998.714209  0.000712 -3.834999  0.015437
     spin moment: S , {S} =    0.00000   0.00000  -0.00000   0.00000
   scf:   15    -3998.714387    -3998.714292    -3998.714293  0.000639 -3.834591  0.008802
     spin moment: S , {S} =    0.00000   0.00000  -0.00000   0.00000
   scf:   16    -3998.714362    -3998.714324    -3998.714326  0.000497 -3.834521  0.003706
     spin moment: S , {S} =    0.00000   0.00000  -0.00000   0.00000
   scf:   17    -3998.714336    -3998.714330    -3998.714331  0.000204 -3.834679  0.002850
     spin moment: S , {S} =    0.00000   0.00000  -0.00000   0.00000
   scf:   18    -3998.714337    -3998.714333    -3998.714334  0.000194 -3.834793  0.001599
     spin moment: S , {S} =    0.00000   0.00000   0.00000   0.00000
   scf:   19    -3998.714335    -3998.714334    -3998.714335  0.000118 -3.834826  0.001161
     spin moment: S , {S} =    0.00000   0.00000   0.00000   0.00000
   scf:   20    -3998.714334    -3998.714334    -3998.714336  0.000056 -3.834847  0.000801
     spin moment: S , {S} =    0.00000   0.00000   0.00000   0.00000
   scf:   21    -3998.714335    -3998.714334    -3998.714336  0.000054 -3.834855  0.000577
     spin moment: S , {S} =    0.00000   0.00000   0.00000   0.00000
   scf:   22    -3998.714335    -3998.714334    -3998.714336  0.000066 -3.834866  0.000262
     spin moment: S , {S} =    0.00000   0.00000   0.00000   0.00000
   scf:   23    -3998.714335    -3998.714335    -3998.714336  0.000032 -3.834869  0.000163
     spin moment: S , {S} =    0.00000   0.00000   0.00000   0.00000
   scf:   24    -3998.714335    -3998.714335    -3998.714336  0.000022 -3.834868  0.000074
     spin moment: S , {S} =    0.00000   0.00000   0.00000  -0.00000
mix: Pulay -- resetting history
   scf:   25    -3998.714335    -3998.714335    -3998.714336  0.000013 -3.834864  0.000034
     spin moment: S , {S} =    0.00000   0.00000   0.00000   0.00000
   scf:   26    -3998.714335    -3998.714335    -3998.714336  0.000004 -3.834862  0.000025
     spin moment: S , {S} =    0.00000   0.00000   0.00000   0.00000
   scf:   27    -3998.714335    -3998.714335    -3998.714336  0.000002 -3.834861  0.000014
     spin moment: S , {S} =    0.00000   0.00000   0.00000   0.00000
   scf:   28    -3998.714335    -3998.714335    -3998.714336  0.000002 -3.834862  0.000007
     spin moment: S , {S} =    0.00000  -0.00000   0.00000   0.00000
   scf:   29    -3998.714335    -3998.714335    -3998.714336  0.000000 -3.834862  0.000005
     spin moment: S , {S} =    0.00000  -0.00000   0.00000   0.00000
   scf:   30    -3998.714335    -3998.714335    -3998.714336  0.000000 -3.834863  0.000003
     spin moment: S , {S} =    0.00000  -0.00000   0.00000  -0.00000
   scf:   31    -3998.714335    -3998.714335    -3998.714336  0.000000 -3.834863  0.000002
     spin moment: S , {S} =    0.00000  -0.00000   0.00000  -0.00000
   scf:   32    -3998.714335    -3998.714335    -3998.714336  0.000000 -3.834862  0.000001
     spin moment: S , {S} =    0.00000  -0.00000   0.00000  -0.00000
   scf:   33    -3998.714335    -3998.714335    -3998.714336  0.000000 -3.834862  0.000001
     spin moment: S , {S} =    0.00000  -0.00000   0.00000   0.00000

SCF Convergence by DM+H criterion
max |DM_out - DM_in|         :     0.0000000879
max |H_out - H_in|      (eV) :     0.0000005601
SCF cycle converged after 33 iterations

Using DM_out to compute the final energy and forces
No. of atoms with KB's overlaping orbs in proc 0. Max # of overlaps:      27     134

siesta: E_KS(eV) =            -3998.7143

siesta: E_KS - E_eggbox =     -3998.7143
     spin moment: S , {S} =    0.00000  -0.00000   0.00000   0.00000

siesta: Atomic forces (eV/Ang):
     1    0.142989   -0.027747   -0.000000
     2   -0.033893    0.042894   -0.000000
     3   -0.030652   -0.017637   -0.000000
     4    0.068493   -0.134454   -0.000000
     5    0.053870    0.005670   -0.000000
     6   -0.187511    0.018022    0.000000
     7    1.039628   -0.034970   -0.000001
     8   -0.636712    1.408036    0.000001
     9    0.162280   -0.992666   -0.000002
    10   -0.109901    0.134782    0.000001
    11   -0.181946   -0.364215    0.000001
    12   -0.277860    0.043587   -0.000000
    13   -0.122908   -0.050379    0.000000
    14    0.032128   -0.113500   -0.000000
    15    0.106898    0.093662    0.000000
    16   -0.091872   -0.032518   -0.000950
    17    0.028703   -0.067419   -0.000787
    18   -0.142688    0.038500    0.005207
    19    0.032434   -0.000476   -0.001429
    20    0.120254    0.075657   -0.001096
    21    0.058756   -0.023375   -0.007157
    22    0.044111   -0.027218    0.128021
    23    0.000987    0.080615   -0.013461
    24    0.044060    0.020738   -0.095000
    25   -0.629284   -0.408137    0.001046
    26    1.194234    2.967763    0.000492
    27    0.331681   -0.419971   -0.000556
    28   -0.130439    0.771908   -0.000074
    29    0.142030    0.162902   -0.000221
    30   -3.151076   -0.563088    0.000247
----------------------------------------
   Tot   -2.123206    2.586964    0.014282
----------------------------------------
   Max    3.151076
   Res    0.547551    sqrt( Sum f_i^2 / 3N )
----------------------------------------
   Max    3.151076    constrained

Stress tensor Voigt[x,y,z,yz,xz,xy] (kbar):        0.11        0.34       -0.01       -0.01        0.00        0.12
(Free)E + p*V (eV/cell)    -3999.9602
Target enthalpy (eV/cell)    -3998.7143

siesta: Stress tensor (static) (eV/Ang**3):
         0.000070    0.000074    0.000000
         0.000074    0.000211   -0.000004
         0.000000   -0.000004   -0.000005

siesta: Pressure (static):         -0.14786087  kBar

siesta: Stress tensor (total) (eV/Ang**3):
         0.000070    0.000074    0.000000
         0.000074    0.000211   -0.000004
         0.000000   -0.000004   -0.000005

siesta: Pressure (total):         -0.14786087  kBar

siesta: Temp_ion =       0.000 K

siesta: Eigenvalues (eV):
ik =     1
  -22.8228  -22.8228  -22.3465  -22.3465  -21.7128  -21.7128  -21.2651  -21.2651  -21.0014  -21.0014
  -20.8991  -20.8991  -19.3801  -19.3801  -19.2144  -19.2144  -18.5942  -18.5942  -15.0135  -15.0135
  -14.1017  -14.1017  -13.6265  -13.6265  -13.5557  -13.5557  -13.0642  -13.0642  -12.8689  -12.8689
  -12.5089  -12.5089  -12.1218  -12.1218  -11.8976  -11.8976  -11.5865  -11.5865  -11.4730  -11.4730
  -10.9588  -10.9588  -10.6046  -10.6046  -10.1827  -10.1827   -9.5376   -9.5376   -9.3201   -9.3201
   -9.1363   -9.1363   -9.0899   -9.0899   -9.0081   -9.0081   -8.7750   -8.7750   -8.5833   -8.5833
   -8.3809   -8.3809   -8.2189   -8.2189   -8.1126   -8.1126   -7.9923   -7.9923   -7.8979   -7.8979
   -7.7123   -7.7123   -7.3701   -7.3701   -7.2836   -7.2836   -7.2517   -7.2517   -6.8353   -6.8353
   -6.8158   -6.8158   -6.7102   -6.7102   -6.3861   -6.3861   -6.2691   -6.2691   -6.1517   -6.1517
   -5.7860   -5.7860   -5.6936   -5.6936   -5.5270   -5.5270   -4.1926   -4.1926   -3.4771   -3.4771
   -2.6895   -2.6895   -2.1914   -2.1914   -2.1509   -2.1509   -2.1075   -2.1075   -1.9781   -1.9781
   -1.9234   -1.9234   -1.6922   -1.6922   -1.6158   -1.6158   -1.5670   -1.5670   -1.3810   -1.3810
   -1.1405   -1.1405   -0.5448   -0.5448   -0.2898   -0.2898   -0.1820   -0.1820   -0.1739   -0.1739
   -0.0112   -0.0112    0.0590    0.0590    0.2598    0.2598    0.5416    0.5416    0.5970    0.5970
    0.6686    0.6686    0.7573    0.7573    1.2287    1.2287    1.2975    1.2975    1.3340    1.3340
    1.4570    1.4570    1.5789    1.5789    1.9518    1.9518    1.9748    1.9748    2.2053    2.2053
    2.4668    2.4668    2.7427    2.7427    2.8169    2.8169    2.8498    2.8498    2.8720    2.8720
    3.1016    3.1016    3.1147    3.1147    3.1970    3.1970    3.2609    3.2609    3.3278    3.3278
    3.7056    3.7056    3.9250    3.9250    4.2287    4.2287    4.2416    4.2416    4.2533    4.2533
    4.3876    4.3876    4.7176    4.7176    4.7273    4.7273    4.8157    4.8157    5.0809    5.0809
    5.1002    5.1002    5.2412    5.2412    5.5633    5.5633    5.7191    5.7191    5.7852    5.7852
    5.9189    5.9189    6.0712    6.0712    6.1896    6.1896    6.2303    6.2303    6.3486    6.3486
    6.6045    6.6045    6.6648    6.6648    6.8299    6.8299    7.0551    7.0551    7.2427    7.2427
    7.2836    7.2836    7.5110    7.5110    7.6709    7.6709    7.8593    7.8593    7.9772    7.9772
    8.0264    8.0264    8.1884    8.1884    8.3998    8.3998    8.4073    8.4073    8.7011    8.7011
    8.9599    8.9599    8.9842    8.9842    9.0548    9.0548    9.3189    9.3189    9.6193    9.6193
    9.6936    9.6936    9.8088    9.8088    9.8740    9.8740    9.9466    9.9466    9.9589    9.9589
   10.1780   10.1780   10.4810   10.4810   10.6784   10.6784   10.9532   10.9532   11.0253   11.0253
   11.3049   11.3049   11.4515   11.4515   11.6322   11.6322   11.7085   11.7085   11.7437   11.7437
   11.9404   11.9404   12.3502   12.3502   12.3554   12.3554   12.4214   12.4214   12.6341   12.6341
   12.9540   12.9540   12.9652   12.9652   13.0602   13.0602   13.3140   13.3140   13.3856   13.3856
   13.5116   13.5116   13.7686   13.7686   14.5085   14.5085   14.6588   14.6588   14.7828   14.7828
   14.8449   14.8449   14.9721   14.9721   15.1514   15.1514   16.1095   16.1095   16.5593   16.5593
   16.8275   16.8275   16.9460   16.9460   17.0274   17.0274   17.1825   17.1825   17.4863   17.4863
   18.2588   18.2588   18.2664   18.2664   18.6036   18.6036   18.7657   18.7657   18.8735   18.8735
   18.9200   18.9200   19.5456   19.5456   19.9182   19.9182   20.0288   20.0288   20.2518   20.2518
   20.7564   20.7564   21.1031   21.1031   21.2217   21.2217   21.6986   21.6986   22.2867   22.2867
   22.3443   22.3443   22.8909   22.8909   23.0176   23.0176   23.2235   23.2235   23.8372   23.8372
   24.5915   24.5915   24.8318   24.8318   24.8806   24.8806   25.8352   25.8352   25.9357   25.9357
   26.1738   26.1738   26.5643   26.5643   26.6354   26.6354   27.7670   27.7670   28.0501   28.0501
   28.4765   28.4765   28.5466   28.5466   29.3310   29.3310   29.5250   29.5250   30.5019   30.5019
   30.8220   30.8220   30.8809   30.8809   30.9887   30.9887   31.4220   31.4220   31.6940   31.6940
   31.7848   31.7848   32.0897   32.0897   32.1954   32.1954   33.4090   33.4090   33.5137   33.5137
   33.7597   33.7597   34.1035   34.1035   34.4852   34.4852   34.9086   34.9086   34.9380   34.9380
   35.5371   35.5371   36.0268   36.0268   36.1929   36.1929   37.2182   37.2182   37.5557   37.5557
   37.6343   37.6343   37.8844   37.8844   38.1880   38.1880   38.4680   38.4680   38.5005   38.5005
   39.1528   39.1528   40.2931   40.2931   40.3422   40.3422   40.7660   40.7660   41.2899   41.2899
   41.7529   41.7529   41.9004   41.9004   41.9811   41.9811   43.3432   43.3432   43.5112   43.5112
   43.9559   43.9559   44.5763   44.5763   44.8613   44.8613   45.0552   45.0552   45.2199   45.2199
   45.6648   45.6648   45.7617   45.7617   46.1003   46.1003   46.6518   46.6518   47.0719   47.0719
   47.1340   47.1340   47.4911   47.4911   48.6732   48.6732   48.8411   48.8411   49.3849   49.3849
   49.7627   49.7627   50.2426   50.2426   50.3448   50.3448   50.3523   50.3523   50.5101   50.5101
   51.7647   51.7647   52.6849   52.6849   52.8114   52.8114   54.0118   54.0118   54.4084   54.4084
   54.8668   54.8668   54.9412   54.9412   56.0587   56.0587   56.2126   56.2126   56.2608   56.2608
   56.9991   56.9991   57.8278   57.8278   58.0232   58.0232   58.4664   58.4664   59.7284   59.7284
   60.1808   60.1808   61.2768   61.2768   61.7754   61.7754   62.8822   62.8822   63.4176   63.4176
   65.3299   65.3299   65.4812   65.4812   67.1079   67.1079   67.3768   67.3768   68.4659   68.4659
   68.5004   68.5004   70.6111   70.6111   72.0471   72.0471   76.6151   76.6151   88.6924   88.6924
   91.9425   91.9425   93.1155   93.1155   95.1398   95.1398   96.6101   96.6101  100.2235  100.2235
  100.8173  100.8173  102.6303  102.6303  114.3949  114.3949  118.4041  118.4041  123.3285  123.3285
  132.5170  132.5170  138.8838  138.8838
siesta: Fermi energy =      -3.834862 eV

siesta: Program's energy decomposition (eV):
siesta: Ebs     =     -1109.677865
siesta: Eions   =      3553.971015
siesta: Ena     =       374.984498
siesta: Ekin    =      2742.987427
siesta: Enl     =     -2522.675118
siesta: Eso     =        -0.004663
siesta: Edftu   =         0.000000
siesta: DEna    =        36.874321
siesta: DUscf   =        13.891055
siesta: DUext   =         0.000000
siesta: Exc     =     -1090.800840
siesta: eta*DQ  =         0.000000
siesta: Emadel  =         0.000000
siesta: Emeta   =         0.000000
siesta: Emolmec =         0.000000
siesta: Ekinion =         0.000000
siesta: Eharris =     -3998.714335
siesta: Etot    =     -3998.714335
siesta: FreeEng =     -3998.714336

siesta: Final energy (eV):
siesta:  Band Struct. =   -1109.677865
siesta:       Kinetic =    2742.987427
siesta:       Hartree =   12662.926544
siesta:       Edftu   =       0.000000
siesta:       Eso     =      -0.004663
siesta:    Ext. field =       0.000000
siesta:   Exch.-corr. =   -1090.800840
siesta:  Ion-electron =  -27762.860779
siesta:       Ion-ion =    9449.037976
siesta:       Ekinion =       0.000000
siesta:         Total =   -3998.714335
siesta:         Fermi =      -3.834862

siesta: Atomic forces (eV/Ang):
siesta:      1    0.142989   -0.027747   -0.000000
siesta:      2   -0.033893    0.042894   -0.000000
siesta:      3   -0.030652   -0.017637   -0.000000
siesta:      4    0.068493   -0.134454   -0.000000
siesta:      5    0.053870    0.005670   -0.000000
siesta:      6   -0.187511    0.018022    0.000000
siesta:      7    1.039628   -0.034970   -0.000001
siesta:      8   -0.636712    1.408036    0.000001
siesta:      9    0.162280   -0.992666   -0.000002
siesta:     10   -0.109901    0.134782    0.000001
siesta:     11   -0.181946   -0.364215    0.000001
siesta:     12   -0.277860    0.043587   -0.000000
siesta:     13   -0.122908   -0.050379    0.000000
siesta:     14    0.032128   -0.113500   -0.000000
siesta:     15    0.106898    0.093662    0.000000
siesta:     16   -0.091872   -0.032518   -0.000950
siesta:     17    0.028703   -0.067419   -0.000787
siesta:     18   -0.142688    0.038500    0.005207
siesta:     19    0.032434   -0.000476   -0.001429
siesta:     20    0.120254    0.075657   -0.001096
siesta:     21    0.058756   -0.023375   -0.007157
siesta:     22    0.044111   -0.027218    0.128021
siesta:     23    0.000987    0.080615   -0.013461
siesta:     24    0.044060    0.020738   -0.095000
siesta:     25   -0.629284   -0.408137    0.001046
siesta:     26    1.194234    2.967763    0.000492
siesta:     27    0.331681   -0.419971   -0.000556
siesta:     28   -0.130439    0.771908   -0.000074
siesta:     29    0.142030    0.162902   -0.000221
siesta:     30   -3.151076   -0.563088    0.000247
siesta: ----------------------------------------
siesta:    Tot   -2.123206    2.586964    0.014282

siesta: Stress tensor (static) (eV/Ang**3):
siesta:     0.000070    0.000074    0.000000
siesta:     0.000074    0.000211   -0.000004
siesta:     0.000000   -0.000004   -0.000005

siesta: Cell volume =      13500.000000 Ang**3

siesta: Pressure (static):
siesta:                Solid            Molecule  Units
siesta:          -0.00000101          0.00000140  Ry/Bohr**3
siesta:          -0.00009229          0.00012847  eV/Ang**3
siesta:          -0.14786087          0.20584078  kBar
(Free)E+ p_basis*V_orbitals  =       -3977.586251
(Free)Eharris+ p_basis*V_orbitals  =       -3977.586251
     spin moment: S , {S} =    0.00000  -0.00000   0.00000   0.00000

siesta: Electric dipole (a.u.)  =   -1.166152    1.581188   -0.001818
siesta: Electric dipole (Debye) =   -2.964065    4.018983   -0.004621

cite: Please see "AT.bib" for an exhaustive BiBTeX file.
cite: Please clearly indicate Siesta version in published work: v4.1.5-1-g384057250
cite: This calculation has made use of the following articles
cite: which are encouraged to be cited in a published work.
        Primary SIESTA paper
          DOI: www.doi.org/10.1088/0953-8984/14/11/302
        Spin-orbit coupling (on-site approximation)
          DOI: www.doi.org/10.1088/0953-8984/19/19/489001


WARNING: alloc-realloc-dealloc name mismatch
         Name: atomlist isa
         Size:              -120. Bytes
         Node:     0
         Subsequent mismatches will not be reported
>> End of run:   1-FEB-2024  20:17:37
Job completed
