Siesta Version  : v4.1.5-1-g384057250
Architecture    : gcc
Compiler version: GNU Fortran (Ubuntu 11.3.0-1ubuntu1~22.04) 11.3.0
Compiler flags  : mpifort -O2 -fPIC -ftree-vectorize -fallow-argument-mismatch
PP flags        : -DFC_HAVE_ABORT -DMPI -DSIESTA__FLOOK -DSIESTA__METIS -DSIESTA__MUMPS -DCDF -DNCDF -DNCDF_4 -DNCDF_PARALLEL -DSIESTA__MRRR -DSIESTA__ELPA
Libraries       : libncdf.a libfdict.a  -lflookall -ldl -lnetcdff -lnetcdf -lhdf5_hl -lhdf5 -lhdf5_fortran -lz -lscalapack-openmpi -lopenblas -lmetis -lzmumps -lcmumps -ldmumps -lmumps_common -lpord -lsmumps -lesmumps -lscotch -lscotcherr -fopenmp -lelpa
PARALLEL version
NetCDF support
NetCDF-4 support
NetCDF-4 MPI-IO support
METIS ordering support
Lua support

* Running on 4 nodes in parallel
>> Start of run:  22-MAY-2023  19:56:49

                           ***********************       
                           *  WELCOME TO SIESTA  *       
                           ***********************       

reinit: Reading from standard input
reinit: Dumped input in INPUT_TMP.34741
************************** Dump of input data file ****************************
SystemLabel      GC
NumberOfAtoms    29
NumberOfSpecies  4
%block ChemicalSpeciesLabel
    1    8  O
    2    7  N
    3   14  Si
    4    1  H
%endblock ChemicalSpeciesLabel
# Single point calculation
MD.TypeOfRun                CG
MD.Steps                    0
SCF.MustConverge            F # In case it does not. There can be 2 very close atoms
AtomicCoordinatesFormat NotScaledCartesianAng
%block AtomicCoordinatesAndAtomicSpecies
0.854927710    3.902811360    0.000000000       1
-3.151486600   0.823854130    0.000000000       2
1.928518680    1.174000900    0.000000000       2
0.979899500    -1.830275890   0.000000000       2
-2.159258930   -2.028004800   0.000000000       2
3.785319770    -1.112700660   0.000000000       2
-1.345933810   0.976250250    0.000000000       3
-0.599439880   -1.096077170   0.000000000       3
0.453182890    2.350510230    0.000000000       3
2.133302030    -0.576510800   0.000000000       3
-3.516065660   -0.842056510   0.000000000       3
2.824527830    1.754723110    0.000000000       4
-4.877551690   -1.469214660   0.000000000       4
3.994952020    -2.143204000   0.000000000       4
4.620903610    -0.483666060   0.000000000       4
-2.279085180   -3.081514090   0.000000000       4
7.950637423    7.272487393    -0.000000000      3
9.819596913    8.532131023    -0.000000000      3
9.360664533    4.530749173    -0.000000000      3
11.428257253   7.037340393    -0.000000000      3
8.010167373    5.587534933    -0.000000000      2
6.320638223    7.902547623    -0.000000000      2
11.004553403   5.321839583    -0.000000000      2
10.099960613   10.002353543   -0.000000000      4
12.923668633   7.256192933    -0.000000000      4
6.076179233    8.921013573    -0.000000000      4
5.493897043    7.245699493    -0.000000000      4
9.419940293    2.948307143    -0.000000000      1
11.776208993   4.594872223    -0.000000000      4
%endblock AtomicCoordinatesAndAtomicSpecies
%include ../../../Defaults.fdf
************************** End of input data file *****************************

reinit: -----------------------------------------------------------------------
reinit: System Name: 
reinit: -----------------------------------------------------------------------
reinit: System Label: GC
reinit: -----------------------------------------------------------------------

initatom: Reading input for the pseudopotentials and atomic orbitals ----------
Species number:   1 Atomic number:    8 Label: O
Species number:   2 Atomic number:    7 Label: N
Species number:   3 Atomic number:   14 Label: Si
Species number:   4 Atomic number:    1 Label: H

Ground state valence configuration:   2s02  2p04
Reading pseudopotential information in formatted form from O.psf

Pseudopotential generated from a relativistic atomic calculation

Valence configuration for pseudopotential generation:
2s( 2.00) rc: 0.45
2p( 4.00) rc: 0.92
3d( 0.00) rc: 2.24
4f( 0.00) rc: 0.25
Ground state valence configuration:   2s02  2p03
Reading pseudopotential information in formatted form from N.psf

Pseudopotential generated from a relativistic atomic calculation

Valence configuration for pseudopotential generation:
2s( 2.00) rc: 0.94
2p( 3.00) rc: 0.59
3d( 0.00) rc: 3.46
4f( 0.00) rc: 2.47
Ground state valence configuration:   3s02  3p02
Reading pseudopotential information in formatted form from Si.psf

Pseudopotential generated from a relativistic atomic calculation

Valence configuration for pseudopotential generation:
3s( 2.00) rc: 1.67
3p( 2.00) rc: 2.04
3d( 0.00) rc: 2.89
4f( 0.00) rc: 2.49
Ground state valence configuration:   1s01
Reading pseudopotential information in formatted form from H.psf

Pseudopotential generated from a relativistic atomic calculation

Valence configuration for pseudopotential generation:
1s( 1.00) rc: 0.01
2p( 0.00) rc: 0.60
3d( 0.00) rc: 1.99
4f( 0.00) rc: 2.49
For O, standard SIESTA heuristics set lmxkb to 3
 (one more than the basis l, including polarization orbitals).
Use PS.lmax or PS.KBprojectors blocks to override.
For N, standard SIESTA heuristics set lmxkb to 3
 (one more than the basis l, including polarization orbitals).
Use PS.lmax or PS.KBprojectors blocks to override.
For Si, standard SIESTA heuristics set lmxkb to 3
 (one more than the basis l, including polarization orbitals).
Use PS.lmax or PS.KBprojectors blocks to override.
For H, standard SIESTA heuristics set lmxkb to 2
 (one more than the basis l, including polarization orbitals).
Use PS.lmax or PS.KBprojectors blocks to override.

<basis_specs>
===============================================================================
O                    Z=   8    Mass=  16.000        Charge= 0.17977+309
Lmxo=1 Lmxkb= 3    BasisType=split      Semic=F
L=0  Nsemic=0  Cnfigmx=2
          i=1  nzeta=2  polorb=0  (2s)
            splnorm:   0.28000    
               vcte:    0.0000    
               rinn:    0.0000    
               qcoe:    0.0000    
               qyuk:    0.0000    
               qwid:   0.10000E-01
                rcs:    0.0000      0.0000    
            lambdas:    1.0000      1.0000    
L=1  Nsemic=0  Cnfigmx=2
          i=1  nzeta=2  polorb=1  (2p)
            splnorm:   0.28000    
               vcte:    0.0000    
               rinn:    0.0000    
               qcoe:    0.0000    
               qyuk:    0.0000    
               qwid:   0.10000E-01
                rcs:    0.0000      0.0000    
            lambdas:    1.0000      1.0000    
-------------------------------------------------------------------------------
L=0  Nkbl=1  erefs: 0.17977+309
L=1  Nkbl=1  erefs: 0.17977+309
L=2  Nkbl=1  erefs: 0.17977+309
L=3  Nkbl=1  erefs: 0.17977+309
===============================================================================
</basis_specs>

atom: Called for O                     (Z =   8)

read_vps: Pseudopotential generation method:
read_vps: ATM4.2.7  Troullier-Martins                       
Valence charge for ps generation:    6.00000

xc_check: Exchange-correlation functional:
xc_check: GGA Perdew, Burke & Ernzerhof 1996
V l=0 = -2*Zval/r beyond r=  1.1000
V l=1 = -2*Zval/r beyond r=  1.1000
V l=2 = -2*Zval/r beyond r=  2.2154
V l=3 = -2*Zval/r beyond r=  1.1000
All V_l potentials equal beyond r=  2.2154
This should be close to max(r_c) in ps generation
All pots = -2*Zval/r beyond r=  2.2154

VLOCAL1: 99.0% of the norm of Vloc inside      8.845 Ry
VLOCAL1: 99.9% of the norm of Vloc inside     20.157 Ry
atom: Maximum radius for 4*pi*r*r*local-pseudopot. charge    2.67231
atom: Maximum radius for r*vlocal+2*Zval:    2.32897
GHOST: No ghost state for L =  0
GHOST: No ghost state for L =  1
GHOST: No ghost state for L =  2
GHOST: No ghost state for L =  3

KBgen: Kleinman-Bylander projectors: 
   l= 0   rc=  2.243238   el= -1.759686   Ekb=**********   kbcos= -0.171774
   l= 1   rc=  2.328968   el= -0.663873   Ekb=-14.506792   kbcos= -0.519897
   l= 2   rc=  2.573941   el=  0.002031   Ekb= -1.137373   kbcos= -0.019581
   l= 3   rc=  2.606321   el=  0.003153   Ekb= -1.013546   kbcos= -0.003122

KBgen: Total number of Kleinman-Bylander projectors:   16
atom: -------------------------------------------------------------------------

atom: SANKEY-TYPE ORBITALS:
atom: Selected multiple-zeta basis: split     

SPLIT: Orbitals with angular momentum L= 0

SPLIT: Basis orbitals for state 2s

SPLIT: PAO cut-off radius determined from an
SPLIT: energy shift=  0.002000 Ry

   izeta = 1
                 lambda =    1.000000
                     rc =    4.243912
                 energy =   -1.758270
                kinetic =    3.286084
    potential(screened) =   -5.044353
       potential(ionic) =  -12.921184

   izeta = 2
                 rmatch =    2.187845
              splitnorm =    0.280000
                 energy =   -0.885018
                kinetic =    8.134434
    potential(screened) =   -9.019452
       potential(ionic) =  -17.710645

SPLIT: Orbitals with angular momentum L= 1

SPLIT: Basis orbitals for state 2p

SPLIT: PAO cut-off radius determined from an
SPLIT: energy shift=  0.002000 Ry

   izeta = 1
                 lambda =    1.000000
                     rc =    5.314825
                 energy =   -0.661986
                kinetic =    4.917472
    potential(screened) =   -5.579458
       potential(ionic) =  -13.236259

   izeta = 2
                 rmatch =    2.160663
              splitnorm =    0.280000
                 energy =   -0.068760
                kinetic =    9.183374
    potential(screened) =   -9.252135
       potential(ionic) =  -18.274251

POLgen: Perturbative polarization orbital with L=  2

POLgen: Polarization orbital for state 2p

   izeta = 1
                     rc =    5.314825
                 energy =    1.970580
                kinetic =    3.886128
    potential(screened) =   -1.915547
       potential(ionic) =   -7.749584
atom: Total number of Sankey-type orbitals: 13

atm_pop: Valence configuration (for local Pseudopot. screening):
 2s( 2.00)                                                            
 2p( 4.00)                                                            
Vna: chval, zval:    6.00000   6.00000

Vna:  Cut-off radius for the neutral-atom potential:   5.314825

atom: _________________________________________________________________________

<basis_specs>
===============================================================================
N                    Z=   7    Mass=  14.010        Charge= 0.17977+309
Lmxo=1 Lmxkb= 3    BasisType=split      Semic=F
L=0  Nsemic=0  Cnfigmx=2
          i=1  nzeta=2  polorb=0  (2s)
            splnorm:   0.28000    
               vcte:    0.0000    
               rinn:    0.0000    
               qcoe:    0.0000    
               qyuk:    0.0000    
               qwid:   0.10000E-01
                rcs:    0.0000      0.0000    
            lambdas:    1.0000      1.0000    
L=1  Nsemic=0  Cnfigmx=2
          i=1  nzeta=2  polorb=1  (2p)
            splnorm:   0.28000    
               vcte:    0.0000    
               rinn:    0.0000    
               qcoe:    0.0000    
               qyuk:    0.0000    
               qwid:   0.10000E-01
                rcs:    0.0000      0.0000    
            lambdas:    1.0000      1.0000    
-------------------------------------------------------------------------------
L=0  Nkbl=1  erefs: 0.17977+309
L=1  Nkbl=1  erefs: 0.17977+309
L=2  Nkbl=1  erefs: 0.17977+309
L=3  Nkbl=1  erefs: 0.17977+309
===============================================================================
</basis_specs>

atom: Called for N                     (Z =   7)

read_vps: Pseudopotential generation method:
read_vps: ATM4.2.7  Troullier-Martins                       
Valence charge for ps generation:    5.00000

xc_check: Exchange-correlation functional:
xc_check: GGA Perdew, Burke & Ernzerhof 1996
V l=0 = -2*Zval/r beyond r=  1.2889
V l=1 = -2*Zval/r beyond r=  1.2889
V l=2 = -2*Zval/r beyond r=  3.4178
V l=3 = -2*Zval/r beyond r=  2.4084
All V_l potentials equal beyond r=  3.3753
This should be close to max(r_c) in ps generation
All pots = -2*Zval/r beyond r=  3.4178

VLOCAL1: 99.0% of the norm of Vloc inside      3.810 Ry
VLOCAL1: 99.9% of the norm of Vloc inside      8.683 Ry
atom: Maximum radius for 4*pi*r*r*local-pseudopot. charge    4.02088
atom: Maximum radius for r*vlocal+2*Zval:    3.54838
GHOST: No ghost state for L =  0
GHOST: No ghost state for L =  1
GHOST: No ghost state for L =  2
GHOST: No ghost state for L =  3

KBgen: Kleinman-Bylander projectors: 
   l= 0   rc=  3.417763   el= -1.365098   Ekb= -4.433130   kbcos= -0.707855
   l= 1   rc=  3.375302   el= -0.521201   Ekb=-13.264039   kbcos= -0.535594
   l= 2   rc=  3.872880   el=  0.001991   Ekb= -0.641094   kbcos= -0.062456
   l= 3   rc=  3.970931   el=  0.003093   Ekb= -0.474517   kbcos= -0.018236

KBgen: Total number of Kleinman-Bylander projectors:   16
atom: -------------------------------------------------------------------------

atom: SANKEY-TYPE ORBITALS:
atom: Selected multiple-zeta basis: split     

SPLIT: Orbitals with angular momentum L= 0

SPLIT: Basis orbitals for state 2s

SPLIT: PAO cut-off radius determined from an
SPLIT: energy shift=  0.002000 Ry

   izeta = 1
                 lambda =    1.000000
                     rc =    4.730425
                 energy =   -1.363399
                kinetic =    1.245246
    potential(screened) =   -2.608645
       potential(ionic) =   -8.121105

   izeta = 2
                 rmatch =    2.531849
              splitnorm =    0.280000
                 energy =   -0.959908
                kinetic =    2.409435
    potential(screened) =   -3.369343
       potential(ionic) =   -9.427975

SPLIT: Orbitals with angular momentum L= 1

SPLIT: Basis orbitals for state 2p

SPLIT: PAO cut-off radius determined from an
SPLIT: energy shift=  0.002000 Ry

   izeta = 1
                 lambda =    1.000000
                     rc =    5.924108
                 energy =   -0.519262
                kinetic =    3.672940
    potential(screened) =   -4.192202
       potential(ionic) =   -9.518354

   izeta = 2
                 rmatch =    2.531849
              splitnorm =    0.280000
                 energy =   -0.104258
                kinetic =    6.807538
    potential(screened) =   -6.911796
       potential(ionic) =  -13.149920

POLgen: Perturbative polarization orbital with L=  2

POLgen: Polarization orbital for state 2p

   izeta = 1
                     rc =    5.924108
                 energy =    1.427508
                kinetic =    2.872379
    potential(screened) =   -1.444871
       potential(ionic) =   -5.563644
atom: Total number of Sankey-type orbitals: 13

atm_pop: Valence configuration (for local Pseudopot. screening):
 2s( 2.00)                                                            
 2p( 3.00)                                                            
Vna: chval, zval:    5.00000   5.00000

Vna:  Cut-off radius for the neutral-atom potential:   5.924108

atom: _________________________________________________________________________

<basis_specs>
===============================================================================
Si                   Z=  14    Mass=  28.090        Charge= 0.17977+309
Lmxo=1 Lmxkb= 3    BasisType=split      Semic=F
L=0  Nsemic=0  Cnfigmx=3
          i=1  nzeta=2  polorb=0  (3s)
            splnorm:   0.28000    
               vcte:    0.0000    
               rinn:    0.0000    
               qcoe:    0.0000    
               qyuk:    0.0000    
               qwid:   0.10000E-01
                rcs:    0.0000      0.0000    
            lambdas:    1.0000      1.0000    
L=1  Nsemic=0  Cnfigmx=3
          i=1  nzeta=2  polorb=1  (3p)
            splnorm:   0.28000    
               vcte:    0.0000    
               rinn:    0.0000    
               qcoe:    0.0000    
               qyuk:    0.0000    
               qwid:   0.10000E-01
                rcs:    0.0000      0.0000    
            lambdas:    1.0000      1.0000    
-------------------------------------------------------------------------------
L=0  Nkbl=1  erefs: 0.17977+309
L=1  Nkbl=1  erefs: 0.17977+309
L=2  Nkbl=1  erefs: 0.17977+309
L=3  Nkbl=1  erefs: 0.17977+309
===============================================================================
</basis_specs>

atom: Called for Si                    (Z =  14)

read_vps: Pseudopotential generation method:
read_vps: ATM4.2.7  Troullier-Martins                       
Valence charge for ps generation:    4.00000

xc_check: Exchange-correlation functional:
xc_check: GGA Perdew, Burke & Ernzerhof 1996
V l=0 = -2*Zval/r beyond r=  2.7826
V l=1 = -2*Zval/r beyond r=  2.7826
V l=2 = -2*Zval/r beyond r=  2.9253
V l=3 = -2*Zval/r beyond r=  2.7826
All V_l potentials equal beyond r=  2.8530
This should be close to max(r_c) in ps generation
All pots = -2*Zval/r beyond r=  2.9253

VLOCAL1: 99.0% of the norm of Vloc inside      5.333 Ry
VLOCAL1: 99.9% of the norm of Vloc inside     12.154 Ry
atom: Maximum radius for 4*pi*r*r*local-pseudopot. charge    3.39869
atom: Maximum radius for r*vlocal+2*Zval:    2.96205
GHOST: No ghost state for L =  0
GHOST: No ghost state for L =  1
GHOST: No ghost state for L =  2
GHOST: No ghost state for L =  3

KBgen: Kleinman-Bylander projectors: 
   l= 0   rc=  3.075247   el= -0.794092   Ekb=  5.879390   kbcos=  0.167461
   l= 1   rc=  3.153101   el= -0.300068   Ekb=  2.642817   kbcos=  0.058301
   l= 2   rc=  3.273594   el=  0.001958   Ekb= -1.185135   kbcos= -0.104411
   l= 3   rc=  3.232927   el=  0.003046   Ekb= -0.497174   kbcos= -0.015889

KBgen: Total number of Kleinman-Bylander projectors:   16
atom: -------------------------------------------------------------------------

atom: SANKEY-TYPE ORBITALS:
atom: Selected multiple-zeta basis: split     

SPLIT: Orbitals with angular momentum L= 0

SPLIT: Basis orbitals for state 3s

SPLIT: PAO cut-off radius determined from an
SPLIT: energy shift=  0.002000 Ry

   izeta = 1
                 lambda =    1.000000
                     rc =    6.429618
                 energy =   -0.792283
                kinetic =    0.525293
    potential(screened) =   -1.317576
       potential(ionic) =   -3.744923

   izeta = 2
                 rmatch =    3.998416
              splitnorm =    0.280000
                 energy =   -0.583081
                kinetic =    1.069570
    potential(screened) =   -1.652651
       potential(ionic) =   -4.235185

SPLIT: Orbitals with angular momentum L= 1

SPLIT: Basis orbitals for state 3p

SPLIT: PAO cut-off radius determined from an
SPLIT: energy shift=  0.002000 Ry

   izeta = 1
                 lambda =    1.000000
                     rc =    8.464845
                 energy =   -0.298236
                kinetic =    0.785360
    potential(screened) =   -1.083596
       potential(ionic) =   -3.273779

   izeta = 2
                 rmatch =    4.587816
              splitnorm =    0.280000
                 energy =   -0.131871
                kinetic =    1.403687
    potential(screened) =   -1.535557
       potential(ionic) =   -4.015310

POLgen: Perturbative polarization orbital with L=  2

POLgen: Polarization orbital for state 3p

   izeta = 1
                     rc =    8.464845
                 energy =    0.321949
                kinetic =    1.055677
    potential(screened) =   -0.733728
       potential(ionic) =   -2.672950
atom: Total number of Sankey-type orbitals: 13

atm_pop: Valence configuration (for local Pseudopot. screening):
 3s( 2.00)                                                            
 3p( 2.00)                                                            
Vna: chval, zval:    4.00000   4.00000

Vna:  Cut-off radius for the neutral-atom potential:   8.464845

atom: _________________________________________________________________________

<basis_specs>
===============================================================================
H                    Z=   1    Mass=  1.0100        Charge= 0.17977+309
Lmxo=0 Lmxkb= 2    BasisType=split      Semic=F
L=0  Nsemic=0  Cnfigmx=1
          i=1  nzeta=2  polorb=1  (1s)
            splnorm:   0.62000    
               vcte:    0.0000    
               rinn:    0.0000    
               qcoe:    0.0000    
               qyuk:    0.0000    
               qwid:   0.10000E-01
                rcs:    0.0000      0.0000    
            lambdas:    1.0000      1.0000    
-------------------------------------------------------------------------------
L=0  Nkbl=1  erefs: 0.17977+309
L=1  Nkbl=1  erefs: 0.17977+309
L=2  Nkbl=1  erefs: 0.17977+309
===============================================================================
</basis_specs>

atom: Called for H                     (Z =   1)

read_vps: Pseudopotential generation method:
read_vps: ATM4.2.7  Troullier-Martins                       
Valence charge for ps generation:    1.00000

xc_check: Exchange-correlation functional:
xc_check: GGA Perdew, Burke & Ernzerhof 1996
V l=0 = -2*Zval/r beyond r=  0.0098
V l=1 = -2*Zval/r beyond r=  0.5817
V l=2 = -2*Zval/r beyond r=  1.9372
All V_l potentials equal beyond r=  1.9372
This should be close to max(r_c) in ps generation
All pots = -2*Zval/r beyond r=  1.9372

VLOCAL1: 99.0% of the norm of Vloc inside     11.567 Ry
VLOCAL1: 99.9% of the norm of Vloc inside     26.362 Ry
atom: Maximum radius for 4*pi*r*r*local-pseudopot. charge    2.25106
atom: Maximum radius for r*vlocal+2*Zval:    1.91306
GHOST: No ghost state for L =  0
GHOST: No ghost state for L =  1
GHOST: No ghost state for L =  2

KBgen: Kleinman-Bylander projectors: 
   l= 0   rc=  2.036604   el= -0.477180   Ekb= -6.081590   kbcos= -0.277285
   l= 1   rc=  2.195416   el=  0.001076   Ekb= -0.926943   kbcos= -0.034643
   l= 2   rc=  2.251056   el=  0.002010   Ekb= -0.130941   kbcos= -0.009788

KBgen: Total number of Kleinman-Bylander projectors:    9
atom: -------------------------------------------------------------------------

atom: SANKEY-TYPE ORBITALS:
atom: Selected multiple-zeta basis: split     

SPLIT: Orbitals with angular momentum L= 0

SPLIT: Basis orbitals for state 1s

SPLIT: PAO cut-off radius determined from an
SPLIT: energy shift=  0.002000 Ry

   izeta = 1
                 lambda =    1.000000
                     rc =    6.518340
                 energy =   -0.475305
                kinetic =    0.912139
    potential(screened) =   -1.387444
       potential(ionic) =   -1.907295

   izeta = 2
                 rmatch =    2.141150
              splitnorm =    0.620000
                 energy =    0.566467
                kinetic =    3.772856
    potential(screened) =   -3.206389
       potential(ionic) =   -3.759093

POLgen: Perturbative polarization orbital with L=  1

POLgen: Polarization orbital for state 1s

   izeta = 1
                     rc =    6.518340
                 energy =    0.533861
                kinetic =    1.121086
    potential(screened) =   -0.587225
       potential(ionic) =   -1.053027
atom: Total number of Sankey-type orbitals:  5

atm_pop: Valence configuration (for local Pseudopot. screening):
 1s( 1.00)                                                            
Vna: chval, zval:    1.00000   1.00000

Vna:  Cut-off radius for the neutral-atom potential:   6.518340

atom: _________________________________________________________________________

prinput: Basis input ----------------------------------------------------------

PAO.BasisType split     

%block ChemicalSpeciesLabel
    1    8 O                       # Species index, atomic number, species label
    2    7 N                       # Species index, atomic number, species label
    3   14 Si                      # Species index, atomic number, species label
    4    1 H                       # Species index, atomic number, species label
%endblock ChemicalSpeciesLabel

%block PAO.Basis                 # Define Basis set
O                     2                    # Species label, number of l-shells
 n=2   0   2                         # n, l, Nzeta 
   4.244      2.188   
   1.000      1.000   
 n=2   1   2 P   1                   # n, l, Nzeta, Polarization, NzetaPol
   5.315      2.161   
   1.000      1.000   
N                     2                    # Species label, number of l-shells
 n=2   0   2                         # n, l, Nzeta 
   4.730      2.532   
   1.000      1.000   
 n=2   1   2 P   1                   # n, l, Nzeta, Polarization, NzetaPol
   5.924      2.532   
   1.000      1.000   
Si                    2                    # Species label, number of l-shells
 n=3   0   2                         # n, l, Nzeta 
   6.430      3.998   
   1.000      1.000   
 n=3   1   2 P   1                   # n, l, Nzeta, Polarization, NzetaPol
   8.465      4.588   
   1.000      1.000   
H                     1                    # Species label, number of l-shells
 n=1   0   2 P   1                   # n, l, Nzeta, Polarization, NzetaPol
   6.518      2.141   
   1.000      1.000   
%endblock PAO.Basis

prinput: ----------------------------------------------------------------------

Dumping basis to NetCDF file O.ion.nc
Dumping basis to NetCDF file N.ion.nc
Dumping basis to NetCDF file Si.ion.nc
Dumping basis to NetCDF file H.ion.nc
coor:   Atomic-coordinates input format  =     Cartesian coordinates
coor:                                          (in Angstroms)

siesta: Atomic coordinates (Bohr) and species
siesta:      1.61558   7.37525   0.00000  1        1
siesta:     -5.95545   1.55686   0.00000  2        2
siesta:      3.64437   2.21854   0.00000  2        3
siesta:      1.85174  -3.45872   0.00000  2        4
siesta:     -4.08041  -3.83238   0.00000  2        5
siesta:      7.15322  -2.10270   0.00000  2        6
siesta:     -2.54345   1.84485   0.00000  3        7
siesta:     -1.13278  -2.07129   0.00000  3        8
siesta:      0.85639   4.44182   0.00000  3        9
siesta:      4.03136  -1.08945   0.00000  3       10
siesta:     -6.64440  -1.59126   0.00000  3       11
siesta:      5.33759   3.31595   0.00000  4       12
siesta:     -9.21724  -2.77641   0.00000  4       13
siesta:      7.54937  -4.05007   0.00000  4       14
siesta:      8.73225  -0.91400   0.00000  4       15
siesta:     -4.30685  -5.82322   0.00000  4       16
siesta:     15.02453  13.74301  -0.00000  3       17
siesta:     18.55636  16.12340  -0.00000  3       18
siesta:     17.68910   8.56188  -0.00000  3       19
siesta:     21.59628  13.29865  -0.00000  3       20
siesta:     15.13703  10.55891  -0.00000  2       21
siesta:     11.94428  14.93366  -0.00000  2       22
siesta:     20.79560  10.05682  -0.00000  2       23
siesta:     19.08617  18.90172  -0.00000  4       24
siesta:     24.42220  13.71222  -0.00000  4       25
siesta:     11.48232  16.85828  -0.00000  4       26
siesta:     10.38196  13.69239  -0.00000  4       27
siesta:     17.80111   5.57150  -0.00000  1       28
siesta:     22.25382   8.68305  -0.00000  4       29

siesta: Automatic unit cell vectors (Ang):
siesta:   27.169925    0.000000    0.000000
siesta:    0.000000   21.980837    0.000000
siesta:    0.000000    0.000000    9.854683

siesta: System type = molecule  

initatomlists: Number of atoms, orbitals, and projectors:     29   297   394

siesta: ******************** Simulation parameters ****************************
siesta:
siesta: The following are some of the parameters of the simulation.
siesta: A complete list of the parameters used, including default values,
siesta: can be found in file out.fdf
siesta:
redata: Spin configuration                          = spin-orbit
redata: Number of spin components                   = 8
redata: Time-Reversal Symmetry                      = F
redata: Spin spiral                                 = F
############################################################
This spin-orbit implementation uses a local approximation.
From 4.2 and onwards the full non-local approximation is implemented
You are strongly advised to use >=4.2 versions!
############################################################
redata: Long output                                 =   F
redata: Number of Atomic Species                    =        4
redata: Charge density info will appear in .RHO file
redata: Write Mulliken Pop.                         = Atomic and Orbital charges
redata: Matel table size (NRTAB)                    =     1024
redata: Mesh Cutoff                                 =   340.0000 Ry
redata: Net charge of the system                    =     0.0000 |e|
redata: Min. number of SCF Iter                     =        1
redata: Max. number of SCF Iter                     =      200
redata: SCF mix quantity                            = Hamiltonian
redata: Mix DM or H after convergence               =   F
redata: Recompute H after scf cycle                 =   F
redata: Mix DM in first SCF step                    =   T
redata: Write Pulay info on disk                    =   F
redata: New DM Occupancy tolerance                  = 0.000000000001
redata: No kicks to SCF
redata: DM Mixing Weight for Kicks                  =     0.5000
redata: Require Harris convergence for SCF          =   F
redata: Harris energy tolerance for SCF             =     0.000100 eV
redata: Require DM convergence for SCF              =   T
redata: DM tolerance for SCF                        =     0.000008
redata: Require EDM convergence for SCF             =   F
redata: EDM tolerance for SCF                       =     0.001000 eV
redata: Require H convergence for SCF               =   T
redata: Hamiltonian tolerance for SCF               =     0.000001 eV
redata: Require (free) Energy convergence for SCF   =   F
redata: (free) Energy tolerance for SCF             =     0.000100 eV
redata: Using Saved Data (generic)                  =   F
redata: Use continuation files for DM               =   F
redata: Neglect nonoverlap interactions             =   F
redata: Method of Calculation                       = Diagonalization
redata: Electronic Temperature                      =   299.9978 K
redata: Fix the spin of the system                  =   F
redata: Dynamics option                             = Single-point calculation
mix.SCF: Pulay mixing                            = Pulay
mix.SCF:    Variant                              = stable
mix.SCF:    History steps                        = 6
mix.SCF:    Linear mixing weight                 =     0.250000
mix.SCF:    Mixing weight                        =     0.250000
mix.SCF:    SVD condition                        = 0.1000E-07
mix.SCF:    Restart steps                        = 24
mix.SCF:    Restart save steps                   = 3
mix.SCF: Spin-component mixing                   all
redata: Save all siesta data in one NC              =   F
redata: ***********************************************************************

%block SCF.Mixers
  Pulay
%endblock SCF.Mixers

%block SCF.Mixer.Pulay
  # Mixing method
  method pulay
  variant stable

  # Mixing options
  weight 0.2500
  weight.linear 0.2500
  history 6
  restart 24
  restart.save 3
%endblock SCF.Mixer.Pulay

DM_history_depth set to one: no extrapolation allowed by default for geometry relaxation
Size of DM history Fstack: 1
Total number of electrons:    98.000000
Total ionic charge:    98.000000

* ProcessorY, Blocksize:    2  24


* Orbital distribution balance (max,min):    81    72


Time-reversal symmetry not used.

siesta: k-grid: Number of k-points =     1
siesta: k-grid: Cutoff (effective) =     4.927 Ang
siesta: k-grid: Supercell and displacements
siesta: k-grid:    1   0   0      0.000
siesta: k-grid:    0   1   0      0.000
siesta: k-grid:    0   0   1      0.000

diag: Algorithm                                     = ELPA-1stage
diag: Parallel over k                               =   F
diag: Use parallel 2D distribution                  =   T
diag: Parallel block-size                           = 24
diag: Parallel distribution                         =     2 x     2
diag: Used triangular part                          = Lower
diag: Absolute tolerance                            =  0.100E-15
diag: Orthogonalization factor                      =  0.100E-05
diag: Memory factor                                 =  1.0000


ts: **************************************************************
ts: Save H and S matrices                           =    F
ts: Save DM and EDM matrices                        =    F
ts: Only save the overlap matrix S                  =    F
ts: **************************************************************

************************ Begin: TS CHECKS AND WARNINGS ************************
************************ End: TS CHECKS AND WARNINGS **************************


                     ====================================
                        Single-point calculation
                     ====================================

outcoor: Atomic coordinates (Ang):                          
    0.85492771    3.90281136    0.00000000   1       1  O
   -3.15148660    0.82385413    0.00000000   2       2  N
    1.92851868    1.17400090    0.00000000   2       3  N
    0.97989950   -1.83027589    0.00000000   2       4  N
   -2.15925893   -2.02800480    0.00000000   2       5  N
    3.78531977   -1.11270066    0.00000000   2       6  N
   -1.34593381    0.97625025    0.00000000   3       7  Si
   -0.59943988   -1.09607717    0.00000000   3       8  Si
    0.45318289    2.35051023    0.00000000   3       9  Si
    2.13330203   -0.57651080    0.00000000   3      10  Si
   -3.51606566   -0.84205651    0.00000000   3      11  Si
    2.82452783    1.75472311    0.00000000   4      12  H
   -4.87755169   -1.46921466    0.00000000   4      13  H
    3.99495202   -2.14320400    0.00000000   4      14  H
    4.62090361   -0.48366606    0.00000000   4      15  H
   -2.27908518   -3.08151409    0.00000000   4      16  H
    7.95063742    7.27248739    0.00000000   3      17  Si
    9.81959691    8.53213102    0.00000000   3      18  Si
    9.36066453    4.53074917    0.00000000   3      19  Si
   11.42825725    7.03734039    0.00000000   3      20  Si
    8.01016737    5.58753493    0.00000000   2      21  N
    6.32063822    7.90254762    0.00000000   2      22  N
   11.00455340    5.32183958    0.00000000   2      23  N
   10.09996061   10.00235354    0.00000000   4      24  H
   12.92366863    7.25619293    0.00000000   4      25  H
    6.07617923    8.92101357    0.00000000   4      26  H
    5.49389704    7.24569949    0.00000000   4      27  H
    9.41994029    2.94830714    0.00000000   1      28  O
   11.77620899    4.59487222    0.00000000   4      29  H

outcell: Unit cell vectors (Ang):
       27.169925    0.000000    0.000000
        0.000000   21.980837    0.000000
        0.000000    0.000000    9.854683

outcell: Cell vector modules (Ang)   :   27.169925   21.980837    9.854683
outcell: Cell angles (23,13,12) (deg):     90.0000     90.0000     90.0000
outcell: Cell volume (Ang**3)        :   5885.3913
<dSpData1D:S at geom step 0
  <sparsity:sparsity for geom step 0
    nrows_g=297 nrows=81 sparsity=.1385 nnzs=12221, refcount: 8>
  <dData1D:(new from dSpData1D) n=12221, refcount: 1>
refcount: 1>
new_DM -- step:     1
Initializing Density Matrix...
DM filled with atomic data:
<dSpData2D:DM initialized from atoms
  <sparsity:sparsity for geom step 0
    nrows_g=297 nrows=81 sparsity=.1385 nnzs=12221, refcount: 9>
  <dData2D:DM n=12221 m=8, refcount: 1>
refcount: 1>
     spin moment: S , {S} =   56.00000   0.00000   0.00000  56.00000
No. of atoms with KB's overlaping orbs in proc 0. Max # of overlaps:      29     142

Initializing spin-orbit part of the Hamiltonian
  Adding spin-orbit effects for O 
  Adding spin-orbit effects for N 
  Adding spin-orbit effects for Si
  Adding spin-orbit effects for H 


New grid distribution:   1
           1       1:  160    1:   63    1:   30
           2       1:  160    1:   63   31:   60
           3       1:  160   64:  125    1:   30
           4       1:  160   64:  125   31:   60

InitMesh: MESH =   320 x   250 x   120 =     9600000
InitMesh: (bp) =   160 x   125 x    60 =     1200000
InitMesh: Mesh cutoff (required, used) =   340.000   357.514 Ry
ExtMesh (bp) on 0 =   268 x   167 x   142 =     6355352
New grid distribution:   2
           1      57:  160    1:   39    1:   60
           2       1:   56    1:   39    1:   60
           3      57:  160   40:  125    1:   60
           4       1:   56   40:  125    1:   60
New grid distribution:   3
           1      58:  160    1:   42    1:   60
           2       1:   57    1:   41    1:   60
           3      58:  160   43:  125    1:   60
           4       1:   57   42:  125    1:   60
Setting up quadratic distribution...
ExtMesh (bp) on 0 =   212 x   143 x   172 =     5214352
PhiOnMesh: Number of (b)points on node 0 =               243360
PhiOnMesh: nlist on node 0 =              2573591

stepf: Fermi-Dirac step function

siesta: Program's energy decomposition (eV):
siesta: Ebs     =      -624.409546
siesta: Eions   =      3585.165840
siesta: Ena     =       384.948850
siesta: Ekin    =      3376.851510
siesta: Enl     =     -3308.578264
siesta: Eso     =        -0.003378
siesta: Edftu   =         0.000000
siesta: DEna    =       154.805146
siesta: DUscf   =        82.458022
siesta: DUext   =         0.000000
siesta: Exc     =     -1205.480595
siesta: eta*DQ  =         0.000000
siesta: Emadel  =         0.000000
siesta: Emeta   =         0.000000
siesta: Emolmec =         0.000000
siesta: Ekinion =         0.000000
siesta: Eharris =     -4019.728895
siesta: Etot    =     -4100.164548
siesta: FreeEng =     -4100.166060

        iscf     Eharris(eV)        E_KS(eV)     FreeEng(eV)     dDmax    Ef(eV) dHmax(eV)
   scf:    1    -4019.728895    -4100.164548    -4100.166060  0.965171 -4.889087 21.644355
     spin moment: S , {S} =    2.00784  -0.00000   0.00000   2.00784
timer: Routine,Calls,Time,% = IterSCF        1      14.000  18.54
   scf:    2    -4147.726030    -4136.091149    -4136.096284  0.454400 -4.243850 11.620881
     spin moment: S , {S} =    1.96020   0.00000   0.00000   1.96020
   scf:    3    -4100.502390    -4131.425721    -4131.457279  0.427649 -4.366596 12.796110
     spin moment: S , {S} =    2.43584  -0.00000   0.00000   2.43584
   scf:    4    -4150.342517    -4145.057930    -4145.057931  0.315166 -3.944041  5.853997
     spin moment: S , {S} =    0.00010  -0.00000  -0.00000   0.00010
   scf:    5    -4146.438443    -4145.867397    -4145.867397  0.040080 -3.752659  4.180766
     spin moment: S , {S} =    0.00006  -0.00000   0.00000   0.00006
   scf:    6    -4146.605749    -4146.241948    -4146.241948  0.023692 -3.614532  2.243176
     spin moment: S , {S} =    0.00003   0.00000  -0.00000   0.00003
   scf:    7    -4146.627275    -4146.431944    -4146.431944  0.023438 -3.800777  0.871228
     spin moment: S , {S} =    0.00001  -0.00000   0.00000   0.00001
   scf:    8    -4146.542354    -4146.485686    -4146.485686  0.012176 -3.731193  0.522886
     spin moment: S , {S} =    0.00000  -0.00000  -0.00000   0.00000
   scf:    9    -4146.528738    -4146.506435    -4146.506435  0.007373 -3.701689  0.386232
     spin moment: S , {S} =    0.00000   0.00000   0.00000   0.00000
   scf:   10    -4146.559819    -4146.526106    -4146.526106  0.022368 -3.824137  0.251958
     spin moment: S , {S} =    0.00000   0.00000   0.00000  -0.00000
   scf:   11    -4146.529693    -4146.527865    -4146.527865  0.006179 -3.812232  0.077301
     spin moment: S , {S} =    0.00000  -0.00000   0.00000  -0.00000
   scf:   12    -4146.529471    -4146.528686    -4146.528686  0.001263 -3.798609  0.031116
     spin moment: S , {S} =    0.00000  -0.00000   0.00000  -0.00000
   scf:   13    -4146.529229    -4146.528954    -4146.528954  0.001209 -3.796064  0.020509
     spin moment: S , {S} =    0.00000  -0.00000   0.00000  -0.00000
   scf:   14    -4146.529266    -4146.529102    -4146.529102  0.000869 -3.794087  0.011981
     spin moment: S , {S} =    0.00000  -0.00000   0.00000  -0.00000
   scf:   15    -4146.529224    -4146.529159    -4146.529159  0.000814 -3.793953  0.007634
     spin moment: S , {S} =    0.00000  -0.00000   0.00000  -0.00000
   scf:   16    -4146.529226    -4146.529189    -4146.529189  0.000718 -3.793917  0.005630
     spin moment: S , {S} =    0.00000   0.00000   0.00000   0.00000
   scf:   17    -4146.529210    -4146.529199    -4146.529199  0.000444 -3.793914  0.004136
     spin moment: S , {S} =    0.00000   0.00000   0.00000   0.00000
   scf:   18    -4146.529208    -4146.529203    -4146.529203  0.000282 -3.793889  0.002776
     spin moment: S , {S} =    0.00000   0.00000   0.00000   0.00000
   scf:   19    -4146.529207    -4146.529205    -4146.529205  0.000228 -3.793837  0.001884
     spin moment: S , {S} =    0.00000   0.00000   0.00000   0.00000
   scf:   20    -4146.529207    -4146.529206    -4146.529206  0.000130 -3.793848  0.001288
     spin moment: S , {S} =    0.00000   0.00000   0.00000   0.00000
   scf:   21    -4146.529207    -4146.529206    -4146.529206  0.000160 -3.793899  0.000763
     spin moment: S , {S} =    0.00000  -0.00000   0.00000   0.00000
   scf:   22    -4146.529207    -4146.529207    -4146.529207  0.000117 -3.793953  0.000265
     spin moment: S , {S} =    0.00000   0.00000   0.00000   0.00000
   scf:   23    -4146.529207    -4146.529207    -4146.529207  0.000045 -3.793958  0.000157
     spin moment: S , {S} =    0.00000   0.00000   0.00000   0.00000
   scf:   24    -4146.529207    -4146.529207    -4146.529207  0.000019 -3.793949  0.000096
     spin moment: S , {S} =    0.00000   0.00000   0.00000   0.00000
mix: Pulay -- resetting history
   scf:   25    -4146.529207    -4146.529207    -4146.529207  0.000011 -3.793936  0.000059
     spin moment: S , {S} =    0.00000   0.00000   0.00000   0.00000
   scf:   26    -4146.529207    -4146.529207    -4146.529207  0.000004 -3.793925  0.000033
     spin moment: S , {S} =    0.00000   0.00000   0.00000   0.00000
   scf:   27    -4146.529207    -4146.529207    -4146.529207  0.000003 -3.793924  0.000021
     spin moment: S , {S} =    0.00000   0.00000   0.00000   0.00000
   scf:   28    -4146.529207    -4146.529207    -4146.529207  0.000002 -3.793922  0.000010
     spin moment: S , {S} =    0.00000   0.00000   0.00000   0.00000
   scf:   29    -4146.529207    -4146.529207    -4146.529207  0.000001 -3.793922  0.000007
     spin moment: S , {S} =    0.00000   0.00000   0.00000   0.00000
   scf:   30    -4146.529207    -4146.529207    -4146.529207  0.000001 -3.793921  0.000003
     spin moment: S , {S} =    0.00000   0.00000   0.00000   0.00000
   scf:   31    -4146.529207    -4146.529207    -4146.529207  0.000000 -3.793921  0.000002
     spin moment: S , {S} =    0.00000   0.00000   0.00000   0.00000
   scf:   32    -4146.529207    -4146.529207    -4146.529207  0.000000 -3.793921  0.000001
     spin moment: S , {S} =    0.00000   0.00000   0.00000   0.00000
   scf:   33    -4146.529207    -4146.529207    -4146.529207  0.000000 -3.793921  0.000001
     spin moment: S , {S} =    0.00000  -0.00000   0.00000   0.00000

SCF Convergence by DM+H criterion
max |DM_out - DM_in|         :     0.0000001760
max |H_out - H_in|      (eV) :     0.0000008370
SCF cycle converged after 33 iterations

Using DM_out to compute the final energy and forces
No. of atoms with KB's overlaping orbs in proc 0. Max # of overlaps:      29     142

siesta: E_KS(eV) =            -4146.5292

siesta: E_KS - E_eggbox =     -4146.5292
     spin moment: S , {S} =    0.00000  -0.00000   0.00000   0.00000

siesta: Atomic forces (eV/Ang):
     1   -1.580230   -1.416218   -0.000000
     2   -0.006269   -0.008857   -0.000000
     3   -0.049940    0.010994    0.000000
     4   -0.038672   -0.035422    0.000000
     5    0.002141   -0.029495   -0.000000
     6   -0.056587   -0.003562    0.000000
     7   -0.007208   -0.002943   -0.000000
     8    0.028074    0.035710   -0.000000
     9    0.056930   -0.001925   -0.000000
    10    0.109206    0.031535    0.000000
    11   -0.030569    0.030217    0.000000
    12   -0.208157   -0.030159    0.000000
    13    0.034473    0.068004    0.000000
    14    0.002775    0.061713   -0.000000
    15    0.173612    0.096049   -0.000000
    16   -0.080504    0.187540    0.000000
    17   -0.062977    0.000466   -0.000000
    18    0.006217   -0.008421   -0.000000
    19   -0.009328    0.023654   -0.000000
    20   -0.014554   -0.003875   -0.000000
    21    0.028023   -0.026626   -0.000000
    22    0.051021   -0.003118    0.000000
    23    0.005346    0.006532    0.000000
    24   -0.018839    0.196377    0.000000
    25   -0.120164    0.028489   -0.000000
    26   -0.038545    0.144471   -0.000000
    27    0.102885    0.003186   -0.000000
    28    1.152103   -0.176853   -0.000000
    29    0.097198   -0.008072    0.000000
----------------------------------------
   Tot   -0.472540   -0.830611    0.000000
----------------------------------------
   Max    1.580230
   Res    0.265481    sqrt( Sum f_i^2 / 3N )
----------------------------------------
   Max    1.580230    constrained

Stress tensor Voigt[x,y,z,yz,xz,xy] (kbar):        0.07        0.26       -0.09       -0.00       -0.00        0.37
(Free)E + p*V (eV/cell)    -4146.8283
Target enthalpy (eV/cell)    -4146.5292

mulliken: Atomic and Orbital Populations:

Species: O                   

Atom      Orb        Charge      Spin       Svec
----------------------------------------------------------------
    1  1 2s         1.74566   0.00000     -0.000   0.000   0.000
    1  2 2s         0.06785   0.00000      0.000  -0.000   0.000
    1  3 2py        1.42543   0.00000      0.000  -0.000  -0.000
    1  4 2pz        1.54009   0.00000     -0.000  -0.000  -0.000
    1  5 2px        1.61433   0.00000     -0.000   0.000  -0.000
    1  6 2py        0.04239   0.00000     -0.000   0.000   0.000
    1  7 2pz       -0.00249   0.00000      0.000   0.000   0.000
    1  8 2px        0.00830   0.00000      0.000  -0.000   0.000
    1  9 3Pdxy      0.00755   0.00000     -0.000   0.000   0.000
    1 10 3Pdyz      0.00953   0.00000     -0.000  -0.000  -0.000
    1 11 3Pdz2      0.00172   0.00000      0.000  -0.000  -0.000
    1 12 3Pdxz      0.00043   0.00000      0.000   0.000   0.000
    1 13 3Pdx2-y2   0.00717   0.00000     -0.000   0.000  -0.000
    1     Total     6.46795   0.00000     -0.000  -0.000   0.000

   28  1 2s         1.73574   0.00000      0.000  -0.000   0.000
   28  2 2s         0.07184   0.00000     -0.000   0.000  -0.000
   28  3 2py        1.41832   0.00000     -0.000  -0.000   0.000
   28  4 2pz        1.53526   0.00000     -0.000  -0.000   0.000
   28  5 2px        1.63265   0.00000      0.000  -0.000   0.000
   28  6 2py        0.04558   0.00000      0.000   0.000   0.000
   28  7 2pz       -0.00065   0.00000      0.000  -0.000   0.000
   28  8 2px        0.01476   0.00000     -0.000   0.000   0.000
   28  9 3Pdxy      0.00716   0.00000     -0.000   0.000  -0.000
   28 10 3Pdyz      0.01045   0.00000      0.000  -0.000   0.000
   28 11 3Pdz2      0.00130   0.00000      0.000  -0.000  -0.000
   28 12 3Pdxz     -0.00017   0.00000      0.000   0.000   0.000
   28 13 3Pdx2-y2   0.00781   0.00000      0.000  -0.000  -0.000
   28     Total     6.48003   0.00000     -0.000  -0.000   0.000

----------------------------------------------------------------
Total              12.94798   0.00000     -0.000  -0.000   0.000


Species: N                   

Atom      Orb        Charge      Spin       Svec
----------------------------------------------------------------
    2  1 2s         1.55027   0.00000     -0.000  -0.000  -0.000
    2  2 2s         0.08416   0.00000      0.000   0.000   0.000
    2  3 2py        1.03132   0.00000     -0.000  -0.000  -0.000
    2  4 2pz        1.22379   0.00000      0.000   0.000  -0.000
    2  5 2px        1.00466   0.00000      0.000   0.000  -0.000
    2  6 2py        0.19299   0.00000      0.000   0.000   0.000
    2  7 2pz        0.05465   0.00000     -0.000  -0.000   0.000
    2  8 2px        0.19101   0.00000     -0.000  -0.000   0.000
    2  9 3Pdxy      0.00843   0.00000      0.000  -0.000   0.000
    2 10 3Pdyz      0.01084   0.00000      0.000  -0.000   0.000
    2 11 3Pdz2      0.00196   0.00000     -0.000   0.000   0.000
    2 12 3Pdxz      0.00753   0.00000     -0.000  -0.000   0.000
    2 13 3Pdx2-y2   0.00893   0.00000      0.000   0.000  -0.000
    2     Total     5.37053   0.00000      0.000   0.000  -0.000

    3  1 2s         1.40760   0.00000     -0.000  -0.000  -0.000
    3  2 2s         0.11422   0.00000      0.000   0.000   0.000
    3  3 2py        0.93957   0.00000      0.000   0.000  -0.000
    3  4 2pz        1.53789   0.00000     -0.000  -0.000  -0.000
    3  5 2px        1.09688   0.00000      0.000  -0.000  -0.000
    3  6 2py        0.24820   0.00000     -0.000  -0.000   0.000
    3  7 2pz        0.00898   0.00000     -0.000   0.000   0.000
    3  8 2px        0.16946   0.00000     -0.000  -0.000   0.000
    3  9 3Pdxy      0.00430   0.00000     -0.000   0.000   0.000
    3 10 3Pdyz      0.00418   0.00000      0.000   0.000  -0.000
    3 11 3Pdz2      0.00083   0.00000     -0.000  -0.000   0.000
    3 12 3Pdxz      0.00267   0.00000      0.000  -0.000  -0.000
    3 13 3Pdx2-y2   0.00307   0.00000     -0.000  -0.000  -0.000
    3     Total     5.53786   0.00000     -0.000  -0.000  -0.000

    4  1 2s         1.46848   0.00000      0.000  -0.000  -0.000
    4  2 2s         0.11681   0.00000      0.000   0.000   0.000
    4  3 2py        1.10529   0.00000      0.000   0.000  -0.000
    4  4 2pz        1.29238   0.00000     -0.000   0.000  -0.000
    4  5 2px        0.84205   0.00000      0.000   0.000  -0.000
    4  6 2py        0.15555   0.00000     -0.000  -0.000   0.000
    4  7 2pz        0.05379   0.00000      0.000  -0.000   0.000
    4  8 2px        0.28649   0.00000     -0.000  -0.000   0.000
    4  9 3Pdxy      0.00855   0.00000     -0.000   0.000   0.000
    4 10 3Pdyz      0.01080   0.00000     -0.000   0.000  -0.000
    4 11 3Pdz2      0.00132   0.00000     -0.000   0.000   0.000
    4 12 3Pdxz      0.00496   0.00000      0.000   0.000  -0.000
    4 13 3Pdx2-y2   0.00850   0.00000     -0.000  -0.000  -0.000
    4     Total     5.35497   0.00000      0.000   0.000   0.000

    5  1 2s         1.37362   0.00000     -0.000   0.000  -0.000
    5  2 2s         0.12891   0.00000      0.000  -0.000   0.000
    5  3 2py        1.02680   0.00000      0.000   0.000  -0.000
    5  4 2pz        1.50105   0.00000      0.000  -0.000  -0.000
    5  5 2px        1.05900   0.00000     -0.000  -0.000  -0.000
    5  6 2py        0.20345   0.00000     -0.000   0.000   0.000
    5  7 2pz        0.01348   0.00000     -0.000   0.000   0.000
    5  8 2px        0.20238   0.00000      0.000   0.000   0.000
    5  9 3Pdxy      0.00369   0.00000      0.000  -0.000   0.000
    5 10 3Pdyz      0.00249   0.00000      0.000  -0.000   0.000
    5 11 3Pdz2      0.00137   0.00000     -0.000  -0.000   0.000
    5 12 3Pdxz      0.00686   0.00000      0.000   0.000   0.000
    5 13 3Pdx2-y2   0.00570   0.00000     -0.000  -0.000   0.000
    5     Total     5.52880   0.00000     -0.000  -0.000  -0.000

    6  1 2s         1.26684   0.00000     -0.000   0.000  -0.000
    6  2 2s         0.17984   0.00000      0.000  -0.000   0.000
    6  3 2py        1.08006   0.00000      0.000  -0.000  -0.000
    6  4 2pz        1.57739   0.00000      0.000   0.000  -0.000
    6  5 2px        0.97125   0.00000     -0.000  -0.000  -0.000
    6  6 2py        0.18741   0.00000     -0.000   0.000   0.000
    6  7 2pz        0.02929   0.00000     -0.000   0.000   0.000
    6  8 2px        0.25268   0.00000      0.000   0.000   0.000
    6  9 3Pdxy      0.00270   0.00000      0.000  -0.000   0.000
    6 10 3Pdyz      0.00013   0.00000      0.000  -0.000  -0.000
    6 11 3Pdz2      0.00168   0.00000     -0.000  -0.000   0.000
    6 12 3Pdxz      0.00288   0.00000     -0.000  -0.000  -0.000
    6 13 3Pdx2-y2   0.00301   0.00000      0.000  -0.000   0.000
    6     Total     5.55516   0.00000      0.000  -0.000  -0.000

   21  1 2s         1.41217   0.00000      0.000   0.000  -0.000
   21  2 2s         0.13214   0.00000     -0.000   0.000   0.000
   21  3 2py        0.87114   0.00000      0.000   0.000  -0.000
   21  4 2pz        1.29299   0.00000      0.000   0.000   0.000
   21  5 2px        1.15565   0.00000     -0.000  -0.000  -0.000
   21  6 2py        0.28103   0.00000     -0.000  -0.000   0.000
   21  7 2pz        0.05019   0.00000      0.000  -0.000   0.000
   21  8 2px        0.16548   0.00000      0.000   0.000   0.000
   21  9 3Pdxy      0.00658   0.00000      0.000  -0.000   0.000
   21 10 3Pdyz      0.00525   0.00000     -0.000  -0.000  -0.000
   21 11 3Pdz2     -0.00003   0.00000      0.000  -0.000  -0.000
   21 12 3Pdxz      0.00579   0.00000      0.000   0.000   0.000
   21 13 3Pdx2-y2   0.00558   0.00000     -0.000   0.000  -0.000
   21     Total     5.38394   0.00000     -0.000   0.000  -0.000

   22  1 2s         1.28706   0.00000      0.000   0.000   0.000
   22  2 2s         0.17077   0.00000     -0.000  -0.000  -0.000
   22  3 2py        1.06923   0.00000     -0.000   0.000  -0.000
   22  4 2pz        1.56165   0.00000     -0.000  -0.000  -0.000
   22  5 2px        1.00216   0.00000     -0.000   0.000  -0.000
   22  6 2py        0.19301   0.00000      0.000  -0.000   0.000
   22  7 2pz        0.02774   0.00000      0.000   0.000   0.000
   22  8 2px        0.23273   0.00000      0.000  -0.000   0.000
   22  9 3Pdxy      0.00361   0.00000     -0.000   0.000   0.000
   22 10 3Pdyz      0.00013   0.00000     -0.000   0.000  -0.000
   22 11 3Pdz2      0.00260   0.00000     -0.000  -0.000   0.000
   22 12 3Pdxz      0.00279   0.00000     -0.000  -0.000   0.000
   22 13 3Pdx2-y2   0.00337   0.00000      0.000  -0.000  -0.000
   22     Total     5.55685   0.00000     -0.000   0.000  -0.000

   23  1 2s         1.39864   0.00000      0.000  -0.000   0.000
   23  2 2s         0.11692   0.00000     -0.000   0.000  -0.000
   23  3 2py        0.99583   0.00000      0.000  -0.000   0.000
   23  4 2pz        1.51823   0.00000      0.000   0.000  -0.000
   23  5 2px        1.07609   0.00000      0.000  -0.000  -0.000
   23  6 2py        0.22144   0.00000     -0.000   0.000  -0.000
   23  7 2pz        0.00550   0.00000      0.000  -0.000   0.000
   23  8 2px        0.19210   0.00000     -0.000   0.000   0.000
   23  9 3Pdxy      0.00527   0.00000      0.000  -0.000   0.000
   23 10 3Pdyz      0.00451   0.00000      0.000  -0.000  -0.000
   23 11 3Pdz2      0.00048   0.00000     -0.000  -0.000  -0.000
   23 12 3Pdxz      0.00229   0.00000      0.000   0.000  -0.000
   23 13 3Pdx2-y2   0.00119   0.00000     -0.000   0.000  -0.000
   23     Total     5.53849   0.00000      0.000   0.000  -0.000

----------------------------------------------------------------
Total              56.77457   0.00000     -0.000   0.000  -0.000


Species: Si                  

Atom      Orb        Charge      Spin       Svec
----------------------------------------------------------------
    7  1 3s         0.68894   0.00000     -0.000   0.000   0.000
    7  2 3s         0.35794   0.00000      0.000  -0.000   0.000
    7  3 3py        0.47563   0.00000     -0.000  -0.000   0.000
    7  4 3pz        0.69914   0.00000      0.000   0.000   0.000
    7  5 3px        0.13668   0.00000     -0.000  -0.000   0.000
    7  6 3py        0.27095   0.00000     -0.000   0.000   0.000
    7  7 3pz        0.25794   0.00000     -0.000  -0.000   0.000
    7  8 3px        0.42212   0.00000      0.000   0.000   0.000
    7  9 3Pdxy      0.24287   0.00000     -0.000  -0.000   0.000
    7 10 3Pdyz      0.03037   0.00000      0.000   0.000   0.000
    7 11 3Pdz2      0.01208   0.00000      0.000   0.000   0.000
    7 12 3Pdxz      0.13864   0.00000      0.000   0.000  -0.000
    7 13 3Pdx2-y2   0.11315   0.00000     -0.000  -0.000   0.000
    7     Total     3.84644   0.00000      0.000  -0.000   0.000

    8  1 3s         0.64828   0.00000      0.000   0.000   0.000
    8  2 3s         0.37126   0.00000     -0.000  -0.000   0.000
    8  3 3py        0.38674   0.00000      0.000   0.000  -0.000
    8  4 3pz        0.52715   0.00000     -0.000  -0.000  -0.000
    8  5 3px       -0.03201   0.00000     -0.000  -0.000  -0.000
    8  6 3py        0.30473   0.00000     -0.000  -0.000   0.000
    8  7 3pz        0.20213   0.00000      0.000   0.000   0.000
    8  8 3px        0.52008   0.00000      0.000   0.000   0.000
    8  9 3Pdxy      0.25846   0.00000     -0.000  -0.000   0.000
    8 10 3Pdyz      0.11053   0.00000     -0.000  -0.000  -0.000
    8 11 3Pdz2      0.01337   0.00000      0.000   0.000   0.000
    8 12 3Pdxz      0.15557   0.00000     -0.000   0.000  -0.000
    8 13 3Pdx2-y2   0.18796   0.00000      0.000  -0.000  -0.000
    8     Total     3.65426   0.00000     -0.000  -0.000  -0.000

    9  1 3s         0.63052   0.00000     -0.000   0.000  -0.000
    9  2 3s         0.35569   0.00000      0.000  -0.000  -0.000
    9  3 3py        0.08585   0.00000     -0.000  -0.000  -0.000
    9  4 3pz        0.48243   0.00000     -0.000  -0.000  -0.000
    9  5 3px        0.37109   0.00000      0.000  -0.000  -0.000
    9  6 3py        0.43883   0.00000      0.000   0.000  -0.000
    9  7 3pz        0.18478   0.00000      0.000   0.000  -0.000
    9  8 3px        0.26792   0.00000     -0.000   0.000   0.000
    9  9 3Pdxy      0.31452   0.00000      0.000   0.000  -0.000
    9 10 3Pdyz      0.19135   0.00000      0.000   0.000  -0.000
    9 11 3Pdz2      0.01622   0.00000     -0.000   0.000  -0.000
    9 12 3Pdxz      0.08741   0.00000     -0.000   0.000  -0.000
    9 13 3Pdx2-y2   0.15439   0.00000      0.000  -0.000   0.000
    9     Total     3.58100   0.00000     -0.000   0.000  -0.000

   10  1 3s         0.48402   0.00000      0.000  -0.000   0.000
   10  2 3s         0.37948   0.00000     -0.000   0.000   0.000
   10  3 3py        0.23999   0.00000      0.000   0.000   0.000
   10  4 3pz        0.41035   0.00000      0.000   0.000   0.000
   10  5 3px        0.10261   0.00000     -0.000  -0.000   0.000
   10  6 3py        0.33619   0.00000      0.000  -0.000   0.000
   10  7 3pz        0.22058   0.00000     -0.000   0.000   0.000
   10  8 3px        0.42167   0.00000      0.000   0.000  -0.000
   10  9 3Pdxy      0.16309   0.00000     -0.000  -0.000  -0.000
   10 10 3Pdyz      0.14980   0.00000      0.000  -0.000   0.000
   10 11 3Pdz2      0.01142   0.00000     -0.000   0.000   0.000
   10 12 3Pdxz      0.16959   0.00000      0.000  -0.000   0.000
   10 13 3Pdx2-y2   0.32194   0.00000      0.000   0.000  -0.000
   10     Total     3.41073   0.00000      0.000   0.000   0.000

   11  1 3s         0.55855   0.00000      0.000  -0.000   0.000
   11  2 3s         0.38212   0.00000     -0.000   0.000   0.000
   11  3 3py        0.30384   0.00000      0.000   0.000   0.000
   11  4 3pz        0.54240   0.00000     -0.000  -0.000   0.000
   11  5 3px        0.13769   0.00000      0.000  -0.000   0.000
   11  6 3py        0.30311   0.00000     -0.000  -0.000   0.000
   11  7 3pz        0.17716   0.00000      0.000   0.000   0.000
   11  8 3px        0.43247   0.00000      0.000   0.000  -0.000
   11  9 3Pdxy      0.24366   0.00000     -0.000   0.000   0.000
   11 10 3Pdyz      0.12461   0.00000      0.000  -0.000   0.000
   11 11 3Pdz2      0.00938   0.00000      0.000  -0.000  -0.000
   11 12 3Pdxz      0.05251   0.00000     -0.000   0.000   0.000
   11 13 3Pdx2-y2   0.18366   0.00000      0.000   0.000   0.000
   11     Total     3.45116   0.00000      0.000  -0.000   0.000

   17  1 3s         0.64935   0.00000      0.000  -0.000   0.000
   17  2 3s         0.35767   0.00000     -0.000   0.000  -0.000
   17  3 3py        0.25118   0.00000     -0.000   0.000   0.000
   17  4 3pz        0.42800   0.00000     -0.000  -0.000   0.000
   17  5 3px        0.22826   0.00000     -0.000  -0.000   0.000
   17  6 3py        0.37050   0.00000     -0.000  -0.000  -0.000
   17  7 3pz        0.21258   0.00000      0.000   0.000   0.000
   17  8 3px        0.37578   0.00000      0.000  -0.000  -0.000
   17  9 3Pdxy      0.29621   0.00000      0.000  -0.000  -0.000
   17 10 3Pdyz      0.14011   0.00000      0.000  -0.000   0.000
   17 11 3Pdz2      0.00984   0.00000      0.000  -0.000   0.000
   17 12 3Pdxz      0.14742   0.00000      0.000   0.000   0.000
   17 13 3Pdx2-y2   0.16952   0.00000     -0.000  -0.000   0.000
   17     Total     3.63641   0.00000     -0.000  -0.000   0.000

   18  1 3s         0.74683   0.00000     -0.000  -0.000   0.000
   18  2 3s         0.33770   0.00000     -0.000   0.000   0.000
   18  3 3py        0.09045   0.00000     -0.000   0.000   0.000
   18  4 3pz        0.83355   0.00000     -0.000   0.000   0.000
   18  5 3px        0.54560   0.00000     -0.000  -0.000   0.000
   18  6 3py        0.51258   0.00000      0.000  -0.000   0.000
   18  7 3pz        0.19686   0.00000     -0.000  -0.000   0.000
   18  8 3px        0.25176   0.00000      0.000   0.000   0.000
   18  9 3Pdxy      0.10903   0.00000      0.000   0.000  -0.000
   18 10 3Pdyz      0.02761   0.00000     -0.000   0.000  -0.000
   18 11 3Pdz2      0.00944   0.00000     -0.000  -0.000  -0.000
   18 12 3Pdxz      0.02911   0.00000     -0.000   0.000  -0.000
   18 13 3Pdx2-y2   0.10686   0.00000     -0.000   0.000   0.000
   18     Total     3.79738   0.00000     -0.000  -0.000   0.000

   19  1 3s         0.45382   0.00000      0.000  -0.000   0.000
   19  2 3s         0.36564   0.00000      0.000  -0.000  -0.000
   19  3 3py        0.07906   0.00000     -0.000   0.000   0.000
   19  4 3pz        0.41853   0.00000     -0.000  -0.000  -0.000
   19  5 3px        0.34619   0.00000      0.000   0.000   0.000
   19  6 3py        0.47052   0.00000      0.000  -0.000  -0.000
   19  7 3pz        0.18758   0.00000      0.000   0.000  -0.000
   19  8 3px        0.24299   0.00000     -0.000   0.000  -0.000
   19  9 3Pdxy      0.34849   0.00000     -0.000   0.000  -0.000
   19 10 3Pdyz      0.18929   0.00000      0.000  -0.000  -0.000
   19 11 3Pdz2      0.01589   0.00000      0.000  -0.000   0.000
   19 12 3Pdxz      0.08365   0.00000     -0.000  -0.000   0.000
   19 13 3Pdx2-y2   0.22722   0.00000     -0.000   0.000  -0.000
   19     Total     3.42887   0.00000      0.000   0.000  -0.000

   20  1 3s         0.67276   0.00000      0.000  -0.000  -0.000
   20  2 3s         0.38006   0.00000     -0.000   0.000  -0.000
   20  3 3py        0.33880   0.00000     -0.000   0.000  -0.000
   20  4 3pz        0.57813   0.00000      0.000  -0.000  -0.000
   20  5 3px        0.13775   0.00000     -0.000  -0.000  -0.000
   20  6 3py        0.29044   0.00000      0.000  -0.000  -0.000
   20  7 3pz        0.16359   0.00000     -0.000   0.000  -0.000
   20  8 3px        0.49953   0.00000      0.000   0.000   0.000
   20  9 3Pdxy      0.10304   0.00000     -0.000   0.000  -0.000
   20 10 3Pdyz      0.13524   0.00000     -0.000  -0.000  -0.000
   20 11 3Pdz2      0.00730   0.00000     -0.000   0.000   0.000
   20 12 3Pdxz      0.02695   0.00000      0.000  -0.000  -0.000
   20 13 3Pdx2-y2   0.17051   0.00000     -0.000   0.000   0.000
   20     Total     3.50408   0.00000     -0.000  -0.000  -0.000

----------------------------------------------------------------
Total              89.08490   0.00000     -0.000  -0.000   0.000


Species: H                   

Atom      Orb        Charge      Spin       Svec
----------------------------------------------------------------
   12  1 1s         0.49255   0.00000     -0.000   0.000   0.000
   12  2 1s         0.18568   0.00000      0.000  -0.000   0.000
   12  3 2Ppy       0.02885   0.00000      0.000  -0.000   0.000
   12  4 2Ppz       0.03587   0.00000     -0.000  -0.000  -0.000
   12  5 2Ppx       0.02329   0.00000     -0.000   0.000  -0.000
   12     Total     0.76624   0.00000     -0.000   0.000   0.000

   13  1 1s         1.02013   0.00000     -0.000  -0.000  -0.000
   13  2 1s         0.09458   0.00000      0.000   0.000   0.000
   13  3 2Ppy       0.01984   0.00000     -0.000  -0.000  -0.000
   13  4 2Ppz       0.02011   0.00000     -0.000   0.000   0.000
   13  5 2Ppx       0.03326   0.00000      0.000   0.000   0.000
   13     Total     1.18792   0.00000     -0.000  -0.000  -0.000

   14  1 1s         0.46439   0.00000      0.000   0.000   0.000
   14  2 1s         0.19966   0.00000      0.000  -0.000   0.000
   14  3 2Ppy       0.01829   0.00000      0.000   0.000  -0.000
   14  4 2Ppz       0.04714   0.00000      0.000   0.000  -0.000
   14  5 2Ppx       0.01738   0.00000      0.000  -0.000   0.000
   14     Total     0.74686   0.00000      0.000   0.000   0.000

   15  1 1s         0.46972   0.00000      0.000   0.000   0.000
   15  2 1s         0.19914   0.00000     -0.000  -0.000   0.000
   15  3 2Ppy       0.00536   0.00000      0.000   0.000  -0.000
   15  4 2Ppz       0.04930   0.00000     -0.000   0.000   0.000
   15  5 2Ppx       0.02791   0.00000      0.000   0.000  -0.000
   15     Total     0.75143   0.00000     -0.000   0.000   0.000

   16  1 1s         0.50829   0.00000     -0.000   0.000   0.000
   16  2 1s         0.18762   0.00000      0.000  -0.000   0.000
   16  3 2Ppy       0.03005   0.00000      0.000  -0.000   0.000
   16  4 2Ppz       0.03954   0.00000     -0.000   0.000  -0.000
   16  5 2Ppx       0.02320   0.00000     -0.000   0.000   0.000
   16     Total     0.78870   0.00000     -0.000   0.000   0.000

   24  1 1s         1.05776   0.00000     -0.000   0.000  -0.000
   24  2 1s         0.07638   0.00000      0.000  -0.000   0.000
   24  3 2Ppy       0.03139   0.00000      0.000  -0.000   0.000
   24  4 2Ppz       0.03145   0.00000     -0.000   0.000   0.000
   24  5 2Ppx       0.01751   0.00000      0.000  -0.000  -0.000
   24     Total     1.21449   0.00000     -0.000   0.000  -0.000

   25  1 1s         1.04792   0.00000      0.000  -0.000  -0.000
   25  2 1s         0.08397   0.00000     -0.000  -0.000  -0.000
   25  3 2Ppy       0.01172   0.00000      0.000  -0.000  -0.000
   25  4 2Ppz       0.01782   0.00000      0.000   0.000  -0.000
   25  5 2Ppx       0.03645   0.00000      0.000  -0.000   0.000
   25     Total     1.19788   0.00000      0.000  -0.000  -0.000

   26  1 1s         0.47698   0.00000      0.000   0.000   0.000
   26  2 1s         0.19854   0.00000     -0.000  -0.000   0.000
   26  3 2Ppy       0.01869   0.00000      0.000   0.000  -0.000
   26  4 2Ppz       0.05218   0.00000      0.000   0.000  -0.000
   26  5 2Ppx       0.01624   0.00000      0.000  -0.000  -0.000
   26     Total     0.76263   0.00000      0.000   0.000   0.000

   27  1 1s         0.46926   0.00000      0.000  -0.000   0.000
   27  2 1s         0.19658   0.00000     -0.000   0.000   0.000
   27  3 2Ppy       0.00607   0.00000     -0.000   0.000  -0.000
   27  4 2Ppz       0.04444   0.00000     -0.000  -0.000   0.000
   27  5 2Ppx       0.02869   0.00000     -0.000  -0.000  -0.000
   27     Total     0.74504   0.00000      0.000  -0.000   0.000

   29  1 1s         0.48243   0.00000      0.000   0.000   0.000
   29  2 1s         0.18850   0.00000     -0.000  -0.000   0.000
   29  3 2Ppy       0.02520   0.00000     -0.000   0.000  -0.000
   29  4 2Ppz       0.03398   0.00000     -0.000  -0.000   0.000
   29  5 2Ppx       0.02380   0.00000      0.000   0.000   0.000
   29     Total     0.75391   0.00000      0.000  -0.000   0.000

----------------------------------------------------------------
Total              98.00000   0.00000     -0.000   0.000   0.000


siesta: Eigenvalues (eV):
ik =     1
  -21.9672  -21.9672  -21.9247  -21.9247  -21.7549  -21.7549  -21.5199  -21.5199  -21.3234  -21.3234
  -21.0413  -21.0413  -20.8453  -20.8453  -19.8827  -19.8827  -19.4673  -19.4673  -19.3867  -19.3867
  -14.7045  -14.7045  -13.9158  -13.9158  -13.2952  -13.2952  -13.1867  -13.1867  -13.1473  -13.1473
  -12.8575  -12.8575  -12.8002  -12.8002  -12.5038  -12.5038  -12.3709  -12.3709  -11.9369  -11.9369
  -11.4594  -11.4594  -10.7627  -10.7627  -10.7587  -10.7587  -10.6920  -10.6920  -10.0628  -10.0628
   -9.5487   -9.5487   -9.2091   -9.2091   -8.9866   -8.9866   -8.7716   -8.7716   -8.6417   -8.6417
   -8.6174   -8.6174   -8.3782   -8.3782   -8.2190   -8.2190   -7.7836   -7.7836   -7.6994   -7.6994
   -7.6414   -7.6414   -7.4390   -7.4390   -7.2942   -7.2942   -6.8615   -6.8615   -6.7513   -6.7513
   -6.5699   -6.5699   -6.5169   -6.5169   -6.2803   -6.2803   -6.1962   -6.1962   -6.1410   -6.1410
   -5.8764   -5.8764   -5.8489   -5.8489   -5.4295   -5.4295   -4.3935   -4.3935   -3.2017   -3.2017
   -2.4091   -2.4091   -2.3216   -2.3216   -2.2426   -2.2426   -1.9888   -1.9888   -1.8781   -1.8781
   -1.8564   -1.8564   -1.7519   -1.7519   -1.5744   -1.5744   -1.5322   -1.5322   -1.2656   -1.2656
   -0.9283   -0.9283   -0.8165   -0.8165   -0.4809   -0.4809   -0.1580   -0.1580    0.2810    0.2810
    0.3057    0.3057    0.3066    0.3066    0.6026    0.6026    0.7673    0.7673    0.7855    0.7855
    1.1844    1.1844    1.3042    1.3042    1.4165    1.4165    1.4664    1.4664    1.4708    1.4708
    1.6655    1.6655    1.9073    1.9073    2.2365    2.2365    2.3715    2.3715    2.6202    2.6202
    2.6831    2.6831    2.9641    2.9641    3.0241    3.0241    3.1502    3.1502    3.2882    3.2882
    3.3693    3.3693    3.7315    3.7315    3.8780    3.8780    4.1518    4.1518    4.3256    4.3256
    4.4747    4.4747    4.5273    4.5273    4.5416    4.5416    4.7145    4.7145    4.7609    4.7609
    4.8674    4.8674    5.0977    5.0977    5.2032    5.2032    5.5337    5.5337    5.5755    5.5755
    5.6016    5.6016    5.8196    5.8196    5.9085    5.9085    5.9320    5.9320    6.0611    6.0611
    6.2433    6.2433    6.2950    6.2950    6.5837    6.5837    6.6152    6.6152    6.8716    6.8716
    7.1128    7.1128    7.1767    7.1767    7.2387    7.2387    7.4711    7.4711    7.7717    7.7717
    7.7956    7.7956    8.0418    8.0418    8.1307    8.1307    8.1783    8.1783    8.2972    8.2972
    8.5664    8.5664    8.6513    8.6513    8.6637    8.6637    8.9458    8.9458    9.1326    9.1326
    9.1973    9.1973    9.2774    9.2774    9.7269    9.7269    9.7548    9.7548    9.7708    9.7708
    9.7734    9.7734   10.1979   10.1979   10.3225   10.3225   10.7882   10.7882   10.8350   10.8350
   10.9740   10.9740   10.9940   10.9940   11.0298   11.0298   11.8413   11.8413   11.9039   11.9039
   11.9522   11.9522   11.9890   11.9890   12.0523   12.0523   12.3209   12.3209   12.3716   12.3716
   12.7967   12.7967   12.8259   12.8259   13.3485   13.3485   13.5892   13.5892   13.7070   13.7070
   13.9505   13.9505   14.0362   14.0362   14.0736   14.0736   14.0915   14.0915   14.6508   14.6508
   15.0584   15.0584   15.5476   15.5476   15.8027   15.8027   16.1560   16.1560   16.7721   16.7721
   16.9034   16.9034   17.3722   17.3722   18.0989   18.0989   18.2022   18.2022   18.3322   18.3322
   18.4760   18.4760   19.2124   19.2124   19.5052   19.5052   20.0646   20.0646   20.2217   20.2217
   20.9888   20.9888   21.2112   21.2112   21.7894   21.7894   22.3804   22.3804   22.5379   22.5379
   23.0105   23.0105   23.1162   23.1162   23.5606   23.5606   23.7518   23.7518   23.9113   23.9113
   24.7794   24.7794   24.7863   24.7863   26.2837   26.2837   26.8957   26.8957   28.8157   28.8157
   28.8900   28.8900   28.9301   28.9301   29.4199   29.4199   29.7476   29.7476   29.9796   29.9796
   30.2562   30.2562   30.3962   30.3962   30.7685   30.7685   30.8673   30.8673   30.9728   30.9728
   30.9943   30.9943   31.2411   31.2411   31.5234   31.5234   31.7209   31.7209   32.3572   32.3572
   32.7675   32.7675   34.0764   34.0764   34.2533   34.2533   34.6069   34.6069   34.8355   34.8355
   35.1513   35.1513   35.1611   35.1611   35.3317   35.3317   35.4245   35.4245   36.0351   36.0351
   36.5975   36.5975   36.8707   36.8707   37.2449   37.2449   37.3062   37.3062   37.5840   37.5840
   38.0271   38.0271   38.2134   38.2134   39.2095   39.2095   39.3680   39.3680   39.9205   39.9205
   40.1273   40.1273   40.6908   40.6908   40.8415   40.8415   40.8572   40.8572   41.1454   41.1454
   41.3359   41.3359   41.3590   41.3590   42.5215   42.5215   42.8895   42.8895   43.2141   43.2141
   43.2946   43.2946   43.6859   43.6859   43.9199   43.9199   43.9746   43.9746   44.1296   44.1296
   44.6545   44.6545   44.6782   44.6782   44.8569   44.8569   45.3284   45.3284   46.2871   46.2871
   46.4357   46.4357   46.7336   46.7336   47.3717   47.3717   49.1201   49.1201   49.1701   49.1701
   49.3366   49.3366   50.3777   50.3777   50.9079   50.9079   51.0121   51.0121   51.1585   51.1585
   51.2555   51.2555   51.8232   51.8232   52.4872   52.4872   52.8580   52.8580   54.7241   54.7241
   54.7789   54.7789   54.9047   54.9047   55.2362   55.2362   55.7420   55.7420   55.7932   55.7932
   55.9691   55.9691   56.4357   56.4357   56.7190   56.7190   58.1458   58.1458   58.7071   58.7071
   59.1668   59.1668   60.1992   60.1992   60.3142   60.3142   60.9477   60.9477   61.4295   61.4295
   61.8080   61.8080   62.0136   62.0136   62.1740   62.1740   64.2615   64.2615   66.3769   66.3769
   67.1111   67.1111   67.1665   67.1665   68.6804   68.6804   68.9459   68.9459   70.6402   70.6402
   73.3820   73.3820   80.7826   80.7826   90.0803   90.0803   91.7309   91.7309   93.3634   93.3634
   98.2203   98.2203   99.3496   99.3496  100.3177  100.3177  103.2008  103.2008  103.4688  103.4688
  110.4114  110.4114  111.2650  111.2650  123.8166  123.8166  126.2342  126.2342  130.8163  130.8163
  139.8250  139.8250  141.1475  141.1475
siesta: Fermi energy =      -3.793921 eV

siesta: Program's energy decomposition (eV):
siesta: Ebs     =     -1137.326569
siesta: Eions   =      3585.165840
siesta: Ena     =       384.948850
siesta: Ekin    =      2907.644061
siesta: Enl     =     -2795.053624
siesta: Eso     =        -0.004258
siesta: Edftu   =         0.000000
siesta: DEna    =        47.459397
siesta: DUscf   =        14.371512
siesta: DUext   =         0.000000
siesta: Exc     =     -1120.729305
siesta: eta*DQ  =         0.000000
siesta: Emadel  =         0.000000
siesta: Emeta   =         0.000000
siesta: Emolmec =         0.000000
siesta: Ekinion =         0.000000
siesta: Eharris =     -4146.529207
siesta: Etot    =     -4146.529207
siesta: FreeEng =     -4146.529207

siesta: Final energy (eV):
siesta:  Band Struct. =   -1137.326569
siesta:       Kinetic =    2907.644061
siesta:       Hartree =    8177.474827
siesta:       Edftu   =       0.000000
siesta:       Eso     =      -0.004258
siesta:    Ext. field =       0.000000
siesta:   Exch.-corr. =   -1120.729305
siesta:  Ion-electron =  -18945.094647
siesta:       Ion-ion =    4834.180116
siesta:       Ekinion =       0.000000
siesta:         Total =   -4146.529207
siesta:         Fermi =      -3.793921

siesta: Atomic forces (eV/Ang):
siesta:      1   -1.580230   -1.416218   -0.000000
siesta:      2   -0.006269   -0.008857   -0.000000
siesta:      3   -0.049940    0.010994    0.000000
siesta:      4   -0.038672   -0.035422    0.000000
siesta:      5    0.002141   -0.029495   -0.000000
siesta:      6   -0.056587   -0.003562    0.000000
siesta:      7   -0.007208   -0.002943   -0.000000
siesta:      8    0.028074    0.035710   -0.000000
siesta:      9    0.056930   -0.001925   -0.000000
siesta:     10    0.109206    0.031535    0.000000
siesta:     11   -0.030569    0.030217    0.000000
siesta:     12   -0.208157   -0.030159    0.000000
siesta:     13    0.034473    0.068004    0.000000
siesta:     14    0.002775    0.061713   -0.000000
siesta:     15    0.173612    0.096049   -0.000000
siesta:     16   -0.080504    0.187540    0.000000
siesta:     17   -0.062977    0.000466   -0.000000
siesta:     18    0.006217   -0.008421   -0.000000
siesta:     19   -0.009328    0.023654   -0.000000
siesta:     20   -0.014554   -0.003875   -0.000000
siesta:     21    0.028023   -0.026626   -0.000000
siesta:     22    0.051021   -0.003118    0.000000
siesta:     23    0.005346    0.006532    0.000000
siesta:     24   -0.018839    0.196377    0.000000
siesta:     25   -0.120164    0.028489   -0.000000
siesta:     26   -0.038545    0.144471   -0.000000
siesta:     27    0.102885    0.003186   -0.000000
siesta:     28    1.152103   -0.176853   -0.000000
siesta:     29    0.097198   -0.008072    0.000000
siesta: ----------------------------------------
siesta:    Tot   -0.472540   -0.830611    0.000000

siesta: Stress tensor (static) (eV/Ang**3):
siesta:     0.000046    0.000230   -0.000000
siesta:     0.000230    0.000162   -0.000000
siesta:    -0.000000   -0.000000   -0.000055

siesta: Cell volume =       5885.391297 Ang**3

siesta: Pressure (static):
siesta:                Solid            Molecule  Units
siesta:          -0.00000055         -0.00000686  Ry/Bohr**3
siesta:          -0.00005081         -0.00062954  eV/Ang**3
siesta:          -0.08141421         -1.00865156  kBar
(Free)E+ p_basis*V_orbitals  =       -4126.678789
(Free)Eharris+ p_basis*V_orbitals  =       -4126.678789
     spin moment: S , {S} =    0.00000  -0.00000   0.00000   0.00000

siesta: Electric dipole (a.u.)  =    1.383323   -0.021474    0.000000
siesta: Electric dipole (Debye) =    3.516060   -0.054582    0.000000

cite: Please see "GC.bib" for an exhaustive BiBTeX file.
cite: Please clearly indicate Siesta version in published work: v4.1.5-1-g384057250
cite: This calculation has made use of the following articles
cite: which are encouraged to be cited in a published work.
        Primary SIESTA paper
          DOI: www.doi.org/10.1088/0953-8984/14/11/302
        Spin-orbit coupling (on-site approximation)
          DOI: www.doi.org/10.1088/0953-8984/19/19/489001


WARNING: alloc-realloc-dealloc name mismatch
         Name: atomlist isa
         Size:              -116. Bytes
         Node:     0
         Subsequent mismatches will not be reported
>> End of run:  22-MAY-2023  20:02:11
Job completed
