Siesta Version  : v4.1.5-1-g384057250
Architecture    : gcc
Compiler version: GNU Fortran (Ubuntu 11.3.0-1ubuntu1~22.04) 11.3.0
Compiler flags  : mpifort -O2 -fPIC -ftree-vectorize -fallow-argument-mismatch
PP flags        : -DFC_HAVE_ABORT -DMPI -DSIESTA__FLOOK -DSIESTA__METIS -DSIESTA__MUMPS -DCDF -DNCDF -DNCDF_4 -DNCDF_PARALLEL -DSIESTA__MRRR -DSIESTA__ELPA
Libraries       : libncdf.a libfdict.a  -lflookall -ldl -lnetcdff -lnetcdf -lhdf5_hl -lhdf5 -lhdf5_fortran -lz -lscalapack-openmpi -lopenblas -lmetis -lzmumps -lcmumps -ldmumps -lmumps_common -lpord -lsmumps -lesmumps -lscotch -lscotcherr -fopenmp -lelpa
PARALLEL version
NetCDF support
NetCDF-4 support
NetCDF-4 MPI-IO support
METIS ordering support
Lua support

* Running on 4 nodes in parallel
>> Start of run:  28-JUN-2023  15:00:22

                           ***********************       
                           *  WELCOME TO SIESTA  *       
                           ***********************       

reinit: Reading from standard input
reinit: Dumped input in INPUT_TMP.63080
************************** Dump of input data file ****************************
SystemLabel      GC
NumberOfAtoms    29
NumberOfSpecies  4
%block ChemicalSpeciesLabel
    1    8  O
    2    7  N
    3   14  Si
    4    1  H
%endblock ChemicalSpeciesLabel
# Single point calculation
MD.TypeOfRun                CG
MD.Steps                    0
SCF.MustConverge            F # In case it does not. There can be 2 very close atoms
AtomicCoordinatesFormat NotScaledCartesianAng
%block AtomicCoordinatesAndAtomicSpecies
1.043624880    3.939228610    0.000000000       1
-3.040641290   1.071078170    0.000000000       2
2.054601450    1.213582070    0.000000000       2
0.999014100    -1.732643800   0.000000000       2
-2.132351640   -1.812968220   0.000000000       2
3.860190550    -1.112298180   0.000000000       2
-1.236183220   1.152964460    0.000000000       3
-0.532924260   -0.939006270   0.000000000       3
0.635660470    2.374516770    0.000000000       3
2.245170240    -0.549967100   0.000000000       3
-3.449816660   -0.583665030   0.000000000       3
2.963714090    1.790992630    0.000000000       4
-4.845591350   -1.123549660   0.000000000       4
4.007020910    -2.152308560   0.000000000       4
4.772194380    -0.502318160   0.000000000       4
-2.265399090   -2.864605110   0.000000000       4
5.167184525    5.055536912    0.000000000       3
7.072068495    6.262175852    0.000000000       3
6.576314355    2.289201942    0.000000000       3
8.653784645    4.758419102    0.000000000       3
5.226807195    3.338109342    0.000000000       2
3.628049465    5.809214222    0.000000000       2
8.228609615    3.019039162    0.000000000       2
7.263413295    7.754329602    0.000000000       4
10.138152625   4.977149922    0.000000000       4
3.516704185    6.858409332    0.000000000       4
2.695491755    5.184300042    0.000000000       4
6.566087525    0.681090822    0.000000000       1
9.004035495    2.292347602    0.000000000       4
%endblock AtomicCoordinatesAndAtomicSpecies
%include ../../../Defaults.fdf
************************** End of input data file *****************************

reinit: -----------------------------------------------------------------------
reinit: System Name: 
reinit: -----------------------------------------------------------------------
reinit: System Label: GC
reinit: -----------------------------------------------------------------------

initatom: Reading input for the pseudopotentials and atomic orbitals ----------
Species number:   1 Atomic number:    8 Label: O
Species number:   2 Atomic number:    7 Label: N
Species number:   3 Atomic number:   14 Label: Si
Species number:   4 Atomic number:    1 Label: H

Ground state valence configuration:   2s02  2p04
Reading pseudopotential information in formatted form from O.psf

Pseudopotential generated from a relativistic atomic calculation

Valence configuration for pseudopotential generation:
2s( 2.00) rc: 0.45
2p( 4.00) rc: 0.92
3d( 0.00) rc: 2.24
4f( 0.00) rc: 0.25
Ground state valence configuration:   2s02  2p03
Reading pseudopotential information in formatted form from N.psf

Pseudopotential generated from a relativistic atomic calculation

Valence configuration for pseudopotential generation:
2s( 2.00) rc: 0.94
2p( 3.00) rc: 0.59
3d( 0.00) rc: 3.46
4f( 0.00) rc: 2.47
Ground state valence configuration:   3s02  3p02
Reading pseudopotential information in formatted form from Si.psf

Pseudopotential generated from a relativistic atomic calculation

Valence configuration for pseudopotential generation:
3s( 2.00) rc: 1.67
3p( 2.00) rc: 2.04
3d( 0.00) rc: 2.89
4f( 0.00) rc: 2.49
Ground state valence configuration:   1s01
Reading pseudopotential information in formatted form from H.psf

Pseudopotential generated from a relativistic atomic calculation

Valence configuration for pseudopotential generation:
1s( 1.00) rc: 0.01
2p( 0.00) rc: 0.60
3d( 0.00) rc: 1.99
4f( 0.00) rc: 2.49
For O, standard SIESTA heuristics set lmxkb to 3
 (one more than the basis l, including polarization orbitals).
Use PS.lmax or PS.KBprojectors blocks to override.
For N, standard SIESTA heuristics set lmxkb to 3
 (one more than the basis l, including polarization orbitals).
Use PS.lmax or PS.KBprojectors blocks to override.
For Si, standard SIESTA heuristics set lmxkb to 3
 (one more than the basis l, including polarization orbitals).
Use PS.lmax or PS.KBprojectors blocks to override.
For H, standard SIESTA heuristics set lmxkb to 2
 (one more than the basis l, including polarization orbitals).
Use PS.lmax or PS.KBprojectors blocks to override.

<basis_specs>
===============================================================================
O                    Z=   8    Mass=  16.000        Charge= 0.17977+309
Lmxo=1 Lmxkb= 3    BasisType=split      Semic=F
L=0  Nsemic=0  Cnfigmx=2
          i=1  nzeta=2  polorb=0  (2s)
            splnorm:   0.28000    
               vcte:    0.0000    
               rinn:    0.0000    
               qcoe:    0.0000    
               qyuk:    0.0000    
               qwid:   0.10000E-01
                rcs:    0.0000      0.0000    
            lambdas:    1.0000      1.0000    
L=1  Nsemic=0  Cnfigmx=2
          i=1  nzeta=2  polorb=1  (2p)
            splnorm:   0.28000    
               vcte:    0.0000    
               rinn:    0.0000    
               qcoe:    0.0000    
               qyuk:    0.0000    
               qwid:   0.10000E-01
                rcs:    0.0000      0.0000    
            lambdas:    1.0000      1.0000    
-------------------------------------------------------------------------------
L=0  Nkbl=1  erefs: 0.17977+309
L=1  Nkbl=1  erefs: 0.17977+309
L=2  Nkbl=1  erefs: 0.17977+309
L=3  Nkbl=1  erefs: 0.17977+309
===============================================================================
</basis_specs>

atom: Called for O                     (Z =   8)

read_vps: Pseudopotential generation method:
read_vps: ATM4.2.7  Troullier-Martins                       
Valence charge for ps generation:    6.00000

xc_check: Exchange-correlation functional:
xc_check: GGA Perdew, Burke & Ernzerhof 1996
V l=0 = -2*Zval/r beyond r=  1.1000
V l=1 = -2*Zval/r beyond r=  1.1000
V l=2 = -2*Zval/r beyond r=  2.2154
V l=3 = -2*Zval/r beyond r=  1.1000
All V_l potentials equal beyond r=  2.2154
This should be close to max(r_c) in ps generation
All pots = -2*Zval/r beyond r=  2.2154

VLOCAL1: 99.0% of the norm of Vloc inside      8.845 Ry
VLOCAL1: 99.9% of the norm of Vloc inside     20.157 Ry
atom: Maximum radius for 4*pi*r*r*local-pseudopot. charge    2.67231
atom: Maximum radius for r*vlocal+2*Zval:    2.32897
GHOST: No ghost state for L =  0
GHOST: No ghost state for L =  1
GHOST: No ghost state for L =  2
GHOST: No ghost state for L =  3

KBgen: Kleinman-Bylander projectors: 
   l= 0   rc=  2.243238   el= -1.759686   Ekb=**********   kbcos= -0.171774
   l= 1   rc=  2.328968   el= -0.663873   Ekb=-14.506792   kbcos= -0.519897
   l= 2   rc=  2.573941   el=  0.002031   Ekb= -1.137373   kbcos= -0.019581
   l= 3   rc=  2.606321   el=  0.003153   Ekb= -1.013546   kbcos= -0.003122

KBgen: Total number of Kleinman-Bylander projectors:   16
atom: -------------------------------------------------------------------------

atom: SANKEY-TYPE ORBITALS:
atom: Selected multiple-zeta basis: split     

SPLIT: Orbitals with angular momentum L= 0

SPLIT: Basis orbitals for state 2s

SPLIT: PAO cut-off radius determined from an
SPLIT: energy shift=  0.002000 Ry

   izeta = 1
                 lambda =    1.000000
                     rc =    4.243912
                 energy =   -1.758270
                kinetic =    3.286084
    potential(screened) =   -5.044353
       potential(ionic) =  -12.921184

   izeta = 2
                 rmatch =    2.187845
              splitnorm =    0.280000
                 energy =   -0.885018
                kinetic =    8.134434
    potential(screened) =   -9.019452
       potential(ionic) =  -17.710645

SPLIT: Orbitals with angular momentum L= 1

SPLIT: Basis orbitals for state 2p

SPLIT: PAO cut-off radius determined from an
SPLIT: energy shift=  0.002000 Ry

   izeta = 1
                 lambda =    1.000000
                     rc =    5.314825
                 energy =   -0.661986
                kinetic =    4.917472
    potential(screened) =   -5.579458
       potential(ionic) =  -13.236259

   izeta = 2
                 rmatch =    2.160663
              splitnorm =    0.280000
                 energy =   -0.068760
                kinetic =    9.183374
    potential(screened) =   -9.252135
       potential(ionic) =  -18.274251

POLgen: Perturbative polarization orbital with L=  2

POLgen: Polarization orbital for state 2p

   izeta = 1
                     rc =    5.314825
                 energy =    1.970580
                kinetic =    3.886128
    potential(screened) =   -1.915547
       potential(ionic) =   -7.749584
atom: Total number of Sankey-type orbitals: 13

atm_pop: Valence configuration (for local Pseudopot. screening):
 2s( 2.00)                                                            
 2p( 4.00)                                                            
Vna: chval, zval:    6.00000   6.00000

Vna:  Cut-off radius for the neutral-atom potential:   5.314825

atom: _________________________________________________________________________

<basis_specs>
===============================================================================
N                    Z=   7    Mass=  14.010        Charge= 0.17977+309
Lmxo=1 Lmxkb= 3    BasisType=split      Semic=F
L=0  Nsemic=0  Cnfigmx=2
          i=1  nzeta=2  polorb=0  (2s)
            splnorm:   0.28000    
               vcte:    0.0000    
               rinn:    0.0000    
               qcoe:    0.0000    
               qyuk:    0.0000    
               qwid:   0.10000E-01
                rcs:    0.0000      0.0000    
            lambdas:    1.0000      1.0000    
L=1  Nsemic=0  Cnfigmx=2
          i=1  nzeta=2  polorb=1  (2p)
            splnorm:   0.28000    
               vcte:    0.0000    
               rinn:    0.0000    
               qcoe:    0.0000    
               qyuk:    0.0000    
               qwid:   0.10000E-01
                rcs:    0.0000      0.0000    
            lambdas:    1.0000      1.0000    
-------------------------------------------------------------------------------
L=0  Nkbl=1  erefs: 0.17977+309
L=1  Nkbl=1  erefs: 0.17977+309
L=2  Nkbl=1  erefs: 0.17977+309
L=3  Nkbl=1  erefs: 0.17977+309
===============================================================================
</basis_specs>

atom: Called for N                     (Z =   7)

read_vps: Pseudopotential generation method:
read_vps: ATM4.2.7  Troullier-Martins                       
Valence charge for ps generation:    5.00000

xc_check: Exchange-correlation functional:
xc_check: GGA Perdew, Burke & Ernzerhof 1996
V l=0 = -2*Zval/r beyond r=  1.2889
V l=1 = -2*Zval/r beyond r=  1.2889
V l=2 = -2*Zval/r beyond r=  3.4178
V l=3 = -2*Zval/r beyond r=  2.4084
All V_l potentials equal beyond r=  3.3753
This should be close to max(r_c) in ps generation
All pots = -2*Zval/r beyond r=  3.4178

VLOCAL1: 99.0% of the norm of Vloc inside      3.810 Ry
VLOCAL1: 99.9% of the norm of Vloc inside      8.683 Ry
atom: Maximum radius for 4*pi*r*r*local-pseudopot. charge    4.02088
atom: Maximum radius for r*vlocal+2*Zval:    3.54838
GHOST: No ghost state for L =  0
GHOST: No ghost state for L =  1
GHOST: No ghost state for L =  2
GHOST: No ghost state for L =  3

KBgen: Kleinman-Bylander projectors: 
   l= 0   rc=  3.417763   el= -1.365098   Ekb= -4.433130   kbcos= -0.707855
   l= 1   rc=  3.375302   el= -0.521201   Ekb=-13.264039   kbcos= -0.535594
   l= 2   rc=  3.872880   el=  0.001991   Ekb= -0.641094   kbcos= -0.062456
   l= 3   rc=  3.970931   el=  0.003093   Ekb= -0.474517   kbcos= -0.018236

KBgen: Total number of Kleinman-Bylander projectors:   16
atom: -------------------------------------------------------------------------

atom: SANKEY-TYPE ORBITALS:
atom: Selected multiple-zeta basis: split     

SPLIT: Orbitals with angular momentum L= 0

SPLIT: Basis orbitals for state 2s

SPLIT: PAO cut-off radius determined from an
SPLIT: energy shift=  0.002000 Ry

   izeta = 1
                 lambda =    1.000000
                     rc =    4.730425
                 energy =   -1.363399
                kinetic =    1.245246
    potential(screened) =   -2.608645
       potential(ionic) =   -8.121105

   izeta = 2
                 rmatch =    2.531849
              splitnorm =    0.280000
                 energy =   -0.959908
                kinetic =    2.409435
    potential(screened) =   -3.369343
       potential(ionic) =   -9.427975

SPLIT: Orbitals with angular momentum L= 1

SPLIT: Basis orbitals for state 2p

SPLIT: PAO cut-off radius determined from an
SPLIT: energy shift=  0.002000 Ry

   izeta = 1
                 lambda =    1.000000
                     rc =    5.924108
                 energy =   -0.519262
                kinetic =    3.672940
    potential(screened) =   -4.192202
       potential(ionic) =   -9.518354

   izeta = 2
                 rmatch =    2.531849
              splitnorm =    0.280000
                 energy =   -0.104258
                kinetic =    6.807538
    potential(screened) =   -6.911796
       potential(ionic) =  -13.149920

POLgen: Perturbative polarization orbital with L=  2

POLgen: Polarization orbital for state 2p

   izeta = 1
                     rc =    5.924108
                 energy =    1.427508
                kinetic =    2.872379
    potential(screened) =   -1.444871
       potential(ionic) =   -5.563644
atom: Total number of Sankey-type orbitals: 13

atm_pop: Valence configuration (for local Pseudopot. screening):
 2s( 2.00)                                                            
 2p( 3.00)                                                            
Vna: chval, zval:    5.00000   5.00000

Vna:  Cut-off radius for the neutral-atom potential:   5.924108

atom: _________________________________________________________________________

<basis_specs>
===============================================================================
Si                   Z=  14    Mass=  28.090        Charge= 0.17977+309
Lmxo=1 Lmxkb= 3    BasisType=split      Semic=F
L=0  Nsemic=0  Cnfigmx=3
          i=1  nzeta=2  polorb=0  (3s)
            splnorm:   0.28000    
               vcte:    0.0000    
               rinn:    0.0000    
               qcoe:    0.0000    
               qyuk:    0.0000    
               qwid:   0.10000E-01
                rcs:    0.0000      0.0000    
            lambdas:    1.0000      1.0000    
L=1  Nsemic=0  Cnfigmx=3
          i=1  nzeta=2  polorb=1  (3p)
            splnorm:   0.28000    
               vcte:    0.0000    
               rinn:    0.0000    
               qcoe:    0.0000    
               qyuk:    0.0000    
               qwid:   0.10000E-01
                rcs:    0.0000      0.0000    
            lambdas:    1.0000      1.0000    
-------------------------------------------------------------------------------
L=0  Nkbl=1  erefs: 0.17977+309
L=1  Nkbl=1  erefs: 0.17977+309
L=2  Nkbl=1  erefs: 0.17977+309
L=3  Nkbl=1  erefs: 0.17977+309
===============================================================================
</basis_specs>

atom: Called for Si                    (Z =  14)

read_vps: Pseudopotential generation method:
read_vps: ATM4.2.7  Troullier-Martins                       
Valence charge for ps generation:    4.00000

xc_check: Exchange-correlation functional:
xc_check: GGA Perdew, Burke & Ernzerhof 1996
V l=0 = -2*Zval/r beyond r=  2.7826
V l=1 = -2*Zval/r beyond r=  2.7826
V l=2 = -2*Zval/r beyond r=  2.9253
V l=3 = -2*Zval/r beyond r=  2.7826
All V_l potentials equal beyond r=  2.8530
This should be close to max(r_c) in ps generation
All pots = -2*Zval/r beyond r=  2.9253

VLOCAL1: 99.0% of the norm of Vloc inside      5.333 Ry
VLOCAL1: 99.9% of the norm of Vloc inside     12.154 Ry
atom: Maximum radius for 4*pi*r*r*local-pseudopot. charge    3.39869
atom: Maximum radius for r*vlocal+2*Zval:    2.96205
GHOST: No ghost state for L =  0
GHOST: No ghost state for L =  1
GHOST: No ghost state for L =  2
GHOST: No ghost state for L =  3

KBgen: Kleinman-Bylander projectors: 
   l= 0   rc=  3.075247   el= -0.794092   Ekb=  5.879390   kbcos=  0.167461
   l= 1   rc=  3.153101   el= -0.300068   Ekb=  2.642817   kbcos=  0.058301
   l= 2   rc=  3.273594   el=  0.001958   Ekb= -1.185135   kbcos= -0.104411
   l= 3   rc=  3.232927   el=  0.003046   Ekb= -0.497174   kbcos= -0.015889

KBgen: Total number of Kleinman-Bylander projectors:   16
atom: -------------------------------------------------------------------------

atom: SANKEY-TYPE ORBITALS:
atom: Selected multiple-zeta basis: split     

SPLIT: Orbitals with angular momentum L= 0

SPLIT: Basis orbitals for state 3s

SPLIT: PAO cut-off radius determined from an
SPLIT: energy shift=  0.002000 Ry

   izeta = 1
                 lambda =    1.000000
                     rc =    6.429618
                 energy =   -0.792283
                kinetic =    0.525293
    potential(screened) =   -1.317576
       potential(ionic) =   -3.744923

   izeta = 2
                 rmatch =    3.998416
              splitnorm =    0.280000
                 energy =   -0.583081
                kinetic =    1.069570
    potential(screened) =   -1.652651
       potential(ionic) =   -4.235185

SPLIT: Orbitals with angular momentum L= 1

SPLIT: Basis orbitals for state 3p

SPLIT: PAO cut-off radius determined from an
SPLIT: energy shift=  0.002000 Ry

   izeta = 1
                 lambda =    1.000000
                     rc =    8.464845
                 energy =   -0.298236
                kinetic =    0.785360
    potential(screened) =   -1.083596
       potential(ionic) =   -3.273779

   izeta = 2
                 rmatch =    4.587816
              splitnorm =    0.280000
                 energy =   -0.131871
                kinetic =    1.403687
    potential(screened) =   -1.535557
       potential(ionic) =   -4.015310

POLgen: Perturbative polarization orbital with L=  2

POLgen: Polarization orbital for state 3p

   izeta = 1
                     rc =    8.464845
                 energy =    0.321949
                kinetic =    1.055677
    potential(screened) =   -0.733728
       potential(ionic) =   -2.672950
atom: Total number of Sankey-type orbitals: 13

atm_pop: Valence configuration (for local Pseudopot. screening):
 3s( 2.00)                                                            
 3p( 2.00)                                                            
Vna: chval, zval:    4.00000   4.00000

Vna:  Cut-off radius for the neutral-atom potential:   8.464845

atom: _________________________________________________________________________

<basis_specs>
===============================================================================
H                    Z=   1    Mass=  1.0100        Charge= 0.17977+309
Lmxo=0 Lmxkb= 2    BasisType=split      Semic=F
L=0  Nsemic=0  Cnfigmx=1
          i=1  nzeta=2  polorb=1  (1s)
            splnorm:   0.62000    
               vcte:    0.0000    
               rinn:    0.0000    
               qcoe:    0.0000    
               qyuk:    0.0000    
               qwid:   0.10000E-01
                rcs:    0.0000      0.0000    
            lambdas:    1.0000      1.0000    
-------------------------------------------------------------------------------
L=0  Nkbl=1  erefs: 0.17977+309
L=1  Nkbl=1  erefs: 0.17977+309
L=2  Nkbl=1  erefs: 0.17977+309
===============================================================================
</basis_specs>

atom: Called for H                     (Z =   1)

read_vps: Pseudopotential generation method:
read_vps: ATM4.2.7  Troullier-Martins                       
Valence charge for ps generation:    1.00000

xc_check: Exchange-correlation functional:
xc_check: GGA Perdew, Burke & Ernzerhof 1996
V l=0 = -2*Zval/r beyond r=  0.0098
V l=1 = -2*Zval/r beyond r=  0.5817
V l=2 = -2*Zval/r beyond r=  1.9372
All V_l potentials equal beyond r=  1.9372
This should be close to max(r_c) in ps generation
All pots = -2*Zval/r beyond r=  1.9372

VLOCAL1: 99.0% of the norm of Vloc inside     11.567 Ry
VLOCAL1: 99.9% of the norm of Vloc inside     26.362 Ry
atom: Maximum radius for 4*pi*r*r*local-pseudopot. charge    2.25106
atom: Maximum radius for r*vlocal+2*Zval:    1.91306
GHOST: No ghost state for L =  0
GHOST: No ghost state for L =  1
GHOST: No ghost state for L =  2

KBgen: Kleinman-Bylander projectors: 
   l= 0   rc=  2.036604   el= -0.477180   Ekb= -6.081590   kbcos= -0.277285
   l= 1   rc=  2.195416   el=  0.001076   Ekb= -0.926943   kbcos= -0.034643
   l= 2   rc=  2.251056   el=  0.002010   Ekb= -0.130941   kbcos= -0.009788

KBgen: Total number of Kleinman-Bylander projectors:    9
atom: -------------------------------------------------------------------------

atom: SANKEY-TYPE ORBITALS:
atom: Selected multiple-zeta basis: split     

SPLIT: Orbitals with angular momentum L= 0

SPLIT: Basis orbitals for state 1s

SPLIT: PAO cut-off radius determined from an
SPLIT: energy shift=  0.002000 Ry

   izeta = 1
                 lambda =    1.000000
                     rc =    6.518340
                 energy =   -0.475305
                kinetic =    0.912139
    potential(screened) =   -1.387444
       potential(ionic) =   -1.907295

   izeta = 2
                 rmatch =    2.141150
              splitnorm =    0.620000
                 energy =    0.566467
                kinetic =    3.772856
    potential(screened) =   -3.206389
       potential(ionic) =   -3.759093

POLgen: Perturbative polarization orbital with L=  1

POLgen: Polarization orbital for state 1s

   izeta = 1
                     rc =    6.518340
                 energy =    0.533861
                kinetic =    1.121086
    potential(screened) =   -0.587225
       potential(ionic) =   -1.053027
atom: Total number of Sankey-type orbitals:  5

atm_pop: Valence configuration (for local Pseudopot. screening):
 1s( 1.00)                                                            
Vna: chval, zval:    1.00000   1.00000

Vna:  Cut-off radius for the neutral-atom potential:   6.518340

atom: _________________________________________________________________________

prinput: Basis input ----------------------------------------------------------

PAO.BasisType split     

%block ChemicalSpeciesLabel
    1    8 O                       # Species index, atomic number, species label
    2    7 N                       # Species index, atomic number, species label
    3   14 Si                      # Species index, atomic number, species label
    4    1 H                       # Species index, atomic number, species label
%endblock ChemicalSpeciesLabel

%block PAO.Basis                 # Define Basis set
O                     2                    # Species label, number of l-shells
 n=2   0   2                         # n, l, Nzeta 
   4.244      2.188   
   1.000      1.000   
 n=2   1   2 P   1                   # n, l, Nzeta, Polarization, NzetaPol
   5.315      2.161   
   1.000      1.000   
N                     2                    # Species label, number of l-shells
 n=2   0   2                         # n, l, Nzeta 
   4.730      2.532   
   1.000      1.000   
 n=2   1   2 P   1                   # n, l, Nzeta, Polarization, NzetaPol
   5.924      2.532   
   1.000      1.000   
Si                    2                    # Species label, number of l-shells
 n=3   0   2                         # n, l, Nzeta 
   6.430      3.998   
   1.000      1.000   
 n=3   1   2 P   1                   # n, l, Nzeta, Polarization, NzetaPol
   8.465      4.588   
   1.000      1.000   
H                     1                    # Species label, number of l-shells
 n=1   0   2 P   1                   # n, l, Nzeta, Polarization, NzetaPol
   6.518      2.141   
   1.000      1.000   
%endblock PAO.Basis

prinput: ----------------------------------------------------------------------

Dumping basis to NetCDF file O.ion.nc
Dumping basis to NetCDF file N.ion.nc
Dumping basis to NetCDF file Si.ion.nc
Dumping basis to NetCDF file H.ion.nc
coor:   Atomic-coordinates input format  =     Cartesian coordinates
coor:                                          (in Angstroms)

siesta: Atomic coordinates (Bohr) and species
siesta:      1.97217   7.44407   0.00000  1        1
siesta:     -5.74598   2.02405   0.00000  2        2
siesta:      3.88264   2.29334   0.00000  2        3
siesta:      1.88786  -3.27422   0.00000  2        4
siesta:     -4.02956  -3.42601   0.00000  2        5
siesta:      7.29471  -2.10194   0.00000  2        6
siesta:     -2.33605   2.17879   0.00000  3        7
siesta:     -1.00708  -1.77447   0.00000  3        8
siesta:      1.20122   4.48719   0.00000  3        9
siesta:      4.24276  -1.03929   0.00000  3       10
siesta:     -6.51921  -1.10297   0.00000  3       11
siesta:      5.60061   3.38449   0.00000  4       12
siesta:     -9.15684  -2.12320   0.00000  4       13
siesta:      7.57218  -4.06728   0.00000  4       14
siesta:      9.01814  -0.94924   0.00000  4       15
siesta:     -4.28099  -5.41332   0.00000  4       16
siesta:      9.76457   9.55358   0.00000  3       17
siesta:     13.36428  11.83380   0.00000  3       18
siesta:     12.42744   4.32597   0.00000  3       19
siesta:     16.35329   8.99211   0.00000  3       20
siesta:      9.87724   6.30811   0.00000  2       21
siesta:      6.85602  10.97783   0.00000  2       22
siesta:     15.54982   5.70516   0.00000  2       23
siesta:     13.72587  14.65357   0.00000  4       24
siesta:     19.15834   9.40545   0.00000  4       25
siesta:      6.64561  12.96052   0.00000  4       26
siesta:      5.09374   9.79691   0.00000  4       27
siesta:     12.40811   1.28708   0.00000  1       28
siesta:     17.01517   4.33191   0.00000  4       29

siesta: Automatic unit cell vectors (Ang):
siesta:   24.070701    0.000000    0.000000
siesta:    0.000000   19.269411    0.000000
siesta:    0.000000    0.000000    9.854683

siesta: System type = molecule  

initatomlists: Number of atoms, orbitals, and projectors:     29   297   394

siesta: ******************** Simulation parameters ****************************
siesta:
siesta: The following are some of the parameters of the simulation.
siesta: A complete list of the parameters used, including default values,
siesta: can be found in file out.fdf
siesta:
redata: Spin configuration                          = spin-orbit
redata: Number of spin components                   = 8
redata: Time-Reversal Symmetry                      = F
redata: Spin spiral                                 = F
############################################################
This spin-orbit implementation uses a local approximation.
From 4.2 and onwards the full non-local approximation is implemented
You are strongly advised to use >=4.2 versions!
############################################################
redata: Long output                                 =   F
redata: Number of Atomic Species                    =        4
redata: Charge density info will appear in .RHO file
redata: Write Mulliken Pop.                         = Atomic and Orbital charges
redata: Matel table size (NRTAB)                    =     1024
redata: Mesh Cutoff                                 =   340.0000 Ry
redata: Net charge of the system                    =     0.0000 |e|
redata: Min. number of SCF Iter                     =        1
redata: Max. number of SCF Iter                     =      200
redata: SCF mix quantity                            = Hamiltonian
redata: Mix DM or H after convergence               =   F
redata: Recompute H after scf cycle                 =   F
redata: Mix DM in first SCF step                    =   T
redata: Write Pulay info on disk                    =   F
redata: New DM Occupancy tolerance                  = 0.000000000001
redata: No kicks to SCF
redata: DM Mixing Weight for Kicks                  =     0.5000
redata: Require Harris convergence for SCF          =   F
redata: Harris energy tolerance for SCF             =     0.000100 eV
redata: Require DM convergence for SCF              =   T
redata: DM tolerance for SCF                        =     0.000008
redata: Require EDM convergence for SCF             =   F
redata: EDM tolerance for SCF                       =     0.001000 eV
redata: Require H convergence for SCF               =   T
redata: Hamiltonian tolerance for SCF               =     0.000001 eV
redata: Require (free) Energy convergence for SCF   =   F
redata: (free) Energy tolerance for SCF             =     0.000100 eV
redata: Using Saved Data (generic)                  =   F
redata: Use continuation files for DM               =   F
redata: Neglect nonoverlap interactions             =   F
redata: Method of Calculation                       = Diagonalization
redata: Electronic Temperature                      =   299.9978 K
redata: Fix the spin of the system                  =   F
redata: Dynamics option                             = Single-point calculation
mix.SCF: Pulay mixing                            = Pulay
mix.SCF:    Variant                              = stable
mix.SCF:    History steps                        = 6
mix.SCF:    Linear mixing weight                 =     0.250000
mix.SCF:    Mixing weight                        =     0.250000
mix.SCF:    SVD condition                        = 0.1000E-07
mix.SCF:    Restart steps                        = 24
mix.SCF:    Restart save steps                   = 3
mix.SCF: Spin-component mixing                   all
redata: Save all siesta data in one NC              =   F
redata: ***********************************************************************

%block SCF.Mixers
  Pulay
%endblock SCF.Mixers

%block SCF.Mixer.Pulay
  # Mixing method
  method pulay
  variant stable

  # Mixing options
  weight 0.2500
  weight.linear 0.2500
  history 6
  restart 24
  restart.save 3
%endblock SCF.Mixer.Pulay

DM_history_depth set to one: no extrapolation allowed by default for geometry relaxation
Size of DM history Fstack: 1
Total number of electrons:    98.000000
Total ionic charge:    98.000000

* ProcessorY, Blocksize:    2  24


* Orbital distribution balance (max,min):    81    72


Time-reversal symmetry not used.

siesta: k-grid: Number of k-points =     1
siesta: k-grid: Cutoff (effective) =     4.927 Ang
siesta: k-grid: Supercell and displacements
siesta: k-grid:    1   0   0      0.000
siesta: k-grid:    0   1   0      0.000
siesta: k-grid:    0   0   1      0.000

diag: Algorithm                                     = ELPA-1stage
diag: Parallel over k                               =   F
diag: Use parallel 2D distribution                  =   T
diag: Parallel block-size                           = 24
diag: Parallel distribution                         =     2 x     2
diag: Used triangular part                          = Lower
diag: Absolute tolerance                            =  0.100E-15
diag: Orthogonalization factor                      =  0.100E-05
diag: Memory factor                                 =  1.0000


ts: **************************************************************
ts: Save H and S matrices                           =    F
ts: Save DM and EDM matrices                        =    F
ts: Only save the overlap matrix S                  =    F
ts: **************************************************************

************************ Begin: TS CHECKS AND WARNINGS ************************
************************ End: TS CHECKS AND WARNINGS **************************


                     ====================================
                        Single-point calculation
                     ====================================

outcoor: Atomic coordinates (Ang):                          
    1.04362488    3.93922861    0.00000000   1       1  O
   -3.04064129    1.07107817    0.00000000   2       2  N
    2.05460145    1.21358207    0.00000000   2       3  N
    0.99901410   -1.73264380    0.00000000   2       4  N
   -2.13235164   -1.81296822    0.00000000   2       5  N
    3.86019055   -1.11229818    0.00000000   2       6  N
   -1.23618322    1.15296446    0.00000000   3       7  Si
   -0.53292426   -0.93900627    0.00000000   3       8  Si
    0.63566047    2.37451677    0.00000000   3       9  Si
    2.24517024   -0.54996710    0.00000000   3      10  Si
   -3.44981666   -0.58366503    0.00000000   3      11  Si
    2.96371409    1.79099263    0.00000000   4      12  H
   -4.84559135   -1.12354966    0.00000000   4      13  H
    4.00702091   -2.15230856    0.00000000   4      14  H
    4.77219438   -0.50231816    0.00000000   4      15  H
   -2.26539909   -2.86460511    0.00000000   4      16  H
    5.16718452    5.05553691    0.00000000   3      17  Si
    7.07206849    6.26217585    0.00000000   3      18  Si
    6.57631436    2.28920194    0.00000000   3      19  Si
    8.65378464    4.75841910    0.00000000   3      20  Si
    5.22680720    3.33810934    0.00000000   2      21  N
    3.62804947    5.80921422    0.00000000   2      22  N
    8.22860961    3.01903916    0.00000000   2      23  N
    7.26341330    7.75432960    0.00000000   4      24  H
   10.13815263    4.97714992    0.00000000   4      25  H
    3.51670419    6.85840933    0.00000000   4      26  H
    2.69549175    5.18430004    0.00000000   4      27  H
    6.56608753    0.68109082    0.00000000   1      28  O
    9.00403550    2.29234760    0.00000000   4      29  H

outcell: Unit cell vectors (Ang):
       24.070701    0.000000    0.000000
        0.000000   19.269411    0.000000
        0.000000    0.000000    9.854683

outcell: Cell vector modules (Ang)   :   24.070701   19.269411    9.854683
outcell: Cell angles (23,13,12) (deg):     90.0000     90.0000     90.0000
outcell: Cell volume (Ang**3)        :   4570.8803
<dSpData1D:S at geom step 0
  <sparsity:sparsity for geom step 0
    nrows_g=297 nrows=81 sparsity=.2184 nnzs=19261, refcount: 8>
  <dData1D:(new from dSpData1D) n=19261, refcount: 1>
refcount: 1>
new_DM -- step:     1
Initializing Density Matrix...
DM filled with atomic data:
<dSpData2D:DM initialized from atoms
  <sparsity:sparsity for geom step 0
    nrows_g=297 nrows=81 sparsity=.2184 nnzs=19261, refcount: 9>
  <dData2D:DM n=19261 m=8, refcount: 1>
refcount: 1>
     spin moment: S , {S} =   56.00000   0.00000   0.00000  56.00000
No. of atoms with KB's overlaping orbs in proc 0. Max # of overlaps:      29     189

Initializing spin-orbit part of the Hamiltonian
  Adding spin-orbit effects for O 
  Adding spin-orbit effects for N 
  Adding spin-orbit effects for Si
  Adding spin-orbit effects for H 


New grid distribution:   1
           1       1:  135    1:   54    1:   30
           2       1:  135    1:   54   31:   60
           3       1:  135   55:  108    1:   30
           4       1:  135   55:  108   31:   60

InitMesh: MESH =   270 x   216 x   120 =     6998400
InitMesh: (bp) =   135 x   108 x    60 =      874800
InitMesh: Mesh cutoff (required, used) =   340.000   347.274 Ry
ExtMesh (bp) on 0 =   239 x   158 x   142 =     5362204
New grid distribution:   2
           1      35:  135    1:   25    1:   60
           2       1:   34    1:   23    1:   60
           3      35:  135   26:  108    1:   60
           4       1:   34   24:  108    1:   60
New grid distribution:   3
           1      45:  135    1:   32    1:   60
           2       1:   44    1:   37    1:   60
           3      45:  135   33:  108    1:   60
           4       1:   44   38:  108    1:   60
Setting up quadratic distribution...
ExtMesh (bp) on 0 =   205 x   129 x   172 =     4548540
PhiOnMesh: Number of (b)points on node 0 =               151500
PhiOnMesh: nlist on node 0 =              2470666

stepf: Fermi-Dirac step function

siesta: Program's energy decomposition (eV):
siesta: Ebs     =      -615.203262
siesta: Eions   =      3585.165840
siesta: Ena     =       381.832018
siesta: Ekin    =      3362.162348
siesta: Enl     =     -3291.835620
siesta: Eso     =        -0.003433
siesta: Edftu   =         0.000000
siesta: DEna    =       153.559185
siesta: DUscf   =        78.636844
siesta: DUext   =         0.000000
siesta: Exc     =     -1202.683603
siesta: eta*DQ  =         0.000000
siesta: Emadel  =         0.000000
siesta: Emeta   =         0.000000
siesta: Emolmec =         0.000000
siesta: Ekinion =         0.000000
siesta: Eharris =     -4028.669176
siesta: Etot    =     -4103.498101
siesta: FreeEng =     -4103.499487

        iscf     Eharris(eV)        E_KS(eV)     FreeEng(eV)     dDmax    Ef(eV) dHmax(eV)
   scf:    1    -4028.669176    -4103.498101    -4103.499487  0.958951 -4.905727 20.742768
     spin moment: S , {S} =    2.00713  -0.00000  -0.00000   2.00713
timer: Routine,Calls,Time,% = IterSCF        1      11.504  16.61
   scf:    2    -4149.734680    -4138.073821    -4138.075524  0.461675 -4.204177 11.239274
     spin moment: S , {S} =    1.98982  -0.00000  -0.00000   1.98982
   scf:    3    -4111.195202    -4135.342085    -4135.360010  0.428371 -4.273892 11.443649
     spin moment: S , {S} =    2.00012  -0.00000  -0.00000   2.00012
   scf:    4    -4150.934567    -4146.155349    -4146.155349  0.309331 -3.895816  6.217288
     spin moment: S , {S} =    0.00009  -0.00000   0.00000   0.00009
   scf:    5    -4147.318553    -4146.828845    -4146.828845  0.036969 -3.703539  4.356531
     spin moment: S , {S} =    0.00006   0.00000   0.00000   0.00006
   scf:    6    -4147.587766    -4147.212937    -4147.212937  0.024902 -3.634101  2.115854
     spin moment: S , {S} =    0.00003   0.00000  -0.00000   0.00003
   scf:    7    -4147.561531    -4147.385488    -4147.385488  0.021266 -3.688502  0.871375
     spin moment: S , {S} =    0.00001   0.00000   0.00000   0.00001
   scf:    8    -4147.503735    -4147.442939    -4147.442939  0.012220 -3.791275  0.478835
     spin moment: S , {S} =    0.00000  -0.00000  -0.00000   0.00000
   scf:    9    -4147.482315    -4147.461988    -4147.461988  0.006851 -3.780649  0.330733
     spin moment: S , {S} =    0.00000  -0.00000  -0.00000   0.00000
   scf:   10    -4147.511232    -4147.482368    -4147.482368  0.018319 -3.802875  0.154744
     spin moment: S , {S} =    0.00000   0.00000   0.00000  -0.00000
   scf:   11    -4147.485326    -4147.483792    -4147.483792  0.004848 -3.794706  0.048690
     spin moment: S , {S} =    0.00000   0.00000   0.00000  -0.00000
   scf:   12    -4147.484534    -4147.484168    -4147.484168  0.001706 -3.790724  0.028829
     spin moment: S , {S} =    0.00000   0.00000   0.00000   0.00000
   scf:   13    -4147.484620    -4147.484383    -4147.484383  0.001724 -3.788986  0.021974
     spin moment: S , {S} =    0.00000   0.00000   0.00000   0.00000
   scf:   14    -4147.484712    -4147.484535    -4147.484535  0.001753 -3.788404  0.016540
     spin moment: S , {S} =    0.00000   0.00000   0.00000   0.00000
   scf:   15    -4147.484791    -4147.484647    -4147.484647  0.001954 -3.788059  0.010674
     spin moment: S , {S} =    0.00000   0.00000   0.00000   0.00000
   scf:   16    -4147.484792    -4147.484704    -4147.484704  0.001884 -3.787871  0.004889
     spin moment: S , {S} =    0.00000   0.00000   0.00000   0.00000
   scf:   17    -4147.484729    -4147.484714    -4147.484714  0.000773 -3.788036  0.002623
     spin moment: S , {S} =    0.00000   0.00000   0.00000   0.00000
   scf:   18    -4147.484719    -4147.484716    -4147.484716  0.000354 -3.788123  0.001113
     spin moment: S , {S} =    0.00000   0.00000   0.00000   0.00000
   scf:   19    -4147.484717    -4147.484716    -4147.484716  0.000133 -3.788131  0.000586
     spin moment: S , {S} =    0.00000   0.00000   0.00000   0.00000
   scf:   20    -4147.484717    -4147.484717    -4147.484717  0.000039 -3.788106  0.000345
     spin moment: S , {S} =    0.00000   0.00000   0.00000   0.00000
   scf:   21    -4147.484717    -4147.484717    -4147.484717  0.000050 -3.788084  0.000190
     spin moment: S , {S} =    0.00000   0.00000   0.00000  -0.00000
   scf:   22    -4147.484717    -4147.484717    -4147.484717  0.000014 -3.788066  0.000083
     spin moment: S , {S} =    0.00000   0.00000   0.00000  -0.00000
   scf:   23    -4147.484717    -4147.484717    -4147.484717  0.000005 -3.788067  0.000054
     spin moment: S , {S} =    0.00000   0.00000   0.00000  -0.00000
   scf:   24    -4147.484717    -4147.484717    -4147.484717  0.000003 -3.788065  0.000046
     spin moment: S , {S} =    0.00000   0.00000   0.00000  -0.00000
mix: Pulay -- resetting history
   scf:   25    -4147.484717    -4147.484717    -4147.484717  0.000005 -3.788061  0.000022
     spin moment: S , {S} =    0.00000   0.00000   0.00000  -0.00000
   scf:   26    -4147.484717    -4147.484717    -4147.484717  0.000003 -3.788058  0.000008
     spin moment: S , {S} =    0.00000   0.00000   0.00000  -0.00000
   scf:   27    -4147.484717    -4147.484717    -4147.484717  0.000002 -3.788056  0.000003
     spin moment: S , {S} =    0.00000   0.00000   0.00000  -0.00000
   scf:   28    -4147.484717    -4147.484717    -4147.484717  0.000000 -3.788056  0.000002
     spin moment: S , {S} =    0.00000   0.00000   0.00000  -0.00000
   scf:   29    -4147.484717    -4147.484717    -4147.484717  0.000000 -3.788056  0.000001
     spin moment: S , {S} =    0.00000   0.00000   0.00000  -0.00000
   scf:   30    -4147.484717    -4147.484717    -4147.484717  0.000000 -3.788055  0.000001
     spin moment: S , {S} =    0.00000   0.00000   0.00000  -0.00000

SCF Convergence by DM+H criterion
max |DM_out - DM_in|         :     0.0000001650
max |H_out - H_in|      (eV) :     0.0000007274
SCF cycle converged after 30 iterations

Using DM_out to compute the final energy and forces
No. of atoms with KB's overlaping orbs in proc 0. Max # of overlaps:      29     189

siesta: E_KS(eV) =            -4147.4847

siesta: E_KS - E_eggbox =     -4147.4847
     spin moment: S , {S} =    0.00000   0.00000   0.00000  -0.00000

siesta: Atomic forces (eV/Ang):
     1    3.103099   -3.421135    0.000000
     2   -0.079512    0.011190   -0.000000
     3    0.434206   -0.121909   -0.000000
     4    0.357449   -0.001243    0.000000
     5    0.024685   -0.038892    0.000000
     6    1.251366    0.567123    0.000000
     7    0.020511   -0.124342   -0.000000
     8   -0.189194    0.139983    0.000000
     9   -0.033059    0.637762   -0.000000
    10   -0.436911    0.220611   -0.000000
    11   -0.012255   -0.010431   -0.000000
    12   -0.212551   -0.212343    0.000000
    13    0.041380   -0.015156    0.000000
    14    0.182191    0.042567   -0.000000
    15   -0.673060   -0.444683   -0.000000
    16   -0.012662    0.157384    0.000000
    17    0.439471   -0.601176    0.000000
    18   -0.108578    0.101959    0.000000
    19   -0.152689   -0.560951   -0.000000
    20   -0.019956   -0.205194   -0.000000
    21   -0.167477    0.454258   -0.000000
    22   -1.550503   -0.800123   -0.000000
    23    0.115051    0.211833    0.000000
    24    0.080546   -0.043358    0.000000
    25    0.133730    0.018713    0.000000
    26   -0.184877   -0.144526   -0.000000
    27    0.808213    0.757381   -0.000000
    28    3.141035    3.012255    0.000000
    29   -0.034274    0.193425   -0.000000
----------------------------------------
   Tot    6.265376   -0.219020   -0.000000
----------------------------------------
   Max    3.421135
   Res    0.755542    sqrt( Sum f_i^2 / 3N )
----------------------------------------
   Max    3.421135    constrained

Stress tensor Voigt[x,y,z,yz,xz,xy] (kbar):        0.82        1.79       -0.09        0.00       -0.00        1.50
(Free)E + p*V (eV/cell)    -4149.8911
Target enthalpy (eV/cell)    -4147.4847

mulliken: Atomic and Orbital Populations:

Species: O                   

Atom      Orb        Charge      Spin       Svec
----------------------------------------------------------------
    1  1 2s         1.75125   0.00000     -0.000   0.000  -0.000
    1  2 2s         0.05801   0.00000      0.000  -0.000  -0.000
    1  3 2py        1.41511   0.00000     -0.000   0.000  -0.000
    1  4 2pz        1.58718   0.00000      0.000  -0.000  -0.000
    1  5 2px        1.63560   0.00000     -0.000  -0.000  -0.000
    1  6 2py        0.05078   0.00000      0.000   0.000  -0.000
    1  7 2pz       -0.01379   0.00000     -0.000  -0.000  -0.000
    1  8 2px        0.00013   0.00000     -0.000   0.000  -0.000
    1  9 3Pdxy      0.00645   0.00000      0.000  -0.000   0.000
    1 10 3Pdyz      0.00807   0.00000      0.000   0.000   0.000
    1 11 3Pdz2      0.00135   0.00000     -0.000   0.000   0.000
    1 12 3Pdxz      0.00019   0.00000      0.000  -0.000   0.000
    1 13 3Pdx2-y2   0.00617   0.00000     -0.000  -0.000   0.000
    1     Total     6.50651   0.00000     -0.000  -0.000  -0.000

   28  1 2s         1.75641   0.00000     -0.000   0.000  -0.000
   28  2 2s         0.05474   0.00000      0.000  -0.000  -0.000
   28  3 2py        1.39867   0.00000      0.000   0.000  -0.000
   28  4 2pz        1.58055   0.00000      0.000   0.000  -0.000
   28  5 2px        1.65340   0.00000      0.000   0.000  -0.000
   28  6 2py        0.05255   0.00000     -0.000   0.000  -0.000
   28  7 2pz       -0.01163   0.00000     -0.000   0.000  -0.000
   28  8 2px        0.00197   0.00000     -0.000   0.000  -0.000
   28  9 3Pdxy      0.00635   0.00000      0.000   0.000   0.000
   28 10 3Pdyz      0.00906   0.00000     -0.000   0.000   0.000
   28 11 3Pdz2      0.00112   0.00000      0.000   0.000   0.000
   28 12 3Pdxz     -0.00016   0.00000      0.000  -0.000   0.000
   28 13 3Pdx2-y2   0.00731   0.00000     -0.000   0.000  -0.000
   28     Total     6.51034   0.00000      0.000   0.000  -0.000

----------------------------------------------------------------
Total              13.01685   0.00000      0.000   0.000  -0.000


Species: N                   

Atom      Orb        Charge      Spin       Svec
----------------------------------------------------------------
    2  1 2s         1.54911   0.00000      0.000  -0.000  -0.000
    2  2 2s         0.08488   0.00000     -0.000   0.000  -0.000
    2  3 2py        1.04389   0.00000     -0.000   0.000  -0.000
    2  4 2pz        1.22469   0.00000     -0.000  -0.000   0.000
    2  5 2px        0.99240   0.00000      0.000  -0.000  -0.000
    2  6 2py        0.18812   0.00000      0.000  -0.000  -0.000
    2  7 2pz        0.05522   0.00000      0.000   0.000  -0.000
    2  8 2px        0.19553   0.00000     -0.000   0.000  -0.000
    2  9 3Pdxy      0.00835   0.00000      0.000   0.000   0.000
    2 10 3Pdyz      0.01096   0.00000      0.000  -0.000  -0.000
    2 11 3Pdz2      0.00192   0.00000     -0.000  -0.000  -0.000
    2 12 3Pdxz      0.00759   0.00000     -0.000  -0.000  -0.000
    2 13 3Pdx2-y2   0.00907   0.00000      0.000  -0.000   0.000
    2     Total     5.37171   0.00000     -0.000  -0.000   0.000

    3  1 2s         1.38808   0.00000     -0.000   0.000  -0.000
    3  2 2s         0.12201   0.00000      0.000  -0.000  -0.000
    3  3 2py        0.93899   0.00000     -0.000   0.000  -0.000
    3  4 2pz        1.54325   0.00000      0.000   0.000  -0.000
    3  5 2px        1.08234   0.00000     -0.000   0.000   0.000
    3  6 2py        0.25167   0.00000      0.000  -0.000  -0.000
    3  7 2pz        0.00544   0.00000     -0.000  -0.000  -0.000
    3  8 2px        0.18100   0.00000      0.000  -0.000  -0.000
    3  9 3Pdxy      0.00398   0.00000     -0.000  -0.000  -0.000
    3 10 3Pdyz      0.00397   0.00000      0.000  -0.000   0.000
    3 11 3Pdz2      0.00065   0.00000     -0.000  -0.000   0.000
    3 12 3Pdxz      0.00271   0.00000      0.000  -0.000   0.000
    3 13 3Pdx2-y2   0.00254   0.00000      0.000  -0.000  -0.000
    3     Total     5.52663   0.00000     -0.000   0.000  -0.000

    4  1 2s         1.46120   0.00000      0.000   0.000  -0.000
    4  2 2s         0.11883   0.00000     -0.000  -0.000  -0.000
    4  3 2py        1.12798   0.00000      0.000   0.000  -0.000
    4  4 2pz        1.29418   0.00000     -0.000   0.000   0.000
    4  5 2px        0.82650   0.00000     -0.000  -0.000  -0.000
    4  6 2py        0.15027   0.00000     -0.000  -0.000  -0.000
    4  7 2pz        0.05311   0.00000      0.000   0.000  -0.000
    4  8 2px        0.29260   0.00000      0.000   0.000  -0.000
    4  9 3Pdxy      0.00872   0.00000      0.000  -0.000   0.000
    4 10 3Pdyz      0.01046   0.00000     -0.000   0.000  -0.000
    4 11 3Pdz2      0.00126   0.00000     -0.000  -0.000   0.000
    4 12 3Pdxz      0.00482   0.00000      0.000   0.000   0.000
    4 13 3Pdx2-y2   0.00798   0.00000     -0.000   0.000   0.000
    4     Total     5.35790   0.00000     -0.000  -0.000  -0.000

    5  1 2s         1.37579   0.00000     -0.000  -0.000   0.000
    5  2 2s         0.12822   0.00000      0.000   0.000  -0.000
    5  3 2py        1.02626   0.00000      0.000   0.000   0.000
    5  4 2pz        1.50116   0.00000      0.000  -0.000  -0.000
    5  5 2px        1.05991   0.00000     -0.000  -0.000  -0.000
    5  6 2py        0.20366   0.00000      0.000  -0.000   0.000
    5  7 2pz        0.01334   0.00000     -0.000   0.000  -0.000
    5  8 2px        0.20138   0.00000      0.000   0.000  -0.000
    5  9 3Pdxy      0.00389   0.00000      0.000   0.000  -0.000
    5 10 3Pdyz      0.00244   0.00000      0.000  -0.000  -0.000
    5 11 3Pdz2      0.00143   0.00000      0.000   0.000  -0.000
    5 12 3Pdxz      0.00668   0.00000      0.000  -0.000  -0.000
    5 13 3Pdx2-y2   0.00561   0.00000      0.000  -0.000   0.000
    5     Total     5.52976   0.00000      0.000  -0.000  -0.000

    6  1 2s         1.26275   0.00000     -0.000  -0.000   0.000
    6  2 2s         0.18252   0.00000      0.000   0.000  -0.000
    6  3 2py        1.07265   0.00000      0.000   0.000   0.000
    6  4 2pz        1.54467   0.00000     -0.000   0.000  -0.000
    6  5 2px        0.97203   0.00000     -0.000  -0.000  -0.000
    6  6 2py        0.19239   0.00000      0.000  -0.000   0.000
    6  7 2pz        0.03197   0.00000      0.000  -0.000  -0.000
    6  8 2px        0.25442   0.00000      0.000  -0.000   0.000
    6  9 3Pdxy      0.00232   0.00000     -0.000   0.000  -0.000
    6 10 3Pdyz      0.00007   0.00000      0.000  -0.000  -0.000
    6 11 3Pdz2      0.00158   0.00000     -0.000  -0.000   0.000
    6 12 3Pdxz      0.00359   0.00000     -0.000  -0.000  -0.000
    6 13 3Pdx2-y2   0.00417   0.00000      0.000   0.000  -0.000
    6     Total     5.52512   0.00000     -0.000   0.000   0.000

   21  1 2s         1.41658   0.00000     -0.000  -0.000   0.000
   21  2 2s         0.12992   0.00000     -0.000   0.000  -0.000
   21  3 2py        0.87773   0.00000      0.000   0.000  -0.000
   21  4 2pz        1.31101   0.00000     -0.000   0.000   0.000
   21  5 2px        1.16817   0.00000      0.000  -0.000   0.000
   21  6 2py        0.27454   0.00000     -0.000  -0.000  -0.000
   21  7 2pz        0.04575   0.00000     -0.000  -0.000   0.000
   21  8 2px        0.15705   0.00000     -0.000  -0.000  -0.000
   21  9 3Pdxy      0.00621   0.00000     -0.000  -0.000   0.000
   21 10 3Pdyz      0.00468   0.00000     -0.000  -0.000   0.000
   21 11 3Pdz2      0.00001   0.00000     -0.000   0.000  -0.000
   21 12 3Pdxz      0.00580   0.00000     -0.000   0.000  -0.000
   21 13 3Pdx2-y2   0.00577   0.00000     -0.000   0.000   0.000
   21     Total     5.40321   0.00000     -0.000  -0.000   0.000

   22  1 2s         1.28550   0.00000      0.000   0.000   0.000
   22  2 2s         0.17263   0.00000     -0.000  -0.000  -0.000
   22  3 2py        1.05933   0.00000     -0.000   0.000   0.000
   22  4 2pz        1.51677   0.00000     -0.000   0.000  -0.000
   22  5 2px        1.00695   0.00000      0.000   0.000  -0.000
   22  6 2py        0.19826   0.00000      0.000  -0.000   0.000
   22  7 2pz        0.03078   0.00000      0.000  -0.000  -0.000
   22  8 2px        0.23247   0.00000     -0.000  -0.000   0.000
   22  9 3Pdxy      0.00325   0.00000     -0.000   0.000  -0.000
   22 10 3Pdyz      0.00025   0.00000     -0.000  -0.000  -0.000
   22 11 3Pdz2      0.00235   0.00000     -0.000  -0.000   0.000
   22 12 3Pdxz      0.00366   0.00000      0.000  -0.000  -0.000
   22 13 3Pdx2-y2   0.00475   0.00000      0.000   0.000  -0.000
   22     Total     5.51695   0.00000     -0.000   0.000   0.000

   23  1 2s         1.38279   0.00000     -0.000   0.000   0.000
   23  2 2s         0.12496   0.00000      0.000  -0.000  -0.000
   23  3 2py        1.00782   0.00000     -0.000   0.000   0.000
   23  4 2pz        1.53320   0.00000      0.000  -0.000  -0.000
   23  5 2px        1.05753   0.00000     -0.000   0.000   0.000
   23  6 2py        0.21305   0.00000     -0.000   0.000  -0.000
   23  7 2pz        0.00440   0.00000     -0.000   0.000  -0.000
   23  8 2px        0.20003   0.00000      0.000  -0.000  -0.000
   23  9 3Pdxy      0.00537   0.00000      0.000  -0.000  -0.000
   23 10 3Pdyz      0.00450   0.00000      0.000   0.000  -0.000
   23 11 3Pdz2      0.00076   0.00000      0.000   0.000   0.000
   23 12 3Pdxz      0.00244   0.00000     -0.000  -0.000  -0.000
   23 13 3Pdx2-y2   0.00143   0.00000     -0.000   0.000  -0.000
   23     Total     5.53827   0.00000     -0.000   0.000  -0.000

----------------------------------------------------------------
Total              56.78639   0.00000     -0.000   0.000  -0.000


Species: Si                  

Atom      Orb        Charge      Spin       Svec
----------------------------------------------------------------
    7  1 3s         0.66517   0.00000      0.000   0.000  -0.000
    7  2 3s         0.36569   0.00000     -0.000  -0.000  -0.000
    7  3 3py        0.47226   0.00000      0.000  -0.000  -0.000
    7  4 3pz        0.69798   0.00000     -0.000  -0.000  -0.000
    7  5 3px        0.12110   0.00000      0.000   0.000   0.000
    7  6 3py        0.27455   0.00000     -0.000   0.000  -0.000
    7  7 3pz        0.26046   0.00000      0.000   0.000  -0.000
    7  8 3px        0.44029   0.00000     -0.000  -0.000  -0.000
    7  9 3Pdxy      0.24582   0.00000     -0.000   0.000   0.000
    7 10 3Pdyz      0.02869   0.00000     -0.000   0.000   0.000
    7 11 3Pdz2      0.01140   0.00000     -0.000  -0.000   0.000
    7 12 3Pdxz      0.14614   0.00000     -0.000   0.000   0.000
    7 13 3Pdx2-y2   0.11348   0.00000      0.000   0.000   0.000
    7     Total     3.84302   0.00000     -0.000   0.000  -0.000

    8  1 3s         0.65507   0.00000      0.000   0.000   0.000
    8  2 3s         0.36872   0.00000     -0.000  -0.000   0.000
    8  3 3py        0.39103   0.00000      0.000  -0.000   0.000
    8  4 3pz        0.51119   0.00000     -0.000   0.000   0.000
    8  5 3px       -0.02608   0.00000     -0.000  -0.000   0.000
    8  6 3py        0.30727   0.00000     -0.000   0.000  -0.000
    8  7 3pz        0.20436   0.00000     -0.000   0.000   0.000
    8  8 3px        0.51476   0.00000      0.000   0.000   0.000
    8  9 3Pdxy      0.24788   0.00000      0.000  -0.000   0.000
    8 10 3Pdyz      0.11229   0.00000     -0.000   0.000   0.000
    8 11 3Pdz2      0.01387   0.00000      0.000  -0.000   0.000
    8 12 3Pdxz      0.15569   0.00000     -0.000   0.000   0.000
    8 13 3Pdx2-y2   0.20179   0.00000     -0.000   0.000   0.000
    8     Total     3.65783   0.00000     -0.000   0.000   0.000

    9  1 3s         0.60014   0.00000      0.000  -0.000   0.000
    9  2 3s         0.37017   0.00000     -0.000   0.000  -0.000
    9  3 3py        0.09806   0.00000     -0.000   0.000   0.000
    9  4 3pz        0.47995   0.00000      0.000  -0.000   0.000
    9  5 3px        0.36439   0.00000     -0.000  -0.000   0.000
    9  6 3py        0.42343   0.00000      0.000   0.000   0.000
    9  7 3pz        0.18808   0.00000      0.000  -0.000   0.000
    9  8 3px        0.28155   0.00000      0.000   0.000   0.000
    9  9 3Pdxy      0.29501   0.00000      0.000   0.000   0.000
    9 10 3Pdyz      0.19057   0.00000     -0.000  -0.000   0.000
    9 11 3Pdz2      0.01330   0.00000      0.000  -0.000   0.000
    9 12 3Pdxz      0.10370   0.00000      0.000  -0.000   0.000
    9 13 3Pdx2-y2   0.17689   0.00000      0.000  -0.000   0.000
    9     Total     3.58524   0.00000      0.000  -0.000   0.000

   10  1 3s         0.48020   0.00000      0.000   0.000   0.000
   10  2 3s         0.37876   0.00000      0.000  -0.000  -0.000
   10  3 3py        0.23823   0.00000     -0.000  -0.000   0.000
   10  4 3pz        0.40992   0.00000     -0.000  -0.000   0.000
   10  5 3px        0.10050   0.00000     -0.000  -0.000  -0.000
   10  6 3py        0.32599   0.00000     -0.000   0.000   0.000
   10  7 3pz        0.22133   0.00000      0.000   0.000   0.000
   10  8 3px        0.43574   0.00000     -0.000  -0.000   0.000
   10  9 3Pdxy      0.17209   0.00000      0.000   0.000   0.000
   10 10 3Pdyz      0.13493   0.00000     -0.000   0.000   0.000
   10 11 3Pdz2      0.00980   0.00000     -0.000  -0.000   0.000
   10 12 3Pdxz      0.17865   0.00000      0.000  -0.000   0.000
   10 13 3Pdx2-y2   0.30882   0.00000      0.000  -0.000   0.000
   10     Total     3.39496   0.00000     -0.000  -0.000   0.000

   11  1 3s         0.55340   0.00000      0.000   0.000   0.000
   11  2 3s         0.38505   0.00000     -0.000  -0.000  -0.000
   11  3 3py        0.32321   0.00000     -0.000   0.000   0.000
   11  4 3pz        0.54086   0.00000      0.000  -0.000  -0.000
   11  5 3px        0.12587   0.00000      0.000   0.000   0.000
   11  6 3py        0.28638   0.00000      0.000  -0.000   0.000
   11  7 3pz        0.17720   0.00000      0.000   0.000  -0.000
   11  8 3px        0.44574   0.00000     -0.000  -0.000   0.000
   11  9 3Pdxy      0.22582   0.00000      0.000  -0.000   0.000
   11 10 3Pdyz      0.12675   0.00000      0.000   0.000   0.000
   11 11 3Pdz2      0.00960   0.00000     -0.000  -0.000   0.000
   11 12 3Pdxz      0.05307   0.00000     -0.000  -0.000  -0.000
   11 13 3Pdx2-y2   0.20433   0.00000      0.000   0.000   0.000
   11     Total     3.45729   0.00000      0.000   0.000  -0.000

   17  1 3s         0.63504   0.00000      0.000   0.000   0.000
   17  2 3s         0.36156   0.00000     -0.000  -0.000  -0.000
   17  3 3py        0.21980   0.00000      0.000   0.000  -0.000
   17  4 3pz        0.41852   0.00000      0.000  -0.000  -0.000
   17  5 3px        0.24040   0.00000      0.000  -0.000   0.000
   17  6 3py        0.38285   0.00000     -0.000   0.000  -0.000
   17  7 3pz        0.21383   0.00000     -0.000   0.000  -0.000
   17  8 3px        0.37838   0.00000     -0.000  -0.000  -0.000
   17  9 3Pdxy      0.29310   0.00000     -0.000  -0.000   0.000
   17 10 3Pdyz      0.14021   0.00000     -0.000  -0.000   0.000
   17 11 3Pdz2      0.00842   0.00000      0.000  -0.000   0.000
   17 12 3Pdxz      0.14422   0.00000     -0.000  -0.000   0.000
   17 13 3Pdx2-y2   0.16837   0.00000     -0.000   0.000  -0.000
   17     Total     3.60473   0.00000      0.000  -0.000   0.000

   18  1 3s         0.74216   0.00000     -0.000  -0.000   0.000
   18  2 3s         0.34209   0.00000      0.000   0.000   0.000
   18  3 3py        0.06904   0.00000      0.000   0.000   0.000
   18  4 3pz        0.80764   0.00000      0.000   0.000   0.000
   18  5 3px        0.55569   0.00000     -0.000   0.000  -0.000
   18  6 3py        0.52462   0.00000     -0.000  -0.000   0.000
   18  7 3pz        0.19834   0.00000     -0.000  -0.000   0.000
   18  8 3px        0.25240   0.00000      0.000   0.000   0.000
   18  9 3Pdxy      0.10239   0.00000      0.000   0.000  -0.000
   18 10 3Pdyz      0.02776   0.00000      0.000  -0.000  -0.000
   18 11 3Pdz2      0.00842   0.00000     -0.000  -0.000  -0.000
   18 12 3Pdxz      0.03137   0.00000      0.000   0.000  -0.000
   18 13 3Pdx2-y2   0.11008   0.00000     -0.000   0.000  -0.000
   18     Total     3.77200   0.00000     -0.000   0.000   0.000

   19  1 3s         0.45997   0.00000      0.000  -0.000   0.000
   19  2 3s         0.36482   0.00000     -0.000   0.000  -0.000
   19  3 3py        0.08701   0.00000     -0.000  -0.000  -0.000
   19  4 3pz        0.41920   0.00000     -0.000   0.000  -0.000
   19  5 3px        0.31776   0.00000      0.000   0.000   0.000
   19  6 3py        0.45918   0.00000      0.000   0.000   0.000
   19  7 3pz        0.18618   0.00000     -0.000  -0.000  -0.000
   19  8 3px        0.26405   0.00000     -0.000  -0.000  -0.000
   19  9 3Pdxy      0.33179   0.00000     -0.000  -0.000   0.000
   19 10 3Pdyz      0.18874   0.00000     -0.000  -0.000   0.000
   19 11 3Pdz2      0.01359   0.00000      0.000  -0.000  -0.000
   19 12 3Pdxz      0.09510   0.00000     -0.000   0.000   0.000
   19 13 3Pdx2-y2   0.24435   0.00000      0.000   0.000   0.000
   19     Total     3.43174   0.00000     -0.000   0.000   0.000

   20  1 3s         0.67530   0.00000     -0.000  -0.000   0.000
   20  2 3s         0.37705   0.00000      0.000   0.000  -0.000
   20  3 3py        0.33175   0.00000     -0.000  -0.000  -0.000
   20  4 3pz        0.60227   0.00000     -0.000  -0.000  -0.000
   20  5 3px        0.14009   0.00000      0.000  -0.000  -0.000
   20  6 3py        0.28857   0.00000      0.000   0.000   0.000
   20  7 3pz        0.16311   0.00000      0.000  -0.000  -0.000
   20  8 3px        0.49954   0.00000     -0.000   0.000   0.000
   20  9 3Pdxy      0.09946   0.00000     -0.000  -0.000  -0.000
   20 10 3Pdyz      0.13144   0.00000     -0.000   0.000  -0.000
   20 11 3Pdz2      0.00751   0.00000     -0.000   0.000   0.000
   20 12 3Pdxz      0.02664   0.00000      0.000   0.000   0.000
   20 13 3Pdx2-y2   0.17465   0.00000      0.000   0.000  -0.000
   20     Total     3.51738   0.00000     -0.000  -0.000  -0.000

----------------------------------------------------------------
Total              89.05059   0.00000     -0.000   0.000   0.000


Species: H                   

Atom      Orb        Charge      Spin       Svec
----------------------------------------------------------------
   12  1 1s         0.48219   0.00000      0.000  -0.000  -0.000
   12  2 1s         0.18268   0.00000     -0.000  -0.000  -0.000
   12  3 2Ppy       0.03124   0.00000      0.000   0.000   0.000
   12  4 2Ppz       0.03085   0.00000      0.000  -0.000  -0.000
   12  5 2Ppx       0.03088   0.00000     -0.000  -0.000  -0.000
   12     Total     0.75783   0.00000      0.000  -0.000  -0.000

   13  1 1s         1.02007   0.00000     -0.000  -0.000  -0.000
   13  2 1s         0.09527   0.00000      0.000   0.000  -0.000
   13  3 2Ppy       0.01806   0.00000     -0.000  -0.000   0.000
   13  4 2Ppz       0.02012   0.00000     -0.000  -0.000  -0.000
   13  5 2Ppx       0.03505   0.00000     -0.000  -0.000   0.000
   13     Total     1.18856   0.00000     -0.000  -0.000  -0.000

   14  1 1s         0.47370   0.00000      0.000  -0.000  -0.000
   14  2 1s         0.19826   0.00000     -0.000   0.000  -0.000
   14  3 2Ppy       0.01917   0.00000      0.000  -0.000   0.000
   14  4 2Ppz       0.04651   0.00000      0.000   0.000  -0.000
   14  5 2Ppx       0.01846   0.00000     -0.000   0.000  -0.000
   14     Total     0.75609   0.00000      0.000  -0.000  -0.000

   15  1 1s         0.47198   0.00000      0.000   0.000  -0.000
   15  2 1s         0.17688   0.00000     -0.000   0.000  -0.000
   15  3 2Ppy       0.01644   0.00000     -0.000  -0.000   0.000
   15  4 2Ppz       0.03760   0.00000     -0.000  -0.000  -0.000
   15  5 2Ppx       0.05394   0.00000      0.000   0.000  -0.000
   15     Total     0.75684   0.00000      0.000   0.000  -0.000

   16  1 1s         0.50892   0.00000     -0.000  -0.000  -0.000
   16  2 1s         0.18738   0.00000      0.000  -0.000  -0.000
   16  3 2Ppy       0.02976   0.00000     -0.000   0.000   0.000
   16  4 2Ppz       0.03958   0.00000     -0.000   0.000  -0.000
   16  5 2Ppx       0.02350   0.00000      0.000  -0.000  -0.000
   16     Total     0.78914   0.00000     -0.000   0.000  -0.000

   24  1 1s         1.06225   0.00000     -0.000  -0.000  -0.000
   24  2 1s         0.07399   0.00000     -0.000   0.000  -0.000
   24  3 2Ppy       0.03238   0.00000      0.000  -0.000  -0.000
   24  4 2Ppz       0.03023   0.00000      0.000   0.000   0.000
   24  5 2Ppx       0.01740   0.00000      0.000   0.000   0.000
   24     Total     1.21625   0.00000      0.000  -0.000  -0.000

   25  1 1s         1.04230   0.00000     -0.000  -0.000   0.000
   25  2 1s         0.08667   0.00000      0.000  -0.000  -0.000
   25  3 2Ppy       0.01223   0.00000     -0.000   0.000  -0.000
   25  4 2Ppz       0.01884   0.00000      0.000  -0.000  -0.000
   25  5 2Ppx       0.03564   0.00000     -0.000  -0.000   0.000
   25     Total     1.19568   0.00000     -0.000  -0.000   0.000

   26  1 1s         0.48294   0.00000      0.000  -0.000  -0.000
   26  2 1s         0.19520   0.00000     -0.000   0.000  -0.000
   26  3 2Ppy       0.02255   0.00000      0.000  -0.000   0.000
   26  4 2Ppz       0.04813   0.00000     -0.000   0.000  -0.000
   26  5 2Ppx       0.01727   0.00000      0.000  -0.000  -0.000
   26     Total     0.76608   0.00000      0.000   0.000  -0.000

   27  1 1s         0.47990   0.00000      0.000  -0.000  -0.000
   27  2 1s         0.16853   0.00000     -0.000  -0.000  -0.000
   27  3 2Ppy       0.02237   0.00000     -0.000  -0.000  -0.000
   27  4 2Ppz       0.03388   0.00000     -0.000  -0.000  -0.000
   27  5 2Ppx       0.05660   0.00000      0.000   0.000  -0.000
   27     Total     0.76129   0.00000     -0.000  -0.000  -0.000

   29  1 1s         0.48862   0.00000      0.000  -0.000  -0.000
   29  2 1s         0.18739   0.00000      0.000  -0.000  -0.000
   29  3 2Ppy       0.02502   0.00000      0.000   0.000  -0.000
   29  4 2Ppz       0.03485   0.00000      0.000   0.000  -0.000
   29  5 2Ppx       0.02576   0.00000      0.000  -0.000  -0.000
   29     Total     0.76164   0.00000      0.000  -0.000  -0.000

----------------------------------------------------------------
Total              98.00000   0.00000      0.000   0.000  -0.000


siesta: Eigenvalues (eV):
ik =     1
  -22.3068  -22.3068  -21.9277  -21.9277  -21.3105  -21.3105  -21.2658  -21.2658  -21.1818  -21.1818
  -21.1183  -21.1183  -20.5278  -20.5278  -19.6338  -19.6338  -19.5407  -19.5407  -19.3549  -19.3549
  -14.7956  -14.7956  -13.7934  -13.7934  -13.2950  -13.2950  -13.1011  -13.1011  -12.8659  -12.8659
  -12.8132  -12.8132  -12.5530  -12.5530  -12.1823  -12.1823  -11.9580  -11.9580  -11.8811  -11.8811
  -11.1536  -11.1536  -10.8383  -10.8383  -10.6352  -10.6352  -10.5374  -10.5374  -10.1808  -10.1808
   -9.6264   -9.6264   -9.0884   -9.0884   -8.8806   -8.8806   -8.7944   -8.7944   -8.6182   -8.6182
   -8.5470   -8.5470   -8.4604   -8.4604   -8.1520   -8.1520   -8.0490   -8.0490   -7.7858   -7.7858
   -7.6804   -7.6804   -7.3722   -7.3722   -7.1593   -7.1593   -6.9636   -6.9636   -6.7605   -6.7605
   -6.6304   -6.6304   -6.4215   -6.4215   -6.3611   -6.3611   -6.3065   -6.3065   -6.1915   -6.1915
   -6.1630   -6.1630   -5.9089   -5.9089   -5.5708   -5.5708   -4.3043   -4.3043   -3.2719   -3.2719
   -2.3498   -2.3498   -2.3339   -2.3339   -2.1931   -2.1931   -1.8693   -1.8693   -1.8536   -1.8536
   -1.8392   -1.8392   -1.7113   -1.7113   -1.6170   -1.6170   -1.2856   -1.2856   -1.1807   -1.1807
   -0.9952   -0.9952   -0.6473   -0.6473   -0.3761   -0.3761   -0.3182   -0.3182    0.2646    0.2646
    0.4700    0.4700    0.5026    0.5026    0.6314    0.6314    0.9075    0.9075    1.1308    1.1308
    1.2946    1.2946    1.3429    1.3429    1.3959    1.3959    1.4650    1.4650    1.8497    1.8497
    1.9812    1.9812    2.2034    2.2034    2.5819    2.5819    2.6780    2.6780    2.7466    2.7466
    2.7589    2.7589    2.8378    2.8378    2.9525    2.9525    3.4382    3.4382    3.4611    3.4611
    3.7666    3.7666    4.0246    4.0246    4.0830    4.0830    4.1940    4.1940    4.2084    4.2084
    4.5001    4.5001    4.6553    4.6553    4.7040    4.7040    4.7535    4.7535    5.0519    5.0519
    5.1379    5.1379    5.3020    5.3020    5.3239    5.3239    5.5400    5.5400    5.6562    5.6562
    5.9236    5.9236    5.9962    5.9962    6.0417    6.0417    6.3595    6.3595    6.4826    6.4826
    6.5046    6.5046    6.6246    6.6246    6.6496    6.6496    6.7457    6.7457    7.0070    7.0070
    7.1826    7.1826    7.3116    7.3116    7.5896    7.5896    7.7701    7.7701    7.9178    7.9178
    8.0239    8.0239    8.1226    8.1226    8.1595    8.1595    8.3933    8.3933    8.6695    8.6695
    8.8214    8.8214    8.8383    8.8383    8.9012    8.9012    9.0210    9.0210    9.3458    9.3458
    9.4288    9.4288    9.7955    9.7955    9.8267    9.8267    9.8940    9.8940   10.0611   10.0611
   10.1994   10.1994   10.4113   10.4113   10.6250   10.6250   11.0662   11.0662   11.1843   11.1843
   11.2379   11.2379   11.5221   11.5221   12.0041   12.0041   12.0897   12.0897   12.1176   12.1176
   12.2960   12.2960   12.4638   12.4638   12.4675   12.4675   12.5305   12.5305   12.8415   12.8415
   13.0946   13.0946   13.2825   13.2825   13.5362   13.5362   13.6581   13.6581   13.7875   13.7875
   14.1159   14.1159   14.1805   14.1805   14.5173   14.5173   14.7573   14.7573   14.9499   14.9499
   15.2653   15.2653   15.6123   15.6123   16.1978   16.1978   16.6278   16.6278   16.7297   16.7297
   17.0652   17.0652   17.4892   17.4892   17.7971   17.7971   18.5742   18.5742   18.7784   18.7784
   19.1209   19.1209   19.6476   19.6476   20.2027   20.2027   20.3131   20.3131   20.3501   20.3501
   21.0871   21.0871   21.8475   21.8475   22.1525   22.1525   22.4291   22.4291   23.1063   23.1063
   23.4715   23.4715   23.6937   23.6937   23.9808   23.9808   24.2330   24.2330   25.0223   25.0223
   25.1247   25.1247   25.5573   25.5573   26.2309   26.2309   27.4003   27.4003   28.4800   28.4800
   29.1525   29.1525   29.6109   29.6109   29.7981   29.7981   29.9855   29.9855   30.2056   30.2056
   30.5335   30.5335   30.6309   30.6309   30.9482   30.9482   31.0565   31.0565   31.3284   31.3284
   31.4023   31.4023   31.8482   31.8482   32.4350   32.4350   33.1611   33.1611   33.6167   33.6167
   34.1436   34.1436   34.2223   34.2223   34.6214   34.6214   34.7464   34.7464   35.2542   35.2542
   35.5244   35.5244   35.7625   35.7625   35.8694   35.8694   37.0567   37.0567   37.5502   37.5502
   38.1625   38.1625   38.2836   38.2836   38.5326   38.5326   38.8743   38.8743   39.1557   39.1557
   39.4255   39.4255   39.7405   39.7405   40.7690   40.7690   40.8555   40.8555   40.9929   40.9929
   41.4117   41.4117   41.5455   41.5455   41.6136   41.6136   41.8372   41.8372   42.3034   42.3034
   43.0459   43.0459   43.4814   43.4814   43.5633   43.5633   43.9116   43.9116   44.2728   44.2728
   44.3550   44.3550   44.8148   44.8148   44.8523   44.8523   45.1407   45.1407   45.1857   45.1857
   45.6926   45.6926   46.6457   46.6457   46.9021   46.9021   47.5215   47.5215   47.8204   47.8204
   48.2249   48.2249   49.2641   49.2641   49.9921   49.9921   50.0499   50.0499   50.2606   50.2606
   50.5077   50.5077   51.2240   51.2240   51.4872   51.4872   52.1046   52.1046   52.2158   52.2158
   53.1208   53.1208   53.2202   53.2202   54.4140   54.4140   55.3482   55.3482   55.5597   55.5597
   55.6030   55.6030   55.8360   55.8360   56.0796   56.0796   57.4690   57.4690   57.6877   57.6877
   58.0967   58.0967   58.5388   58.5388   58.8118   58.8118   59.8013   59.8013   60.8436   60.8436
   61.4855   61.4855   61.5212   61.5212   61.9056   61.9056   62.0734   62.0734   64.2961   64.2961
   65.2439   65.2439   65.6436   65.6436   65.8200   65.8200   66.2813   66.2813   67.2487   67.2487
   67.8184   67.8184   68.8876   68.8876   70.4024   70.4024   72.4252   72.4252   73.5342   73.5342
   75.4253   75.4253   85.6248   85.6248   91.9387   91.9387   92.3178   92.3178   94.0942   94.0942
   98.7274   98.7274   99.4692   99.4692  101.9405  101.9405  103.7254  103.7254  104.8909  104.8909
  113.2078  113.2078  115.5220  115.5220  124.3571  124.3571  126.8080  126.8080  134.5074  134.5074
  140.6482  140.6482  143.3763  143.3763
siesta: Fermi energy =      -3.788055 eV

siesta: Program's energy decomposition (eV):
siesta: Ebs     =     -1133.096280
siesta: Eions   =      3585.165840
siesta: Ena     =       381.832018
siesta: Ekin    =      2904.164170
siesta: Enl     =     -2789.526227
siesta: Eso     =        -0.004295
siesta: Edftu   =         0.000000
siesta: DEna    =        47.622935
siesta: DUscf   =        13.851992
siesta: DUext   =         0.000000
siesta: Exc     =     -1120.259469
siesta: eta*DQ  =         0.000000
siesta: Emadel  =         0.000000
siesta: Emeta   =         0.000000
siesta: Emolmec =         0.000000
siesta: Ekinion =         0.000000
siesta: Eharris =     -4147.484717
siesta: Etot    =     -4147.484717
siesta: FreeEng =     -4147.484717

siesta: Final energy (eV):
siesta:  Band Struct. =   -1133.096280
siesta:       Kinetic =    2904.164170
siesta:       Hartree =    8781.672967
siesta:       Edftu   =       0.000000
siesta:       Eso     =      -0.004295
siesta:    Ext. field =       0.000000
siesta:   Exch.-corr. =   -1120.259469
siesta:  Ion-electron =  -20146.322775
siesta:       Ion-ion =    5433.264686
siesta:       Ekinion =       0.000000
siesta:         Total =   -4147.484717
siesta:         Fermi =      -3.788055

siesta: Atomic forces (eV/Ang):
siesta:      1    3.103099   -3.421135    0.000000
siesta:      2   -0.079512    0.011190   -0.000000
siesta:      3    0.434206   -0.121909   -0.000000
siesta:      4    0.357449   -0.001243    0.000000
siesta:      5    0.024685   -0.038892    0.000000
siesta:      6    1.251366    0.567123    0.000000
siesta:      7    0.020511   -0.124342   -0.000000
siesta:      8   -0.189194    0.139983    0.000000
siesta:      9   -0.033059    0.637762   -0.000000
siesta:     10   -0.436911    0.220611   -0.000000
siesta:     11   -0.012255   -0.010431   -0.000000
siesta:     12   -0.212551   -0.212343    0.000000
siesta:     13    0.041380   -0.015156    0.000000
siesta:     14    0.182191    0.042567   -0.000000
siesta:     15   -0.673060   -0.444683   -0.000000
siesta:     16   -0.012662    0.157384    0.000000
siesta:     17    0.439471   -0.601176    0.000000
siesta:     18   -0.108578    0.101959    0.000000
siesta:     19   -0.152689   -0.560951   -0.000000
siesta:     20   -0.019956   -0.205194   -0.000000
siesta:     21   -0.167477    0.454258   -0.000000
siesta:     22   -1.550503   -0.800123   -0.000000
siesta:     23    0.115051    0.211833    0.000000
siesta:     24    0.080546   -0.043358    0.000000
siesta:     25    0.133730    0.018713    0.000000
siesta:     26   -0.184877   -0.144526   -0.000000
siesta:     27    0.808213    0.757381   -0.000000
siesta:     28    3.141035    3.012255    0.000000
siesta:     29   -0.034274    0.193425   -0.000000
siesta: ----------------------------------------
siesta:    Tot    6.265376   -0.219020   -0.000000

siesta: Stress tensor (static) (eV/Ang**3):
siesta:     0.000513    0.000937   -0.000000
siesta:     0.000937    0.001120   -0.000000
siesta:    -0.000000    0.000000   -0.000054

siesta: Cell volume =       4570.880336 Ang**3

siesta: Pressure (static):
siesta:                Solid            Molecule  Units
siesta:          -0.00000573          0.00000265  Ry/Bohr**3
siesta:          -0.00052646          0.00024367  eV/Ang**3
siesta:          -0.84348841          0.39040868  kBar
(Free)E+ p_basis*V_orbitals  =       -4127.634299
(Free)Eharris+ p_basis*V_orbitals  =       -4127.634299
     spin moment: S , {S} =    0.00000   0.00000   0.00000  -0.00000

siesta: Electric dipole (a.u.)  =    1.661267    0.151641    0.000000
siesta: Electric dipole (Debye) =    4.222522    0.385434    0.000000

cite: Please see "GC.bib" for an exhaustive BiBTeX file.
cite: Please clearly indicate Siesta version in published work: v4.1.5-1-g384057250
cite: This calculation has made use of the following articles
cite: which are encouraged to be cited in a published work.
        Primary SIESTA paper
          DOI: www.doi.org/10.1088/0953-8984/14/11/302
        Spin-orbit coupling (on-site approximation)
          DOI: www.doi.org/10.1088/0953-8984/19/19/489001


WARNING: alloc-realloc-dealloc name mismatch
         Name: atomlist isa
         Size:              -116. Bytes
         Node:     0
         Subsequent mismatches will not be reported
>> End of run:  28-JUN-2023  15:04:49
Job completed
