Siesta Version  : v4.1.5-1-g384057250
Architecture    : gcc
Compiler version: GNU Fortran (Ubuntu 11.3.0-1ubuntu1~22.04) 11.3.0
Compiler flags  : mpifort -O2 -fPIC -ftree-vectorize -fallow-argument-mismatch
PP flags        : -DFC_HAVE_ABORT -DMPI -DSIESTA__FLOOK -DSIESTA__METIS -DSIESTA__MUMPS -DCDF -DNCDF -DNCDF_4 -DNCDF_PARALLEL -DSIESTA__MRRR -DSIESTA__ELPA
Libraries       : libncdf.a libfdict.a  -lflookall -ldl -lnetcdff -lnetcdf -lhdf5_hl -lhdf5 -lhdf5_fortran -lz -lscalapack-openmpi -lopenblas -lmetis -lzmumps -lcmumps -ldmumps -lmumps_common -lpord -lsmumps -lesmumps -lscotch -lscotcherr -fopenmp -lelpa
PARALLEL version
NetCDF support
NetCDF-4 support
NetCDF-4 MPI-IO support
METIS ordering support
Lua support

* Running on 4 nodes in parallel
>> Start of run:   4-JUL-2023  10:40:05

                           ***********************       
                           *  WELCOME TO SIESTA  *       
                           ***********************       

reinit: Reading from standard input
reinit: Dumped input in INPUT_TMP.32189
************************** Dump of input data file ****************************
SystemLabel      GC
NumberOfAtoms    29
NumberOfSpecies  4
%block ChemicalSpeciesLabel
    1    8  O
    2    7  N
    3   14  Si
    4    1  H
%endblock ChemicalSpeciesLabel
# Single point calculation
MD.TypeOfRun                CG
MD.Steps                    0
SCF.MustConverge            F # In case it does not. There can be 2 very close atoms
AtomicCoordinatesFormat NotScaledCartesianAng
%block AtomicCoordinatesAndAtomicSpecies
0.958671510    3.803529300    0.000000000       1
-3.038688210   0.998073330    0.000000000       2
2.066567750    1.099065770    0.000000000       2
1.029569860    -1.834680850   0.000000000       2
-2.108567660   -1.881798240   0.000000000       2
3.912411070    -1.180894430   0.000000000       2
-1.235636790   1.044983000    0.000000000       3
-0.501909240   -1.031832280   0.000000000       3
0.629463280    2.232755840    0.000000000       3
2.280054370    -0.658293540   0.000000000       3
-3.424812990   -0.662324160   0.000000000       3
2.965974160    1.682263990    0.000000000       4
-4.796229390   -1.238728480   0.000000000       4
4.096559410    -2.214148760   0.000000000       4
4.792108680    -0.529147250   0.000000000       4
-2.266861300   -2.922393730   0.000000000       4
4.607714435    4.902850373    0.000000000       3
6.533192185    6.094479703    0.000000000       3
6.068385795    2.168296003    0.000000000       3
8.139565715    4.615342593    0.000000000       3
4.709998975    3.193495683    0.000000000       2
3.028336345    5.573079863    0.000000000       2
7.721455695    2.883459683    0.000000000       2
6.841683005    7.559141063    0.000000000       4
9.631238625    4.815322053    0.000000000       4
2.843709905    6.607953593    0.000000000       4
2.136244555    4.901791133    0.000000000       4
6.058255195    0.570067483    0.000000000       1
8.498054075    2.161629483    0.000000000       4
%endblock AtomicCoordinatesAndAtomicSpecies
%include ../../../Defaults.fdf
************************** End of input data file *****************************

reinit: -----------------------------------------------------------------------
reinit: System Name: 
reinit: -----------------------------------------------------------------------
reinit: System Label: GC
reinit: -----------------------------------------------------------------------

initatom: Reading input for the pseudopotentials and atomic orbitals ----------
Species number:   1 Atomic number:    8 Label: O
Species number:   2 Atomic number:    7 Label: N
Species number:   3 Atomic number:   14 Label: Si
Species number:   4 Atomic number:    1 Label: H

Ground state valence configuration:   2s02  2p04
Reading pseudopotential information in formatted form from O.psf

Pseudopotential generated from a relativistic atomic calculation

Valence configuration for pseudopotential generation:
2s( 2.00) rc: 0.45
2p( 4.00) rc: 0.92
3d( 0.00) rc: 2.24
4f( 0.00) rc: 0.25
Ground state valence configuration:   2s02  2p03
Reading pseudopotential information in formatted form from N.psf

Pseudopotential generated from a relativistic atomic calculation

Valence configuration for pseudopotential generation:
2s( 2.00) rc: 0.94
2p( 3.00) rc: 0.59
3d( 0.00) rc: 3.46
4f( 0.00) rc: 2.47
Ground state valence configuration:   3s02  3p02
Reading pseudopotential information in formatted form from Si.psf

Pseudopotential generated from a relativistic atomic calculation

Valence configuration for pseudopotential generation:
3s( 2.00) rc: 1.67
3p( 2.00) rc: 2.04
3d( 0.00) rc: 2.89
4f( 0.00) rc: 2.49
Ground state valence configuration:   1s01
Reading pseudopotential information in formatted form from H.psf

Pseudopotential generated from a relativistic atomic calculation

Valence configuration for pseudopotential generation:
1s( 1.00) rc: 0.01
2p( 0.00) rc: 0.60
3d( 0.00) rc: 1.99
4f( 0.00) rc: 2.49
For O, standard SIESTA heuristics set lmxkb to 3
 (one more than the basis l, including polarization orbitals).
Use PS.lmax or PS.KBprojectors blocks to override.
For N, standard SIESTA heuristics set lmxkb to 3
 (one more than the basis l, including polarization orbitals).
Use PS.lmax or PS.KBprojectors blocks to override.
For Si, standard SIESTA heuristics set lmxkb to 3
 (one more than the basis l, including polarization orbitals).
Use PS.lmax or PS.KBprojectors blocks to override.
For H, standard SIESTA heuristics set lmxkb to 2
 (one more than the basis l, including polarization orbitals).
Use PS.lmax or PS.KBprojectors blocks to override.

<basis_specs>
===============================================================================
O                    Z=   8    Mass=  16.000        Charge= 0.17977+309
Lmxo=1 Lmxkb= 3    BasisType=split      Semic=F
L=0  Nsemic=0  Cnfigmx=2
          i=1  nzeta=2  polorb=0  (2s)
            splnorm:   0.28000    
               vcte:    0.0000    
               rinn:    0.0000    
               qcoe:    0.0000    
               qyuk:    0.0000    
               qwid:   0.10000E-01
                rcs:    0.0000      0.0000    
            lambdas:    1.0000      1.0000    
L=1  Nsemic=0  Cnfigmx=2
          i=1  nzeta=2  polorb=1  (2p)
            splnorm:   0.28000    
               vcte:    0.0000    
               rinn:    0.0000    
               qcoe:    0.0000    
               qyuk:    0.0000    
               qwid:   0.10000E-01
                rcs:    0.0000      0.0000    
            lambdas:    1.0000      1.0000    
-------------------------------------------------------------------------------
L=0  Nkbl=1  erefs: 0.17977+309
L=1  Nkbl=1  erefs: 0.17977+309
L=2  Nkbl=1  erefs: 0.17977+309
L=3  Nkbl=1  erefs: 0.17977+309
===============================================================================
</basis_specs>

atom: Called for O                     (Z =   8)

read_vps: Pseudopotential generation method:
read_vps: ATM4.2.7  Troullier-Martins                       
Valence charge for ps generation:    6.00000

xc_check: Exchange-correlation functional:
xc_check: GGA Perdew, Burke & Ernzerhof 1996
V l=0 = -2*Zval/r beyond r=  1.1000
V l=1 = -2*Zval/r beyond r=  1.1000
V l=2 = -2*Zval/r beyond r=  2.2154
V l=3 = -2*Zval/r beyond r=  1.1000
All V_l potentials equal beyond r=  2.2154
This should be close to max(r_c) in ps generation
All pots = -2*Zval/r beyond r=  2.2154

VLOCAL1: 99.0% of the norm of Vloc inside      8.845 Ry
VLOCAL1: 99.9% of the norm of Vloc inside     20.157 Ry
atom: Maximum radius for 4*pi*r*r*local-pseudopot. charge    2.67231
atom: Maximum radius for r*vlocal+2*Zval:    2.32897
GHOST: No ghost state for L =  0
GHOST: No ghost state for L =  1
GHOST: No ghost state for L =  2
GHOST: No ghost state for L =  3

KBgen: Kleinman-Bylander projectors: 
   l= 0   rc=  2.243238   el= -1.759686   Ekb=**********   kbcos= -0.171774
   l= 1   rc=  2.328968   el= -0.663873   Ekb=-14.506792   kbcos= -0.519897
   l= 2   rc=  2.573941   el=  0.002031   Ekb= -1.137373   kbcos= -0.019581
   l= 3   rc=  2.606321   el=  0.003153   Ekb= -1.013546   kbcos= -0.003122

KBgen: Total number of Kleinman-Bylander projectors:   16
atom: -------------------------------------------------------------------------

atom: SANKEY-TYPE ORBITALS:
atom: Selected multiple-zeta basis: split     

SPLIT: Orbitals with angular momentum L= 0

SPLIT: Basis orbitals for state 2s

SPLIT: PAO cut-off radius determined from an
SPLIT: energy shift=  0.002000 Ry

   izeta = 1
                 lambda =    1.000000
                     rc =    4.243912
                 energy =   -1.758270
                kinetic =    3.286084
    potential(screened) =   -5.044353
       potential(ionic) =  -12.921184

   izeta = 2
                 rmatch =    2.187845
              splitnorm =    0.280000
                 energy =   -0.885018
                kinetic =    8.134434
    potential(screened) =   -9.019452
       potential(ionic) =  -17.710645

SPLIT: Orbitals with angular momentum L= 1

SPLIT: Basis orbitals for state 2p

SPLIT: PAO cut-off radius determined from an
SPLIT: energy shift=  0.002000 Ry

   izeta = 1
                 lambda =    1.000000
                     rc =    5.314825
                 energy =   -0.661986
                kinetic =    4.917472
    potential(screened) =   -5.579458
       potential(ionic) =  -13.236259

   izeta = 2
                 rmatch =    2.160663
              splitnorm =    0.280000
                 energy =   -0.068760
                kinetic =    9.183374
    potential(screened) =   -9.252135
       potential(ionic) =  -18.274251

POLgen: Perturbative polarization orbital with L=  2

POLgen: Polarization orbital for state 2p

   izeta = 1
                     rc =    5.314825
                 energy =    1.970580
                kinetic =    3.886128
    potential(screened) =   -1.915547
       potential(ionic) =   -7.749584
atom: Total number of Sankey-type orbitals: 13

atm_pop: Valence configuration (for local Pseudopot. screening):
 2s( 2.00)                                                            
 2p( 4.00)                                                            
Vna: chval, zval:    6.00000   6.00000

Vna:  Cut-off radius for the neutral-atom potential:   5.314825

atom: _________________________________________________________________________

<basis_specs>
===============================================================================
N                    Z=   7    Mass=  14.010        Charge= 0.17977+309
Lmxo=1 Lmxkb= 3    BasisType=split      Semic=F
L=0  Nsemic=0  Cnfigmx=2
          i=1  nzeta=2  polorb=0  (2s)
            splnorm:   0.28000    
               vcte:    0.0000    
               rinn:    0.0000    
               qcoe:    0.0000    
               qyuk:    0.0000    
               qwid:   0.10000E-01
                rcs:    0.0000      0.0000    
            lambdas:    1.0000      1.0000    
L=1  Nsemic=0  Cnfigmx=2
          i=1  nzeta=2  polorb=1  (2p)
            splnorm:   0.28000    
               vcte:    0.0000    
               rinn:    0.0000    
               qcoe:    0.0000    
               qyuk:    0.0000    
               qwid:   0.10000E-01
                rcs:    0.0000      0.0000    
            lambdas:    1.0000      1.0000    
-------------------------------------------------------------------------------
L=0  Nkbl=1  erefs: 0.17977+309
L=1  Nkbl=1  erefs: 0.17977+309
L=2  Nkbl=1  erefs: 0.17977+309
L=3  Nkbl=1  erefs: 0.17977+309
===============================================================================
</basis_specs>

atom: Called for N                     (Z =   7)

read_vps: Pseudopotential generation method:
read_vps: ATM4.2.7  Troullier-Martins                       
Valence charge for ps generation:    5.00000

xc_check: Exchange-correlation functional:
xc_check: GGA Perdew, Burke & Ernzerhof 1996
V l=0 = -2*Zval/r beyond r=  1.2889
V l=1 = -2*Zval/r beyond r=  1.2889
V l=2 = -2*Zval/r beyond r=  3.4178
V l=3 = -2*Zval/r beyond r=  2.4084
All V_l potentials equal beyond r=  3.3753
This should be close to max(r_c) in ps generation
All pots = -2*Zval/r beyond r=  3.4178

VLOCAL1: 99.0% of the norm of Vloc inside      3.810 Ry
VLOCAL1: 99.9% of the norm of Vloc inside      8.683 Ry
atom: Maximum radius for 4*pi*r*r*local-pseudopot. charge    4.02088
atom: Maximum radius for r*vlocal+2*Zval:    3.54838
GHOST: No ghost state for L =  0
GHOST: No ghost state for L =  1
GHOST: No ghost state for L =  2
GHOST: No ghost state for L =  3

KBgen: Kleinman-Bylander projectors: 
   l= 0   rc=  3.417763   el= -1.365098   Ekb= -4.433130   kbcos= -0.707855
   l= 1   rc=  3.375302   el= -0.521201   Ekb=-13.264039   kbcos= -0.535594
   l= 2   rc=  3.872880   el=  0.001991   Ekb= -0.641094   kbcos= -0.062456
   l= 3   rc=  3.970931   el=  0.003093   Ekb= -0.474517   kbcos= -0.018236

KBgen: Total number of Kleinman-Bylander projectors:   16
atom: -------------------------------------------------------------------------

atom: SANKEY-TYPE ORBITALS:
atom: Selected multiple-zeta basis: split     

SPLIT: Orbitals with angular momentum L= 0

SPLIT: Basis orbitals for state 2s

SPLIT: PAO cut-off radius determined from an
SPLIT: energy shift=  0.002000 Ry

   izeta = 1
                 lambda =    1.000000
                     rc =    4.730425
                 energy =   -1.363399
                kinetic =    1.245246
    potential(screened) =   -2.608645
       potential(ionic) =   -8.121105

   izeta = 2
                 rmatch =    2.531849
              splitnorm =    0.280000
                 energy =   -0.959908
                kinetic =    2.409435
    potential(screened) =   -3.369343
       potential(ionic) =   -9.427975

SPLIT: Orbitals with angular momentum L= 1

SPLIT: Basis orbitals for state 2p

SPLIT: PAO cut-off radius determined from an
SPLIT: energy shift=  0.002000 Ry

   izeta = 1
                 lambda =    1.000000
                     rc =    5.924108
                 energy =   -0.519262
                kinetic =    3.672940
    potential(screened) =   -4.192202
       potential(ionic) =   -9.518354

   izeta = 2
                 rmatch =    2.531849
              splitnorm =    0.280000
                 energy =   -0.104258
                kinetic =    6.807538
    potential(screened) =   -6.911796
       potential(ionic) =  -13.149920

POLgen: Perturbative polarization orbital with L=  2

POLgen: Polarization orbital for state 2p

   izeta = 1
                     rc =    5.924108
                 energy =    1.427508
                kinetic =    2.872379
    potential(screened) =   -1.444871
       potential(ionic) =   -5.563644
atom: Total number of Sankey-type orbitals: 13

atm_pop: Valence configuration (for local Pseudopot. screening):
 2s( 2.00)                                                            
 2p( 3.00)                                                            
Vna: chval, zval:    5.00000   5.00000

Vna:  Cut-off radius for the neutral-atom potential:   5.924108

atom: _________________________________________________________________________

<basis_specs>
===============================================================================
Si                   Z=  14    Mass=  28.090        Charge= 0.17977+309
Lmxo=1 Lmxkb= 3    BasisType=split      Semic=F
L=0  Nsemic=0  Cnfigmx=3
          i=1  nzeta=2  polorb=0  (3s)
            splnorm:   0.28000    
               vcte:    0.0000    
               rinn:    0.0000    
               qcoe:    0.0000    
               qyuk:    0.0000    
               qwid:   0.10000E-01
                rcs:    0.0000      0.0000    
            lambdas:    1.0000      1.0000    
L=1  Nsemic=0  Cnfigmx=3
          i=1  nzeta=2  polorb=1  (3p)
            splnorm:   0.28000    
               vcte:    0.0000    
               rinn:    0.0000    
               qcoe:    0.0000    
               qyuk:    0.0000    
               qwid:   0.10000E-01
                rcs:    0.0000      0.0000    
            lambdas:    1.0000      1.0000    
-------------------------------------------------------------------------------
L=0  Nkbl=1  erefs: 0.17977+309
L=1  Nkbl=1  erefs: 0.17977+309
L=2  Nkbl=1  erefs: 0.17977+309
L=3  Nkbl=1  erefs: 0.17977+309
===============================================================================
</basis_specs>

atom: Called for Si                    (Z =  14)

read_vps: Pseudopotential generation method:
read_vps: ATM4.2.7  Troullier-Martins                       
Valence charge for ps generation:    4.00000

xc_check: Exchange-correlation functional:
xc_check: GGA Perdew, Burke & Ernzerhof 1996
V l=0 = -2*Zval/r beyond r=  2.7826
V l=1 = -2*Zval/r beyond r=  2.7826
V l=2 = -2*Zval/r beyond r=  2.9253
V l=3 = -2*Zval/r beyond r=  2.7826
All V_l potentials equal beyond r=  2.8530
This should be close to max(r_c) in ps generation
All pots = -2*Zval/r beyond r=  2.9253

VLOCAL1: 99.0% of the norm of Vloc inside      5.333 Ry
VLOCAL1: 99.9% of the norm of Vloc inside     12.154 Ry
atom: Maximum radius for 4*pi*r*r*local-pseudopot. charge    3.39869
atom: Maximum radius for r*vlocal+2*Zval:    2.96205
GHOST: No ghost state for L =  0
GHOST: No ghost state for L =  1
GHOST: No ghost state for L =  2
GHOST: No ghost state for L =  3

KBgen: Kleinman-Bylander projectors: 
   l= 0   rc=  3.075247   el= -0.794092   Ekb=  5.879390   kbcos=  0.167461
   l= 1   rc=  3.153101   el= -0.300068   Ekb=  2.642817   kbcos=  0.058301
   l= 2   rc=  3.273594   el=  0.001958   Ekb= -1.185135   kbcos= -0.104411
   l= 3   rc=  3.232927   el=  0.003046   Ekb= -0.497174   kbcos= -0.015889

KBgen: Total number of Kleinman-Bylander projectors:   16
atom: -------------------------------------------------------------------------

atom: SANKEY-TYPE ORBITALS:
atom: Selected multiple-zeta basis: split     

SPLIT: Orbitals with angular momentum L= 0

SPLIT: Basis orbitals for state 3s

SPLIT: PAO cut-off radius determined from an
SPLIT: energy shift=  0.002000 Ry

   izeta = 1
                 lambda =    1.000000
                     rc =    6.429618
                 energy =   -0.792283
                kinetic =    0.525293
    potential(screened) =   -1.317576
       potential(ionic) =   -3.744923

   izeta = 2
                 rmatch =    3.998416
              splitnorm =    0.280000
                 energy =   -0.583081
                kinetic =    1.069570
    potential(screened) =   -1.652651
       potential(ionic) =   -4.235185

SPLIT: Orbitals with angular momentum L= 1

SPLIT: Basis orbitals for state 3p

SPLIT: PAO cut-off radius determined from an
SPLIT: energy shift=  0.002000 Ry

   izeta = 1
                 lambda =    1.000000
                     rc =    8.464845
                 energy =   -0.298236
                kinetic =    0.785360
    potential(screened) =   -1.083596
       potential(ionic) =   -3.273779

   izeta = 2
                 rmatch =    4.587816
              splitnorm =    0.280000
                 energy =   -0.131871
                kinetic =    1.403687
    potential(screened) =   -1.535557
       potential(ionic) =   -4.015310

POLgen: Perturbative polarization orbital with L=  2

POLgen: Polarization orbital for state 3p

   izeta = 1
                     rc =    8.464845
                 energy =    0.321949
                kinetic =    1.055677
    potential(screened) =   -0.733728
       potential(ionic) =   -2.672950
atom: Total number of Sankey-type orbitals: 13

atm_pop: Valence configuration (for local Pseudopot. screening):
 3s( 2.00)                                                            
 3p( 2.00)                                                            
Vna: chval, zval:    4.00000   4.00000

Vna:  Cut-off radius for the neutral-atom potential:   8.464845

atom: _________________________________________________________________________

<basis_specs>
===============================================================================
H                    Z=   1    Mass=  1.0100        Charge= 0.17977+309
Lmxo=0 Lmxkb= 2    BasisType=split      Semic=F
L=0  Nsemic=0  Cnfigmx=1
          i=1  nzeta=2  polorb=1  (1s)
            splnorm:   0.62000    
               vcte:    0.0000    
               rinn:    0.0000    
               qcoe:    0.0000    
               qyuk:    0.0000    
               qwid:   0.10000E-01
                rcs:    0.0000      0.0000    
            lambdas:    1.0000      1.0000    
-------------------------------------------------------------------------------
L=0  Nkbl=1  erefs: 0.17977+309
L=1  Nkbl=1  erefs: 0.17977+309
L=2  Nkbl=1  erefs: 0.17977+309
===============================================================================
</basis_specs>

atom: Called for H                     (Z =   1)

read_vps: Pseudopotential generation method:
read_vps: ATM4.2.7  Troullier-Martins                       
Valence charge for ps generation:    1.00000

xc_check: Exchange-correlation functional:
xc_check: GGA Perdew, Burke & Ernzerhof 1996
V l=0 = -2*Zval/r beyond r=  0.0098
V l=1 = -2*Zval/r beyond r=  0.5817
V l=2 = -2*Zval/r beyond r=  1.9372
All V_l potentials equal beyond r=  1.9372
This should be close to max(r_c) in ps generation
All pots = -2*Zval/r beyond r=  1.9372

VLOCAL1: 99.0% of the norm of Vloc inside     11.567 Ry
VLOCAL1: 99.9% of the norm of Vloc inside     26.362 Ry
atom: Maximum radius for 4*pi*r*r*local-pseudopot. charge    2.25106
atom: Maximum radius for r*vlocal+2*Zval:    1.91306
GHOST: No ghost state for L =  0
GHOST: No ghost state for L =  1
GHOST: No ghost state for L =  2

KBgen: Kleinman-Bylander projectors: 
   l= 0   rc=  2.036604   el= -0.477180   Ekb= -6.081590   kbcos= -0.277285
   l= 1   rc=  2.195416   el=  0.001076   Ekb= -0.926943   kbcos= -0.034643
   l= 2   rc=  2.251056   el=  0.002010   Ekb= -0.130941   kbcos= -0.009788

KBgen: Total number of Kleinman-Bylander projectors:    9
atom: -------------------------------------------------------------------------

atom: SANKEY-TYPE ORBITALS:
atom: Selected multiple-zeta basis: split     

SPLIT: Orbitals with angular momentum L= 0

SPLIT: Basis orbitals for state 1s

SPLIT: PAO cut-off radius determined from an
SPLIT: energy shift=  0.002000 Ry

   izeta = 1
                 lambda =    1.000000
                     rc =    6.518340
                 energy =   -0.475305
                kinetic =    0.912139
    potential(screened) =   -1.387444
       potential(ionic) =   -1.907295

   izeta = 2
                 rmatch =    2.141150
              splitnorm =    0.620000
                 energy =    0.566467
                kinetic =    3.772856
    potential(screened) =   -3.206389
       potential(ionic) =   -3.759093

POLgen: Perturbative polarization orbital with L=  1

POLgen: Polarization orbital for state 1s

   izeta = 1
                     rc =    6.518340
                 energy =    0.533861
                kinetic =    1.121086
    potential(screened) =   -0.587225
       potential(ionic) =   -1.053027
atom: Total number of Sankey-type orbitals:  5

atm_pop: Valence configuration (for local Pseudopot. screening):
 1s( 1.00)                                                            
Vna: chval, zval:    1.00000   1.00000

Vna:  Cut-off radius for the neutral-atom potential:   6.518340

atom: _________________________________________________________________________

prinput: Basis input ----------------------------------------------------------

PAO.BasisType split     

%block ChemicalSpeciesLabel
    1    8 O                       # Species index, atomic number, species label
    2    7 N                       # Species index, atomic number, species label
    3   14 Si                      # Species index, atomic number, species label
    4    1 H                       # Species index, atomic number, species label
%endblock ChemicalSpeciesLabel

%block PAO.Basis                 # Define Basis set
O                     2                    # Species label, number of l-shells
 n=2   0   2                         # n, l, Nzeta 
   4.244      2.188   
   1.000      1.000   
 n=2   1   2 P   1                   # n, l, Nzeta, Polarization, NzetaPol
   5.315      2.161   
   1.000      1.000   
N                     2                    # Species label, number of l-shells
 n=2   0   2                         # n, l, Nzeta 
   4.730      2.532   
   1.000      1.000   
 n=2   1   2 P   1                   # n, l, Nzeta, Polarization, NzetaPol
   5.924      2.532   
   1.000      1.000   
Si                    2                    # Species label, number of l-shells
 n=3   0   2                         # n, l, Nzeta 
   6.430      3.998   
   1.000      1.000   
 n=3   1   2 P   1                   # n, l, Nzeta, Polarization, NzetaPol
   8.465      4.588   
   1.000      1.000   
H                     1                    # Species label, number of l-shells
 n=1   0   2 P   1                   # n, l, Nzeta, Polarization, NzetaPol
   6.518      2.141   
   1.000      1.000   
%endblock PAO.Basis

prinput: ----------------------------------------------------------------------

Dumping basis to NetCDF file O.ion.nc
Dumping basis to NetCDF file N.ion.nc
Dumping basis to NetCDF file Si.ion.nc
Dumping basis to NetCDF file H.ion.nc
coor:   Atomic-coordinates input format  =     Cartesian coordinates
coor:                                          (in Angstroms)

siesta: Atomic coordinates (Bohr) and species
siesta:      1.81163   7.18763   0.00000  1        1
siesta:     -5.74229   1.88609   0.00000  2        2
siesta:      3.90525   2.07693   0.00000  2        3
siesta:      1.94561  -3.46705   0.00000  2        4
siesta:     -3.98462  -3.55608   0.00000  2        5
siesta:      7.39339  -2.23157   0.00000  2        6
siesta:     -2.33502   1.97473   0.00000  3        7
siesta:     -0.94847  -1.94988   0.00000  3        8
siesta:      1.18951   4.21930   0.00000  3        9
siesta:      4.30868  -1.24399   0.00000  3       10
siesta:     -6.47196  -1.25161   0.00000  3       11
siesta:      5.60488   3.17902   0.00000  4       12
siesta:     -9.06356  -2.34086   0.00000  4       13
siesta:      7.74138  -4.18414   0.00000  4       14
siesta:      9.05578  -0.99994   0.00000  4       15
siesta:     -4.28375  -5.52253   0.00000  4       16
siesta:      8.70732   9.26505   0.00000  3       17
siesta:     12.34595  11.51690   0.00000  3       18
siesta:     11.46759   4.09749   0.00000  3       19
siesta:     15.38156   8.72174   0.00000  3       20
siesta:      8.90061   6.03483   0.00000  2       21
siesta:      5.72273  10.53160   0.00000  2       22
siesta:     14.59144   5.44895   0.00000  2       23
siesta:     12.92891  14.28471   0.00000  4       24
siesta:     18.20041   9.09964   0.00000  4       25
siesta:      5.37384  12.48723   0.00000  4       26
siesta:      4.03692   9.26305   0.00000  4       27
siesta:     11.44845   1.07727   0.00000  1       28
siesta:     16.05900   4.08489   0.00000  4       29

siesta: Automatic unit cell vectors (Ang):
siesta:   23.458798    0.000000    0.000000
siesta:    0.000000   19.118271    0.000000
siesta:    0.000000    0.000000    9.854683

siesta: System type = molecule  

initatomlists: Number of atoms, orbitals, and projectors:     29   297   394

siesta: ******************** Simulation parameters ****************************
siesta:
siesta: The following are some of the parameters of the simulation.
siesta: A complete list of the parameters used, including default values,
siesta: can be found in file out.fdf
siesta:
redata: Spin configuration                          = spin-orbit
redata: Number of spin components                   = 8
redata: Time-Reversal Symmetry                      = F
redata: Spin spiral                                 = F
############################################################
This spin-orbit implementation uses a local approximation.
From 4.2 and onwards the full non-local approximation is implemented
You are strongly advised to use >=4.2 versions!
############################################################
redata: Long output                                 =   F
redata: Number of Atomic Species                    =        4
redata: Charge density info will appear in .RHO file
redata: Write Mulliken Pop.                         = Atomic and Orbital charges
redata: Matel table size (NRTAB)                    =     1024
redata: Mesh Cutoff                                 =   340.0000 Ry
redata: Net charge of the system                    =     0.0000 |e|
redata: Min. number of SCF Iter                     =        1
redata: Max. number of SCF Iter                     =      200
redata: SCF mix quantity                            = Hamiltonian
redata: Mix DM or H after convergence               =   F
redata: Recompute H after scf cycle                 =   F
redata: Mix DM in first SCF step                    =   T
redata: Write Pulay info on disk                    =   F
redata: New DM Occupancy tolerance                  = 0.000000000001
redata: No kicks to SCF
redata: DM Mixing Weight for Kicks                  =     0.5000
redata: Require Harris convergence for SCF          =   F
redata: Harris energy tolerance for SCF             =     0.000100 eV
redata: Require DM convergence for SCF              =   T
redata: DM tolerance for SCF                        =     0.000008
redata: Require EDM convergence for SCF             =   F
redata: EDM tolerance for SCF                       =     0.001000 eV
redata: Require H convergence for SCF               =   T
redata: Hamiltonian tolerance for SCF               =     0.000001 eV
redata: Require (free) Energy convergence for SCF   =   F
redata: (free) Energy tolerance for SCF             =     0.000100 eV
redata: Using Saved Data (generic)                  =   F
redata: Use continuation files for DM               =   F
redata: Neglect nonoverlap interactions             =   F
redata: Method of Calculation                       = Diagonalization
redata: Electronic Temperature                      =   299.9978 K
redata: Fix the spin of the system                  =   F
redata: Dynamics option                             = Single-point calculation
mix.SCF: Pulay mixing                            = Pulay
mix.SCF:    Variant                              = stable
mix.SCF:    History steps                        = 6
mix.SCF:    Linear mixing weight                 =     0.250000
mix.SCF:    Mixing weight                        =     0.250000
mix.SCF:    SVD condition                        = 0.1000E-07
mix.SCF:    Restart steps                        = 24
mix.SCF:    Restart save steps                   = 3
mix.SCF: Spin-component mixing                   all
redata: Save all siesta data in one NC              =   F
redata: ***********************************************************************

%block SCF.Mixers
  Pulay
%endblock SCF.Mixers

%block SCF.Mixer.Pulay
  # Mixing method
  method pulay
  variant stable

  # Mixing options
  weight 0.2500
  weight.linear 0.2500
  history 6
  restart 24
  restart.save 3
%endblock SCF.Mixer.Pulay

DM_history_depth set to one: no extrapolation allowed by default for geometry relaxation
Size of DM history Fstack: 1
Total number of electrons:    98.000000
Total ionic charge:    98.000000

* ProcessorY, Blocksize:    2  24


* Orbital distribution balance (max,min):    81    72


Time-reversal symmetry not used.

siesta: k-grid: Number of k-points =     1
siesta: k-grid: Cutoff (effective) =     4.927 Ang
siesta: k-grid: Supercell and displacements
siesta: k-grid:    1   0   0      0.000
siesta: k-grid:    0   1   0      0.000
siesta: k-grid:    0   0   1      0.000

diag: Algorithm                                     = ELPA-1stage
diag: Parallel over k                               =   F
diag: Use parallel 2D distribution                  =   T
diag: Parallel block-size                           = 24
diag: Parallel distribution                         =     2 x     2
diag: Used triangular part                          = Lower
diag: Absolute tolerance                            =  0.100E-15
diag: Orthogonalization factor                      =  0.100E-05
diag: Memory factor                                 =  1.0000


ts: **************************************************************
ts: Save H and S matrices                           =    F
ts: Save DM and EDM matrices                        =    F
ts: Only save the overlap matrix S                  =    F
ts: **************************************************************

************************ Begin: TS CHECKS AND WARNINGS ************************
************************ End: TS CHECKS AND WARNINGS **************************


                     ====================================
                        Single-point calculation
                     ====================================

outcoor: Atomic coordinates (Ang):                          
    0.95867151    3.80352930    0.00000000   1       1  O
   -3.03868821    0.99807333    0.00000000   2       2  N
    2.06656775    1.09906577    0.00000000   2       3  N
    1.02956986   -1.83468085    0.00000000   2       4  N
   -2.10856766   -1.88179824    0.00000000   2       5  N
    3.91241107   -1.18089443    0.00000000   2       6  N
   -1.23563679    1.04498300    0.00000000   3       7  Si
   -0.50190924   -1.03183228    0.00000000   3       8  Si
    0.62946328    2.23275584    0.00000000   3       9  Si
    2.28005437   -0.65829354    0.00000000   3      10  Si
   -3.42481299   -0.66232416    0.00000000   3      11  Si
    2.96597416    1.68226399    0.00000000   4      12  H
   -4.79622939   -1.23872848    0.00000000   4      13  H
    4.09655941   -2.21414876    0.00000000   4      14  H
    4.79210868   -0.52914725    0.00000000   4      15  H
   -2.26686130   -2.92239373    0.00000000   4      16  H
    4.60771444    4.90285037    0.00000000   3      17  Si
    6.53319218    6.09447970    0.00000000   3      18  Si
    6.06838579    2.16829600    0.00000000   3      19  Si
    8.13956571    4.61534259    0.00000000   3      20  Si
    4.70999898    3.19349568    0.00000000   2      21  N
    3.02833635    5.57307986    0.00000000   2      22  N
    7.72145570    2.88345968    0.00000000   2      23  N
    6.84168301    7.55914106    0.00000000   4      24  H
    9.63123862    4.81532205    0.00000000   4      25  H
    2.84370990    6.60795359    0.00000000   4      26  H
    2.13624456    4.90179113    0.00000000   4      27  H
    6.05825520    0.57006748    0.00000000   1      28  O
    8.49805408    2.16162948    0.00000000   4      29  H

outcell: Unit cell vectors (Ang):
       23.458798    0.000000    0.000000
        0.000000   19.118271    0.000000
        0.000000    0.000000    9.854683

outcell: Cell vector modules (Ang)   :   23.458798   19.118271    9.854683
outcell: Cell angles (23,13,12) (deg):     90.0000     90.0000     90.0000
outcell: Cell volume (Ang**3)        :   4419.7432
<dSpData1D:S at geom step 0
  <sparsity:sparsity for geom step 0
    nrows_g=297 nrows=81 sparsity=.2308 nnzs=20355, refcount: 8>
  <dData1D:(new from dSpData1D) n=20355, refcount: 1>
refcount: 1>
new_DM -- step:     1
Initializing Density Matrix...
DM filled with atomic data:
<dSpData2D:DM initialized from atoms
  <sparsity:sparsity for geom step 0
    nrows_g=297 nrows=81 sparsity=.2308 nnzs=20355, refcount: 9>
  <dData2D:DM n=20355 m=8, refcount: 1>
refcount: 1>
     spin moment: S , {S} =   56.00000   0.00000   0.00000  56.00000
No. of atoms with KB's overlaping orbs in proc 0. Max # of overlaps:      29     199

Initializing spin-orbit part of the Hamiltonian
  Adding spin-orbit effects for O 
  Adding spin-orbit effects for N 
  Adding spin-orbit effects for Si
  Adding spin-orbit effects for H 


New grid distribution:   1
           1       1:  135    1:   54    1:   30
           2       1:  135    1:   54   31:   60
           3       1:  135   55:  108    1:   30
           4       1:  135   55:  108   31:   60

InitMesh: MESH =   270 x   216 x   120 =     6998400
InitMesh: (bp) =   135 x   108 x    60 =      874800
InitMesh: Mesh cutoff (required, used) =   340.000   352.786 Ry
ExtMesh (bp) on 0 =   239 x   158 x   142 =     5362204
New grid distribution:   2
           1      32:  135    1:   25    1:   60
           2       1:   31    1:   23    1:   60
           3      32:  135   26:  108    1:   60
           4       1:   31   24:  108    1:   60
New grid distribution:   3
           1      44:  135    1:   32    1:   60
           2       1:   43    1:   37    1:   60
           3      44:  135   33:  108    1:   60
           4       1:   43   38:  108    1:   60
Setting up quadratic distribution...
ExtMesh (bp) on 0 =   208 x   129 x   172 =     4615104
PhiOnMesh: Number of (b)points on node 0 =               156000
PhiOnMesh: nlist on node 0 =              2633208

stepf: Fermi-Dirac step function

siesta: Program's energy decomposition (eV):
siesta: Ebs     =      -612.961277
siesta: Eions   =      3585.165840
siesta: Ena     =       382.826634
siesta: Ekin    =      3367.095287
siesta: Enl     =     -3297.216453
siesta: Eso     =        -0.003468
siesta: Edftu   =         0.000000
siesta: DEna    =       154.381759
siesta: DUscf   =        78.002538
siesta: DUext   =         0.000000
siesta: Exc     =     -1204.525351
siesta: eta*DQ  =         0.000000
siesta: Emadel  =         0.000000
siesta: Emeta   =         0.000000
siesta: Emolmec =         0.000000
siesta: Ekinion =         0.000000
siesta: Eharris =     -4028.878578
siesta: Etot    =     -4104.604894
siesta: FreeEng =     -4104.606589

        iscf     Eharris(eV)        E_KS(eV)     FreeEng(eV)     dDmax    Ef(eV) dHmax(eV)
   scf:    1    -4028.878578    -4104.604894    -4104.606589  0.957453 -4.902617 20.078583
     spin moment: S , {S} =    2.01041   0.00000   0.00000   2.01041
timer: Routine,Calls,Time,% = IterSCF        1      12.346  17.12
   scf:    2    -4150.660395    -4138.695023    -4138.696807  0.459537 -4.202666 10.817231
     spin moment: S , {S} =    1.98930  -0.00000  -0.00000   1.98930
   scf:    3    -4112.007565    -4135.920599    -4135.938180  0.424743 -4.257998 11.393775
     spin moment: S , {S} =    2.00011   0.00000  -0.00000   2.00011
   scf:    4    -4151.539498    -4146.686630    -4146.686631  0.308950 -3.877039  5.832675
     spin moment: S , {S} =    0.00009  -0.00000   0.00000   0.00009
   scf:    5    -4147.827588    -4147.345664    -4147.345664  0.038248 -3.692272  4.187245
     spin moment: S , {S} =    0.00005   0.00000   0.00000   0.00005
   scf:    6    -4148.116560    -4147.734201    -4147.734201  0.025711 -3.601860  1.998020
     spin moment: S , {S} =    0.00003  -0.00000   0.00000   0.00003
   scf:    7    -4148.080670    -4147.906873    -4147.906873  0.021431 -3.728055  0.852398
     spin moment: S , {S} =    0.00001   0.00000  -0.00000   0.00001
   scf:    8    -4148.021156    -4147.962608    -4147.962608  0.012050 -3.742885  0.453229
     spin moment: S , {S} =    0.00000   0.00000  -0.00000   0.00000
   scf:    9    -4148.000986    -4147.981201    -4147.981201  0.006758 -3.768797  0.300615
     spin moment: S , {S} =    0.00000   0.00000  -0.00000   0.00000
   scf:   10    -4148.026934    -4148.000686    -4148.000686  0.016506 -3.798009  0.130865
     spin moment: S , {S} =    0.00000   0.00000   0.00000  -0.00000
   scf:   11    -4148.003855    -4148.002187    -4148.002187  0.004739 -3.790487  0.051898
     spin moment: S , {S} =    0.00000   0.00000   0.00000   0.00000
   scf:   12    -4148.003052    -4148.002613    -4148.002613  0.002074 -3.787204  0.031912
     spin moment: S , {S} =    0.00000   0.00000  -0.00000   0.00000
   scf:   13    -4148.003195    -4148.002887    -4148.002887  0.001954 -3.785546  0.024667
     spin moment: S , {S} =    0.00000   0.00000  -0.00000   0.00000
   scf:   14    -4148.003354    -4148.003099    -4148.003099  0.002191 -3.784871  0.017547
     spin moment: S , {S} =    0.00000   0.00000  -0.00000   0.00000
   scf:   15    -4148.003439    -4148.003242    -4148.003242  0.002431 -3.784332  0.009716
     spin moment: S , {S} =    0.00000   0.00000   0.00000   0.00000
   scf:   16    -4148.003364    -4148.003289    -4148.003289  0.001754 -3.784447  0.004182
     spin moment: S , {S} =    0.00000   0.00000   0.00000   0.00000
   scf:   17    -4148.003304    -4148.003295    -4148.003295  0.000597 -3.784647  0.002251
     spin moment: S , {S} =    0.00000   0.00000   0.00000   0.00000
   scf:   18    -4148.003299    -4148.003297    -4148.003297  0.000268 -3.784746  0.001122
     spin moment: S , {S} =    0.00000   0.00000   0.00000   0.00000
   scf:   19    -4148.003298    -4148.003297    -4148.003297  0.000113 -3.784741  0.000615
     spin moment: S , {S} =    0.00000   0.00000   0.00000  -0.00000
   scf:   20    -4148.003298    -4148.003298    -4148.003298  0.000049 -3.784694  0.000392
     spin moment: S , {S} =    0.00000   0.00000   0.00000  -0.00000
   scf:   21    -4148.003298    -4148.003298    -4148.003298  0.000066 -3.784645  0.000209
     spin moment: S , {S} =    0.00000   0.00000   0.00000  -0.00000
   scf:   22    -4148.003298    -4148.003298    -4148.003298  0.000017 -3.784626  0.000076
     spin moment: S , {S} =    0.00000   0.00000   0.00000  -0.00000
   scf:   23    -4148.003298    -4148.003298    -4148.003298  0.000005 -3.784625  0.000043
     spin moment: S , {S} =    0.00000   0.00000   0.00000  -0.00000
   scf:   24    -4148.003298    -4148.003298    -4148.003298  0.000003 -3.784622  0.000020
     spin moment: S , {S} =    0.00000   0.00000   0.00000  -0.00000
mix: Pulay -- resetting history
   scf:   25    -4148.003298    -4148.003298    -4148.003298  0.000002 -3.784620  0.000010
     spin moment: S , {S} =    0.00000   0.00000   0.00000   0.00000
   scf:   26    -4148.003298    -4148.003298    -4148.003298  0.000001 -3.784619  0.000005
     spin moment: S , {S} =    0.00000   0.00000   0.00000   0.00000
   scf:   27    -4148.003298    -4148.003298    -4148.003298  0.000000 -3.784618  0.000003
     spin moment: S , {S} =    0.00000   0.00000   0.00000   0.00000
   scf:   28    -4148.003298    -4148.003298    -4148.003298  0.000000 -3.784618  0.000002
     spin moment: S , {S} =    0.00000   0.00000   0.00000   0.00000
   scf:   29    -4148.003298    -4148.003298    -4148.003298  0.000000 -3.784618  0.000001
     spin moment: S , {S} =    0.00000   0.00000   0.00000   0.00000
   scf:   30    -4148.003298    -4148.003298    -4148.003298  0.000000 -3.784618  0.000000
     spin moment: S , {S} =    0.00000   0.00000   0.00000   0.00000

SCF Convergence by DM+H criterion
max |DM_out - DM_in|         :     0.0000001406
max |H_out - H_in|      (eV) :     0.0000004820
SCF cycle converged after 30 iterations

Using DM_out to compute the final energy and forces
No. of atoms with KB's overlaping orbs in proc 0. Max # of overlaps:      29     199

siesta: E_KS(eV) =            -4148.0033

siesta: E_KS - E_eggbox =     -4148.0033
     spin moment: S , {S} =    0.00000   0.00000   0.00000   0.00000

siesta: Atomic forces (eV/Ang):
     1   -0.470920    0.485048   -0.000000
     2   -0.006972    0.007301   -0.000000
     3    0.055405   -0.008538   -0.000000
     4    0.048907   -0.001606   -0.000000
     5    0.004826   -0.008905    0.000000
     6    0.195691    0.118214    0.000000
     7    0.001106   -0.015400   -0.000000
     8   -0.025433    0.018188    0.000000
     9    0.003263    0.083192   -0.000000
    10   -0.056049    0.033469    0.000000
    11   -0.000814   -0.001928   -0.000000
    12   -0.004958    0.048064    0.000000
    13   -0.035106   -0.015445    0.000000
    14   -0.097870   -0.130410   -0.000000
    15   -0.258476    0.017814    0.000000
    16    0.112675   -0.140226   -0.000000
    17    0.057297   -0.080557   -0.000000
    18   -0.013749    0.010134   -0.000000
    19   -0.026214   -0.071548    0.000000
    20   -0.007951   -0.025979   -0.000000
    21   -0.022674    0.063831    0.000000
    22   -0.298615   -0.161938    0.000000
    23   -0.007176    0.005696    0.000000
    24   -0.008264    0.074204   -0.000000
    25    0.018510   -0.020984   -0.000000
    26    0.042959    0.096112    0.000000
    27    0.142661   -0.023570   -0.000000
    28    3.803443   -1.774577   -0.000000
    29    0.011412    0.003553    0.000000
----------------------------------------
   Tot    3.156916   -1.416792    0.000000
----------------------------------------
   Max    3.803443
   Res    0.460482    sqrt( Sum f_i^2 / 3N )
----------------------------------------
   Max    3.803443    constrained

Stress tensor Voigt[x,y,z,yz,xz,xy] (kbar):       -0.26       -0.64       -0.11       -0.00        0.00        0.06
(Free)E + p*V (eV/cell)    -4147.0727
Target enthalpy (eV/cell)    -4148.0033

mulliken: Atomic and Orbital Populations:

Species: O                   

Atom      Orb        Charge      Spin       Svec
----------------------------------------------------------------
    1  1 2s         1.72542   0.00000      0.000   0.000   0.000
    1  2 2s         0.06574   0.00000     -0.000  -0.000   0.000
    1  3 2py        1.36408   0.00000     -0.000  -0.000   0.000
    1  4 2pz        1.61218   0.00000      0.000  -0.000   0.000
    1  5 2px        1.64940   0.00000      0.000  -0.000   0.000
    1  6 2py        0.08118   0.00000      0.000   0.000   0.000
    1  7 2pz       -0.01625   0.00000     -0.000   0.000   0.000
    1  8 2px       -0.00090   0.00000     -0.000   0.000   0.000
    1  9 3Pdxy      0.00875   0.00000      0.000  -0.000   0.000
    1 10 3Pdyz      0.00762   0.00000      0.000   0.000  -0.000
    1 11 3Pdz2      0.00193   0.00000      0.000  -0.000   0.000
    1 12 3Pdxz     -0.00002   0.00000      0.000  -0.000  -0.000
    1 13 3Pdx2-y2   0.00542   0.00000      0.000   0.000  -0.000
    1     Total     6.50453   0.00000      0.000  -0.000   0.000

   28  1 2s         1.74167   0.00000     -0.000   0.000   0.000
   28  2 2s         0.05773   0.00000      0.000  -0.000  -0.000
   28  3 2py        1.36465   0.00000     -0.000  -0.000   0.000
   28  4 2pz        1.60275   0.00000      0.000   0.000   0.000
   28  5 2px        1.66360   0.00000      0.000  -0.000  -0.000
   28  6 2py        0.07603   0.00000      0.000   0.000   0.000
   28  7 2pz       -0.01502   0.00000     -0.000  -0.000   0.000
   28  8 2px       -0.00236   0.00000     -0.000   0.000   0.000
   28  9 3Pdxy      0.00852   0.00000      0.000  -0.000   0.000
   28 10 3Pdyz      0.00850   0.00000     -0.000   0.000  -0.000
   28 11 3Pdz2      0.00152   0.00000      0.000   0.000  -0.000
   28 12 3Pdxz     -0.00012   0.00000      0.000   0.000  -0.000
   28 13 3Pdx2-y2   0.00662   0.00000     -0.000  -0.000  -0.000
   28     Total     6.51409   0.00000      0.000   0.000   0.000

----------------------------------------------------------------
Total              13.01862   0.00000      0.000   0.000   0.000


Species: N                   

Atom      Orb        Charge      Spin       Svec
----------------------------------------------------------------
    2  1 2s         1.55413   0.00000      0.000   0.000   0.000
    2  2 2s         0.08357   0.00000     -0.000  -0.000   0.000
    2  3 2py        1.04151   0.00000      0.000  -0.000   0.000
    2  4 2pz        1.22477   0.00000     -0.000   0.000   0.000
    2  5 2px        0.98703   0.00000      0.000   0.000   0.000
    2  6 2py        0.18854   0.00000     -0.000   0.000  -0.000
    2  7 2pz        0.05627   0.00000      0.000  -0.000  -0.000
    2  8 2px        0.19560   0.00000     -0.000  -0.000  -0.000
    2  9 3Pdxy      0.00856   0.00000     -0.000  -0.000   0.000
    2 10 3Pdyz      0.01121   0.00000     -0.000   0.000  -0.000
    2 11 3Pdz2      0.00193   0.00000     -0.000   0.000  -0.000
    2 12 3Pdxz      0.00764   0.00000     -0.000   0.000  -0.000
    2 13 3Pdx2-y2   0.00929   0.00000     -0.000   0.000   0.000
    2     Total     5.37005   0.00000      0.000   0.000   0.000

    3  1 2s         1.38006   0.00000     -0.000   0.000  -0.000
    3  2 2s         0.12516   0.00000      0.000   0.000   0.000
    3  3 2py        0.93842   0.00000     -0.000   0.000   0.000
    3  4 2pz        1.53999   0.00000      0.000   0.000   0.000
    3  5 2px        1.07161   0.00000      0.000   0.000  -0.000
    3  6 2py        0.25528   0.00000     -0.000  -0.000   0.000
    3  7 2pz        0.00552   0.00000     -0.000  -0.000   0.000
    3  8 2px        0.18899   0.00000     -0.000  -0.000   0.000
    3  9 3Pdxy      0.00407   0.00000     -0.000   0.000   0.000
    3 10 3Pdyz      0.00387   0.00000     -0.000  -0.000   0.000
    3 11 3Pdz2      0.00053   0.00000      0.000  -0.000  -0.000
    3 12 3Pdxz      0.00281   0.00000     -0.000   0.000   0.000
    3 13 3Pdx2-y2   0.00245   0.00000      0.000  -0.000  -0.000
    3     Total     5.51875   0.00000      0.000   0.000   0.000

    4  1 2s         1.46248   0.00000     -0.000   0.000  -0.000
    4  2 2s         0.11867   0.00000      0.000  -0.000   0.000
    4  3 2py        1.13030   0.00000      0.000   0.000  -0.000
    4  4 2pz        1.29277   0.00000      0.000   0.000  -0.000
    4  5 2px        0.82501   0.00000      0.000   0.000   0.000
    4  6 2py        0.15047   0.00000     -0.000   0.000   0.000
    4  7 2pz        0.05363   0.00000     -0.000  -0.000   0.000
    4  8 2px        0.29149   0.00000     -0.000  -0.000  -0.000
    4  9 3Pdxy      0.00877   0.00000     -0.000  -0.000  -0.000
    4 10 3Pdyz      0.01045   0.00000      0.000   0.000   0.000
    4 11 3Pdz2      0.00129   0.00000     -0.000   0.000  -0.000
    4 12 3Pdxz      0.00477   0.00000     -0.000  -0.000   0.000
    4 13 3Pdx2-y2   0.00796   0.00000      0.000  -0.000  -0.000
    4     Total     5.35805   0.00000      0.000   0.000  -0.000

    5  1 2s         1.37160   0.00000      0.000   0.000   0.000
    5  2 2s         0.12987   0.00000     -0.000  -0.000   0.000
    5  3 2py        1.02691   0.00000     -0.000   0.000   0.000
    5  4 2pz        1.49835   0.00000      0.000   0.000   0.000
    5  5 2px        1.05677   0.00000      0.000   0.000   0.000
    5  6 2py        0.20605   0.00000      0.000  -0.000   0.000
    5  7 2pz        0.01379   0.00000     -0.000  -0.000   0.000
    5  8 2px        0.20519   0.00000      0.000  -0.000  -0.000
    5  9 3Pdxy      0.00389   0.00000     -0.000  -0.000  -0.000
    5 10 3Pdyz      0.00242   0.00000     -0.000  -0.000  -0.000
    5 11 3Pdz2      0.00141   0.00000      0.000  -0.000  -0.000
    5 12 3Pdxz      0.00673   0.00000     -0.000  -0.000  -0.000
    5 13 3Pdx2-y2   0.00551   0.00000      0.000   0.000  -0.000
    5     Total     5.52849   0.00000      0.000   0.000   0.000

    6  1 2s         1.26403   0.00000     -0.000  -0.000  -0.000
    6  2 2s         0.18204   0.00000      0.000   0.000   0.000
    6  3 2py        1.06951   0.00000     -0.000  -0.000  -0.000
    6  4 2pz        1.51861   0.00000      0.000  -0.000   0.000
    6  5 2px        0.97130   0.00000     -0.000   0.000  -0.000
    6  6 2py        0.19533   0.00000      0.000   0.000   0.000
    6  7 2pz        0.03454   0.00000     -0.000   0.000   0.000
    6  8 2px        0.25820   0.00000      0.000  -0.000   0.000
    6  9 3Pdxy      0.00236   0.00000     -0.000  -0.000  -0.000
    6 10 3Pdyz      0.00001   0.00000      0.000  -0.000  -0.000
    6 11 3Pdz2      0.00161   0.00000      0.000   0.000   0.000
    6 12 3Pdxz      0.00393   0.00000     -0.000   0.000  -0.000
    6 13 3Pdx2-y2   0.00431   0.00000      0.000  -0.000   0.000
    6     Total     5.50578   0.00000      0.000  -0.000   0.000

   21  1 2s         1.41176   0.00000      0.000  -0.000   0.000
   21  2 2s         0.12983   0.00000     -0.000   0.000   0.000
   21  3 2py        0.89176   0.00000      0.000  -0.000   0.000
   21  4 2pz        1.32212   0.00000     -0.000   0.000   0.000
   21  5 2px        1.15434   0.00000     -0.000   0.000   0.000
   21  6 2py        0.27225   0.00000     -0.000   0.000   0.000
   21  7 2pz        0.04323   0.00000      0.000  -0.000   0.000
   21  8 2px        0.16348   0.00000      0.000  -0.000  -0.000
   21  9 3Pdxy      0.00609   0.00000     -0.000  -0.000  -0.000
   21 10 3Pdyz      0.00456   0.00000     -0.000  -0.000  -0.000
   21 11 3Pdz2     -0.00014   0.00000      0.000   0.000   0.000
   21 12 3Pdxz      0.00575   0.00000     -0.000  -0.000   0.000
   21 13 3Pdx2-y2   0.00596   0.00000      0.000   0.000   0.000
   21     Total     5.41098   0.00000      0.000   0.000   0.000

   22  1 2s         1.28634   0.00000      0.000  -0.000   0.000
   22  2 2s         0.17328   0.00000     -0.000   0.000  -0.000
   22  3 2py        1.06715   0.00000      0.000  -0.000   0.000
   22  4 2pz        1.48040   0.00000      0.000  -0.000  -0.000
   22  5 2px        1.00970   0.00000      0.000  -0.000  -0.000
   22  6 2py        0.19792   0.00000     -0.000   0.000   0.000
   22  7 2pz        0.03398   0.00000     -0.000  -0.000   0.000
   22  8 2px        0.23586   0.00000     -0.000   0.000   0.000
   22  9 3Pdxy      0.00351   0.00000     -0.000   0.000  -0.000
   22 10 3Pdyz      0.00008   0.00000     -0.000  -0.000  -0.000
   22 11 3Pdz2      0.00229   0.00000     -0.000   0.000  -0.000
   22 12 3Pdxz      0.00413   0.00000     -0.000  -0.000   0.000
   22 13 3Pdx2-y2   0.00466   0.00000      0.000   0.000   0.000
   22     Total     5.49930   0.00000      0.000  -0.000   0.000

   23  1 2s         1.36892   0.00000      0.000   0.000   0.000
   23  2 2s         0.13127   0.00000     -0.000   0.000  -0.000
   23  3 2py        1.00932   0.00000     -0.000   0.000  -0.000
   23  4 2pz        1.53439   0.00000     -0.000   0.000   0.000
   23  5 2px        1.04913   0.00000     -0.000  -0.000   0.000
   23  6 2py        0.21675   0.00000     -0.000  -0.000   0.000
   23  7 2pz        0.00447   0.00000      0.000  -0.000   0.000
   23  8 2px        0.20470   0.00000      0.000   0.000  -0.000
   23  9 3Pdxy      0.00518   0.00000      0.000   0.000  -0.000
   23 10 3Pdyz      0.00459   0.00000      0.000   0.000   0.000
   23 11 3Pdz2      0.00066   0.00000      0.000   0.000  -0.000
   23 12 3Pdxz      0.00243   0.00000      0.000  -0.000   0.000
   23 13 3Pdx2-y2   0.00148   0.00000     -0.000  -0.000  -0.000
   23     Total     5.53330   0.00000     -0.000   0.000   0.000

----------------------------------------------------------------
Total              56.74332   0.00000      0.000   0.000   0.000


Species: Si                  

Atom      Orb        Charge      Spin       Svec
----------------------------------------------------------------
    7  1 3s         0.64065   0.00000      0.000  -0.000  -0.000
    7  2 3s         0.37668   0.00000     -0.000  -0.000  -0.000
    7  3 3py        0.46757   0.00000      0.000   0.000  -0.000
    7  4 3pz        0.68400   0.00000      0.000   0.000  -0.000
    7  5 3px        0.10753   0.00000     -0.000   0.000  -0.000
    7  6 3py        0.28183   0.00000     -0.000  -0.000  -0.000
    7  7 3pz        0.26677   0.00000     -0.000   0.000  -0.000
    7  8 3px        0.45267   0.00000     -0.000  -0.000  -0.000
    7  9 3Pdxy      0.25222   0.00000     -0.000  -0.000  -0.000
    7 10 3Pdyz      0.02876   0.00000     -0.000   0.000   0.000
    7 11 3Pdz2      0.01060   0.00000      0.000  -0.000   0.000
    7 12 3Pdxz      0.15263   0.00000      0.000  -0.000   0.000
    7 13 3Pdx2-y2   0.11139   0.00000      0.000   0.000   0.000
    7     Total     3.83329   0.00000     -0.000   0.000  -0.000

    8  1 3s         0.65367   0.00000     -0.000  -0.000   0.000
    8  2 3s         0.36976   0.00000     -0.000   0.000  -0.000
    8  3 3py        0.39619   0.00000     -0.000   0.000  -0.000
    8  4 3pz        0.50392   0.00000      0.000  -0.000   0.000
    8  5 3px       -0.01985   0.00000      0.000  -0.000   0.000
    8  6 3py        0.30525   0.00000      0.000  -0.000   0.000
    8  7 3pz        0.20624   0.00000     -0.000   0.000   0.000
    8  8 3px        0.51217   0.00000     -0.000   0.000  -0.000
    8  9 3Pdxy      0.24889   0.00000      0.000   0.000  -0.000
    8 10 3Pdyz      0.11208   0.00000     -0.000   0.000   0.000
    8 11 3Pdz2      0.01406   0.00000     -0.000  -0.000   0.000
    8 12 3Pdxz      0.15704   0.00000     -0.000   0.000  -0.000
    8 13 3Pdx2-y2   0.20198   0.00000      0.000  -0.000  -0.000
    8     Total     3.66138   0.00000     -0.000  -0.000   0.000

    9  1 3s         0.58025   0.00000     -0.000   0.000   0.000
    9  2 3s         0.37761   0.00000      0.000  -0.000  -0.000
    9  3 3py        0.10227   0.00000      0.000  -0.000   0.000
    9  4 3pz        0.46781   0.00000      0.000   0.000   0.000
    9  5 3px        0.34713   0.00000     -0.000  -0.000   0.000
    9  6 3py        0.41450   0.00000     -0.000   0.000   0.000
    9  7 3pz        0.19504   0.00000     -0.000  -0.000   0.000
    9  8 3px        0.29235   0.00000      0.000   0.000   0.000
    9  9 3Pdxy      0.29326   0.00000      0.000   0.000   0.000
    9 10 3Pdyz      0.19159   0.00000      0.000   0.000   0.000
    9 11 3Pdz2      0.01127   0.00000     -0.000  -0.000   0.000
    9 12 3Pdxz      0.10687   0.00000     -0.000   0.000   0.000
    9 13 3Pdx2-y2   0.17737   0.00000     -0.000   0.000  -0.000
    9     Total     3.55730   0.00000     -0.000  -0.000   0.000

   10  1 3s         0.48341   0.00000     -0.000  -0.000  -0.000
   10  2 3s         0.37662   0.00000     -0.000   0.000   0.000
   10  3 3py        0.24529   0.00000     -0.000  -0.000  -0.000
   10  4 3pz        0.41754   0.00000     -0.000  -0.000  -0.000
   10  5 3px        0.09306   0.00000     -0.000  -0.000  -0.000
   10  6 3py        0.31848   0.00000      0.000   0.000  -0.000
   10  7 3pz        0.21834   0.00000      0.000   0.000  -0.000
   10  8 3px        0.44639   0.00000      0.000   0.000   0.000
   10  9 3Pdxy      0.17594   0.00000     -0.000  -0.000  -0.000
   10 10 3Pdyz      0.13076   0.00000     -0.000  -0.000  -0.000
   10 11 3Pdz2      0.00920   0.00000      0.000  -0.000   0.000
   10 12 3Pdxz      0.18439   0.00000     -0.000  -0.000  -0.000
   10 13 3Pdx2-y2   0.30709   0.00000     -0.000  -0.000  -0.000
   10     Total     3.40650   0.00000     -0.000  -0.000  -0.000

   11  1 3s         0.55101   0.00000      0.000   0.000  -0.000
   11  2 3s         0.38657   0.00000     -0.000  -0.000  -0.000
   11  3 3py        0.31017   0.00000     -0.000   0.000  -0.000
   11  4 3pz        0.53079   0.00000      0.000  -0.000  -0.000
   11  5 3px        0.13138   0.00000      0.000   0.000  -0.000
   11  6 3py        0.29934   0.00000     -0.000  -0.000   0.000
   11  7 3pz        0.17960   0.00000      0.000  -0.000  -0.000
   11  8 3px        0.44259   0.00000     -0.000  -0.000   0.000
   11  9 3Pdxy      0.23585   0.00000      0.000  -0.000  -0.000
   11 10 3Pdyz      0.12943   0.00000     -0.000  -0.000  -0.000
   11 11 3Pdz2      0.00996   0.00000      0.000   0.000   0.000
   11 12 3Pdxz      0.05438   0.00000      0.000   0.000  -0.000
   11 13 3Pdx2-y2   0.19805   0.00000     -0.000   0.000  -0.000
   11     Total     3.45913   0.00000      0.000  -0.000  -0.000

   17  1 3s         0.64327   0.00000      0.000  -0.000  -0.000
   17  2 3s         0.35647   0.00000     -0.000   0.000   0.000
   17  3 3py        0.23821   0.00000      0.000   0.000  -0.000
   17  4 3pz        0.42458   0.00000      0.000  -0.000  -0.000
   17  5 3px        0.22663   0.00000      0.000   0.000  -0.000
   17  6 3py        0.36174   0.00000     -0.000   0.000  -0.000
   17  7 3pz        0.21457   0.00000     -0.000   0.000  -0.000
   17  8 3px        0.38923   0.00000     -0.000   0.000  -0.000
   17  9 3Pdxy      0.28119   0.00000     -0.000  -0.000  -0.000
   17 10 3Pdyz      0.13185   0.00000      0.000  -0.000  -0.000
   17 11 3Pdz2      0.00786   0.00000      0.000   0.000   0.000
   17 12 3Pdxz      0.15093   0.00000     -0.000   0.000  -0.000
   17 13 3Pdx2-y2   0.17672   0.00000     -0.000   0.000  -0.000
   17     Total     3.60324   0.00000      0.000   0.000  -0.000

   18  1 3s         0.75329   0.00000     -0.000  -0.000  -0.000
   18  2 3s         0.33865   0.00000      0.000   0.000   0.000
   18  3 3py        0.08615   0.00000      0.000   0.000  -0.000
   18  4 3pz        0.80663   0.00000     -0.000  -0.000  -0.000
   18  5 3px        0.53475   0.00000     -0.000   0.000  -0.000
   18  6 3py        0.51443   0.00000     -0.000  -0.000  -0.000
   18  7 3pz        0.19709   0.00000     -0.000   0.000  -0.000
   18  8 3px        0.26355   0.00000      0.000  -0.000  -0.000
   18  9 3Pdxy      0.10675   0.00000      0.000   0.000   0.000
   18 10 3Pdyz      0.02640   0.00000      0.000   0.000   0.000
   18 11 3Pdz2      0.00901   0.00000     -0.000  -0.000   0.000
   18 12 3Pdxz      0.03223   0.00000     -0.000   0.000   0.000
   18 13 3Pdx2-y2   0.10501   0.00000     -0.000   0.000  -0.000
   18     Total     3.77394   0.00000     -0.000   0.000  -0.000

   19  1 3s         0.45190   0.00000      0.000  -0.000  -0.000
   19  2 3s         0.36563   0.00000     -0.000   0.000  -0.000
   19  3 3py        0.08582   0.00000     -0.000  -0.000  -0.000
   19  4 3pz        0.40472   0.00000      0.000  -0.000  -0.000
   19  5 3px        0.27584   0.00000      0.000   0.000   0.000
   19  6 3py        0.45057   0.00000     -0.000   0.000   0.000
   19  7 3pz        0.19337   0.00000     -0.000   0.000  -0.000
   19  8 3px        0.29087   0.00000     -0.000  -0.000  -0.000
   19  9 3Pdxy      0.32207   0.00000      0.000   0.000  -0.000
   19 10 3Pdyz      0.18488   0.00000      0.000  -0.000  -0.000
   19 11 3Pdz2      0.01168   0.00000     -0.000  -0.000  -0.000
   19 12 3Pdxz      0.10113   0.00000      0.000  -0.000  -0.000
   19 13 3Pdx2-y2   0.24669   0.00000     -0.000   0.000  -0.000
   19     Total     3.38519   0.00000     -0.000  -0.000  -0.000

   20  1 3s         0.67952   0.00000     -0.000  -0.000   0.000
   20  2 3s         0.37641   0.00000      0.000   0.000   0.000
   20  3 3py        0.33724   0.00000      0.000  -0.000   0.000
   20  4 3pz        0.60804   0.00000      0.000  -0.000   0.000
   20  5 3px        0.13700   0.00000      0.000   0.000   0.000
   20  6 3py        0.28297   0.00000     -0.000  -0.000  -0.000
   20  7 3pz        0.16106   0.00000     -0.000   0.000   0.000
   20  8 3px        0.50313   0.00000     -0.000  -0.000  -0.000
   20  9 3Pdxy      0.09918   0.00000     -0.000  -0.000  -0.000
   20 10 3Pdyz      0.12952   0.00000     -0.000   0.000   0.000
   20 11 3Pdz2      0.00720   0.00000     -0.000  -0.000  -0.000
   20 12 3Pdxz      0.02703   0.00000      0.000  -0.000  -0.000
   20 13 3Pdx2-y2   0.17441   0.00000      0.000  -0.000  -0.000
   20     Total     3.52273   0.00000      0.000  -0.000   0.000

----------------------------------------------------------------
Total              88.94601   0.00000     -0.000   0.000  -0.000


Species: H                   

Atom      Orb        Charge      Spin       Svec
----------------------------------------------------------------
   12  1 1s         0.47701   0.00000      0.000   0.000  -0.000
   12  2 1s         0.18237   0.00000      0.000  -0.000   0.000
   12  3 2Ppy       0.03942   0.00000     -0.000  -0.000   0.000
   12  4 2Ppz       0.03084   0.00000     -0.000  -0.000  -0.000
   12  5 2Ppx       0.04311   0.00000      0.000   0.000  -0.000
   12     Total     0.77276   0.00000      0.000  -0.000  -0.000

   13  1 1s         1.01848   0.00000     -0.000  -0.000   0.000
   13  2 1s         0.09728   0.00000      0.000   0.000  -0.000
   13  3 2Ppy       0.01915   0.00000      0.000  -0.000   0.000
   13  4 2Ppz       0.02019   0.00000     -0.000   0.000  -0.000
   13  5 2Ppx       0.03328   0.00000     -0.000  -0.000   0.000
   13     Total     1.18839   0.00000     -0.000  -0.000   0.000

   14  1 1s         0.48663   0.00000      0.000  -0.000  -0.000
   14  2 1s         0.19636   0.00000     -0.000   0.000  -0.000
   14  3 2Ppy       0.01978   0.00000     -0.000   0.000   0.000
   14  4 2Ppz       0.04841   0.00000      0.000   0.000   0.000
   14  5 2Ppx       0.02091   0.00000     -0.000  -0.000  -0.000
   14     Total     0.77209   0.00000      0.000  -0.000  -0.000

   15  1 1s         0.44758   0.00000      0.000  -0.000   0.000
   15  2 1s         0.17731   0.00000     -0.000   0.000  -0.000
   15  3 2Ppy       0.04363   0.00000      0.000  -0.000   0.000
   15  4 2Ppz       0.04339   0.00000     -0.000   0.000  -0.000
   15  5 2Ppx       0.07812   0.00000      0.000   0.000  -0.000
   15     Total     0.79003   0.00000      0.000   0.000   0.000

   16  1 1s         0.50464   0.00000      0.000  -0.000  -0.000
   16  2 1s         0.19066   0.00000     -0.000   0.000  -0.000
   16  3 2Ppy       0.02900   0.00000     -0.000  -0.000  -0.000
   16  4 2Ppz       0.03958   0.00000     -0.000  -0.000  -0.000
   16  5 2Ppx       0.02423   0.00000      0.000  -0.000  -0.000
   16     Total     0.78811   0.00000     -0.000  -0.000  -0.000

   24  1 1s         1.05802   0.00000      0.000  -0.000   0.000
   24  2 1s         0.07604   0.00000      0.000   0.000   0.000
   24  3 2Ppy       0.03066   0.00000     -0.000  -0.000  -0.000
   24  4 2Ppz       0.03027   0.00000      0.000  -0.000  -0.000
   24  5 2Ppx       0.01786   0.00000      0.000  -0.000   0.000
   24     Total     1.21284   0.00000      0.000  -0.000   0.000

   25  1 1s         1.04575   0.00000     -0.000   0.000  -0.000
   25  2 1s         0.08509   0.00000      0.000  -0.000   0.000
   25  3 2Ppy       0.01142   0.00000      0.000  -0.000  -0.000
   25  4 2Ppz       0.01895   0.00000     -0.000   0.000   0.000
   25  5 2Ppx       0.03591   0.00000      0.000   0.000   0.000
   25     Total     1.19711   0.00000     -0.000   0.000   0.000

   26  1 1s         0.49221   0.00000      0.000   0.000  -0.000
   26  2 1s         0.19469   0.00000      0.000  -0.000  -0.000
   26  3 2Ppy       0.02225   0.00000      0.000   0.000  -0.000
   26  4 2Ppz       0.04881   0.00000      0.000  -0.000  -0.000
   26  5 2Ppx       0.02018   0.00000     -0.000  -0.000  -0.000
   26     Total     0.77813   0.00000      0.000   0.000  -0.000

   27  1 1s         0.44193   0.00000      0.000   0.000   0.000
   27  2 1s         0.17240   0.00000     -0.000  -0.000  -0.000
   27  3 2Ppy       0.05267   0.00000     -0.000  -0.000  -0.000
   27  4 2Ppz       0.04092   0.00000     -0.000   0.000  -0.000
   27  5 2Ppx       0.08306   0.00000      0.000  -0.000  -0.000
   27     Total     0.79100   0.00000      0.000   0.000   0.000

   29  1 1s         0.48886   0.00000      0.000   0.000  -0.000
   29  2 1s         0.18822   0.00000      0.000  -0.000   0.000
   29  3 2Ppy       0.02468   0.00000      0.000  -0.000   0.000
   29  4 2Ppz       0.03480   0.00000     -0.000  -0.000  -0.000
   29  5 2Ppx       0.02698   0.00000      0.000  -0.000  -0.000
   29     Total     0.76354   0.00000      0.000  -0.000  -0.000

----------------------------------------------------------------
Total              98.00000   0.00000      0.000   0.000   0.000


siesta: Eigenvalues (eV):
ik =     1
  -22.7245  -22.7245  -22.3000  -22.3000  -21.4084  -21.4084  -21.2747  -21.2747  -21.0141  -21.0141
  -20.8045  -20.8045  -20.3192  -20.3192  -19.6273  -19.6273  -19.5310  -19.5310  -19.4104  -19.4104
  -14.7660  -14.7660  -13.8319  -13.8319  -13.2823  -13.2823  -13.1088  -13.1088  -12.9318  -12.9318
  -12.6648  -12.6648  -12.5841  -12.5841  -12.1367  -12.1367  -11.8495  -11.8495  -11.7084  -11.7084
  -11.0558  -11.0558  -10.8284  -10.8284  -10.5924  -10.5924  -10.4032  -10.4032  -10.1722  -10.1722
   -9.6618   -9.6618   -9.1013   -9.1013   -8.9409   -8.9409   -8.8146   -8.8146   -8.6557   -8.6557
   -8.5351   -8.5351   -8.4299   -8.4299   -8.3332   -8.3332   -7.9905   -7.9905   -7.8392   -7.8392
   -7.6139   -7.6139   -7.3881   -7.3881   -7.2274   -7.2274   -7.0987   -7.0987   -6.9031   -6.9031
   -6.6234   -6.6234   -6.6199   -6.6199   -6.3920   -6.3920   -6.3344   -6.3344   -6.3038   -6.3038
   -6.1126   -6.1126   -5.9665   -5.9665   -5.5502   -5.5502   -4.3125   -4.3125   -3.2572   -3.2572
   -2.3360   -2.3360   -2.2739   -2.2739   -2.1720   -2.1720   -1.8931   -1.8931   -1.8561   -1.8561
   -1.8071   -1.8071   -1.6558   -1.6558   -1.6086   -1.6086   -1.1460   -1.1460   -1.1218   -1.1218
   -0.9023   -0.9023   -0.4950   -0.4950   -0.4181   -0.4181   -0.3076   -0.3076    0.3866    0.3866
    0.5113    0.5113    0.5480    0.5480    0.7066    0.7066    1.0627    1.0627    1.1677    1.1677
    1.3417    1.3417    1.4019    1.4019    1.4729    1.4729    1.6079    1.6079    1.9912    1.9912
    2.0348    2.0348    2.6771    2.6771    2.7323    2.7323    2.7545    2.7545    2.8915    2.8915
    2.9073    2.9073    2.9976    2.9976    3.1706    3.1706    3.4604    3.4604    3.6104    3.6104
    3.8180    3.8180    4.0721    4.0721    4.1828    4.1828    4.2528    4.2528    4.5051    4.5051
    4.6357    4.6357    4.7479    4.7479    4.7758    4.7758    4.9948    4.9948    5.2944    5.2944
    5.3084    5.3084    5.4656    5.4656    5.7371    5.7371    5.8202    5.8202    5.9347    5.9347
    6.0168    6.0168    6.3184    6.3184    6.4165    6.4165    6.5171    6.5171    6.6168    6.6168
    6.7180    6.7180    6.8261    6.8261    6.9842    6.9842    7.1248    7.1248    7.1373    7.1373
    7.2400    7.2400    7.7143    7.7143    7.7450    7.7450    7.8937    7.8937    8.0469    8.0469
    8.1129    8.1129    8.4218    8.4218    8.5163    8.5163    8.5200    8.5200    8.6508    8.6508
    8.8041    8.8041    8.8558    8.8558    9.0933    9.0933    9.1016    9.1016    9.4766    9.4766
    9.5436    9.5436    9.8188    9.8188    9.9891    9.9891   10.0002   10.0002   10.2168   10.2168
   10.2280   10.2280   10.6132   10.6132   10.8884   10.8884   11.2425   11.2425   11.3701   11.3701
   11.3751   11.3751   11.4990   11.4990   12.2711   12.2711   12.3645   12.3645   12.4061   12.4061
   12.5125   12.5125   12.6519   12.6519   12.7423   12.7423   13.0494   13.0494   13.1771   13.1771
   13.6157   13.6157   13.7291   13.7291   13.7397   13.7397   14.0071   14.0071   14.0666   14.0666
   14.3138   14.3138   14.5050   14.5050   15.0078   15.0078   15.1619   15.1619   15.1973   15.1973
   15.5811   15.5811   16.3306   16.3306   16.7525   16.7525   16.7786   16.7786   17.1639   17.1639
   17.2685   17.2685   17.7292   17.7292   18.2298   18.2298   18.7845   18.7845   19.0568   19.0568
   19.4990   19.4990   19.9075   19.9075   20.2269   20.2269   20.6755   20.6755   20.7912   20.7912
   21.3044   21.3044   21.9093   21.9093   22.4347   22.4347   22.9927   22.9927   23.1970   23.1970
   23.8204   23.8204   24.0115   24.0115   24.2040   24.2040   24.5154   24.5154   25.1811   25.1811
   25.8035   25.8035   26.1726   26.1726   26.7231   26.7231   27.8008   27.8008   28.9203   28.9203
   29.2941   29.2941   29.4886   29.4886   30.1465   30.1465   30.3109   30.3109   30.6841   30.6841
   30.9381   30.9381   30.9691   30.9691   31.2900   31.2900   31.5130   31.5130   31.6557   31.6557
   32.2068   32.2068   33.3842   33.3842   33.8026   33.8026   34.0957   34.0957   34.1542   34.1542
   35.3241   35.3241   35.5145   35.5145   35.7215   35.7215   36.0609   36.0609   36.3919   36.3919
   36.6490   36.6490   37.0157   37.0157   37.1171   37.1171   37.2568   37.2568   38.5501   38.5501
   38.8013   38.8013   39.1787   39.1787   39.4872   39.4872   39.7524   39.7524   40.3598   40.3598
   40.5126   40.5126   40.7855   40.7855   41.4177   41.4177   41.5222   41.5222   41.6909   41.6909
   42.0796   42.0796   42.4710   42.4710   42.6187   42.6187   43.3631   43.3631   43.5997   43.5997
   43.7937   43.7937   44.0376   44.0376   44.2009   44.2009   44.4604   44.4604   44.8609   44.8609
   45.1371   45.1371   45.3293   45.3293   45.5590   45.5590   46.0150   46.0150   46.3171   46.3171
   46.6317   46.6317   47.5041   47.5041   47.8513   47.8513   48.1994   48.1994   49.2830   49.2830
   49.8478   49.8478   50.1965   50.1965   50.5366   50.5366   50.5420   50.5420   50.8027   50.8027
   51.4183   51.4183   51.8242   51.8242   52.4863   52.4863   52.4935   52.4935   54.1525   54.1525
   54.1901   54.1901   54.4811   54.4811   55.4225   55.4225   55.8111   55.8111   56.2741   56.2741
   56.4779   56.4779   56.9924   56.9924   58.2305   58.2305   58.5389   58.5389   58.6001   58.6001
   60.1001   60.1001   60.4944   60.4944   60.5224   60.5224   61.4116   61.4116   61.5637   61.5637
   62.4149   62.4149   62.6150   62.6150   63.0714   63.0714   63.4151   63.4151   66.1662   66.1662
   67.0851   67.0851   68.3350   68.3350   68.5856   68.5856   69.3697   69.3697   69.7545   69.7545
   70.5833   70.5833   70.8949   70.8949   71.5597   71.5597   75.6997   75.6997   86.8356   86.8356
   87.4903   87.4903   89.2990   89.2990   94.5371   94.5371   94.8349   94.8349   95.4805   95.4805
   99.8119   99.8119  101.4159  101.4159  102.6964  102.6964  104.4235  104.4235  105.7362  105.7362
  115.1932  115.1932  117.0377  117.0377  125.7759  125.7759  128.0339  128.0339  138.4233  138.4233
  144.6016  144.6016  146.5728  146.5728
siesta: Fermi energy =      -3.784618 eV

siesta: Program's energy decomposition (eV):
siesta: Ebs     =     -1134.157386
siesta: Eions   =      3585.165840
siesta: Ena     =       382.826634
siesta: Ekin    =      2912.569949
siesta: Enl     =     -2797.069577
siesta: Eso     =        -0.004337
siesta: Edftu   =         0.000000
siesta: DEna    =        47.985025
siesta: DUscf   =        13.799607
siesta: DUext   =         0.000000
siesta: Exc     =     -1122.944759
siesta: eta*DQ  =         0.000000
siesta: Emadel  =         0.000000
siesta: Emeta   =         0.000000
siesta: Emolmec =         0.000000
siesta: Ekinion =         0.000000
siesta: Eharris =     -4148.003298
siesta: Etot    =     -4148.003298
siesta: FreeEng =     -4148.003298

siesta: Final energy (eV):
siesta:  Band Struct. =   -1134.157386
siesta:       Kinetic =    2912.569949
siesta:       Hartree =    9031.727786
siesta:       Edftu   =       0.000000
siesta:       Eso     =      -0.004337
siesta:    Ext. field =       0.000000
siesta:   Exch.-corr. =   -1122.944759
siesta:  Ion-electron =  -20652.282442
siesta:       Ion-ion =    5682.930505
siesta:       Ekinion =       0.000000
siesta:         Total =   -4148.003298
siesta:         Fermi =      -3.784618

siesta: Atomic forces (eV/Ang):
siesta:      1   -0.470920    0.485048   -0.000000
siesta:      2   -0.006972    0.007301   -0.000000
siesta:      3    0.055405   -0.008538   -0.000000
siesta:      4    0.048907   -0.001606   -0.000000
siesta:      5    0.004826   -0.008905    0.000000
siesta:      6    0.195691    0.118214    0.000000
siesta:      7    0.001106   -0.015400   -0.000000
siesta:      8   -0.025433    0.018188    0.000000
siesta:      9    0.003263    0.083192   -0.000000
siesta:     10   -0.056049    0.033469    0.000000
siesta:     11   -0.000814   -0.001928   -0.000000
siesta:     12   -0.004958    0.048064    0.000000
siesta:     13   -0.035106   -0.015445    0.000000
siesta:     14   -0.097870   -0.130410   -0.000000
siesta:     15   -0.258476    0.017814    0.000000
siesta:     16    0.112675   -0.140226   -0.000000
siesta:     17    0.057297   -0.080557   -0.000000
siesta:     18   -0.013749    0.010134   -0.000000
siesta:     19   -0.026214   -0.071548    0.000000
siesta:     20   -0.007951   -0.025979   -0.000000
siesta:     21   -0.022674    0.063831    0.000000
siesta:     22   -0.298615   -0.161938    0.000000
siesta:     23   -0.007176    0.005696    0.000000
siesta:     24   -0.008264    0.074204   -0.000000
siesta:     25    0.018510   -0.020984   -0.000000
siesta:     26    0.042959    0.096112    0.000000
siesta:     27    0.142661   -0.023570   -0.000000
siesta:     28    3.803443   -1.774577   -0.000000
siesta:     29    0.011412    0.003553    0.000000
siesta: ----------------------------------------
siesta:    Tot    3.156916   -1.416792    0.000000

siesta: Stress tensor (static) (eV/Ang**3):
siesta:    -0.000163    0.000040   -0.000000
siesta:     0.000040   -0.000400   -0.000000
siesta:     0.000000   -0.000000   -0.000069

siesta: Cell volume =       4419.743180 Ang**3

siesta: Pressure (static):
siesta:                Solid            Molecule  Units
siesta:           0.00000229         -0.00001099  Ry/Bohr**3
siesta:           0.00021056         -0.00100879  eV/Ang**3
siesta:           0.33735846         -1.61627977  kBar
(Free)E+ p_basis*V_orbitals  =       -4128.152880
(Free)Eharris+ p_basis*V_orbitals  =       -4128.152880
     spin moment: S , {S} =    0.00000   0.00000   0.00000   0.00000

siesta: Electric dipole (a.u.)  =    1.650285    0.169870    0.000000
siesta: Electric dipole (Debye) =    4.194609    0.431766    0.000000

cite: Please see "GC.bib" for an exhaustive BiBTeX file.
cite: Please clearly indicate Siesta version in published work: v4.1.5-1-g384057250
cite: This calculation has made use of the following articles
cite: which are encouraged to be cited in a published work.
        Primary SIESTA paper
          DOI: www.doi.org/10.1088/0953-8984/14/11/302
        Spin-orbit coupling (on-site approximation)
          DOI: www.doi.org/10.1088/0953-8984/19/19/489001


WARNING: alloc-realloc-dealloc name mismatch
         Name: atomlist isa
         Size:              -116. Bytes
         Node:     0
         Subsequent mismatches will not be reported
>> End of run:   4-JUL-2023  10:44:31
Job completed
