Siesta Version  : v4.1.5-1-g384057250
Architecture    : gcc
Compiler version: GNU Fortran (Ubuntu 11.3.0-1ubuntu1~22.04) 11.3.0
Compiler flags  : mpifort -O2 -fPIC -ftree-vectorize -fallow-argument-mismatch
PP flags        : -DFC_HAVE_ABORT -DMPI -DSIESTA__FLOOK -DSIESTA__METIS -DSIESTA__MUMPS -DCDF -DNCDF -DNCDF_4 -DNCDF_PARALLEL -DSIESTA__MRRR -DSIESTA__ELPA
Libraries       : libncdf.a libfdict.a  -lflookall -ldl -lnetcdff -lnetcdf -lhdf5_hl -lhdf5 -lhdf5_fortran -lz -lscalapack-openmpi -lopenblas -lmetis -lzmumps -lcmumps -ldmumps -lmumps_common -lpord -lsmumps -lesmumps -lscotch -lscotcherr -fopenmp -lelpa
PARALLEL version
NetCDF support
NetCDF-4 support
NetCDF-4 MPI-IO support
METIS ordering support
Lua support

* Running on 4 nodes in parallel
>> Start of run:  22-MAY-2023  19:51:35

                           ***********************       
                           *  WELCOME TO SIESTA  *       
                           ***********************       

reinit: Reading from standard input
reinit: Dumped input in INPUT_TMP.20061
************************** Dump of input data file ****************************
SystemLabel      GC
NumberOfAtoms    29
NumberOfSpecies  4
%block ChemicalSpeciesLabel
    1    8  O
    2    7  N
    3   14  Si
    4    1  H
%endblock ChemicalSpeciesLabel
# Single point calculation
MD.TypeOfRun                CG
MD.Steps                    0
SCF.MustConverge            F # In case it does not. There can be 2 very close atoms
AtomicCoordinatesFormat NotScaledCartesianAng
%block AtomicCoordinatesAndAtomicSpecies
0.854927710    3.902811360    0.000000000       1
-3.151486600   0.823854130    0.000000000       2
1.928518680    1.174000900    0.000000000       2
0.979899500    -1.830275890   0.000000000       2
-2.159258930   -2.028004800   0.000000000       2
3.785319770    -1.112700660   0.000000000       2
-1.345933810   0.976250250    0.000000000       3
-0.599439880   -1.096077170   0.000000000       3
0.453182890    2.350510230    0.000000000       3
2.133302030    -0.576510800   0.000000000       3
-3.516065660   -0.842056510   0.000000000       3
2.824527830    1.754723110    0.000000000       4
-4.877551690   -1.469214660   0.000000000       4
3.994952020    -2.143204000   0.000000000       4
4.620903610    -0.483666060   0.000000000       4
-2.279085180   -3.081514090   0.000000000       4
7.836223381    7.190039479    -0.000000000      3
9.705182871    8.449683109    -0.000000000      3
9.246250491    4.448301259    -0.000000000      3
11.313843211   6.954892479    -0.000000000      3
7.895753331    5.505087019    -0.000000000      2
6.206224181    7.820099709    -0.000000000      2
10.890139361   5.239391669    -0.000000000      2
9.985546571    9.919905629    -0.000000000      4
12.809254591   7.173745019    -0.000000000      4
5.961765191    8.838565659    -0.000000000      4
5.379483001    7.163251579    -0.000000000      4
9.305526251    2.865859229    -0.000000000      1
11.661794951   4.512424309    -0.000000000      4
%endblock AtomicCoordinatesAndAtomicSpecies
%include ../../../Defaults.fdf
************************** End of input data file *****************************

reinit: -----------------------------------------------------------------------
reinit: System Name: 
reinit: -----------------------------------------------------------------------
reinit: System Label: GC
reinit: -----------------------------------------------------------------------

initatom: Reading input for the pseudopotentials and atomic orbitals ----------
Species number:   1 Atomic number:    8 Label: O
Species number:   2 Atomic number:    7 Label: N
Species number:   3 Atomic number:   14 Label: Si
Species number:   4 Atomic number:    1 Label: H

Ground state valence configuration:   2s02  2p04
Reading pseudopotential information in formatted form from O.psf

Pseudopotential generated from a relativistic atomic calculation

Valence configuration for pseudopotential generation:
2s( 2.00) rc: 0.45
2p( 4.00) rc: 0.92
3d( 0.00) rc: 2.24
4f( 0.00) rc: 0.25
Ground state valence configuration:   2s02  2p03
Reading pseudopotential information in formatted form from N.psf

Pseudopotential generated from a relativistic atomic calculation

Valence configuration for pseudopotential generation:
2s( 2.00) rc: 0.94
2p( 3.00) rc: 0.59
3d( 0.00) rc: 3.46
4f( 0.00) rc: 2.47
Ground state valence configuration:   3s02  3p02
Reading pseudopotential information in formatted form from Si.psf

Pseudopotential generated from a relativistic atomic calculation

Valence configuration for pseudopotential generation:
3s( 2.00) rc: 1.67
3p( 2.00) rc: 2.04
3d( 0.00) rc: 2.89
4f( 0.00) rc: 2.49
Ground state valence configuration:   1s01
Reading pseudopotential information in formatted form from H.psf

Pseudopotential generated from a relativistic atomic calculation

Valence configuration for pseudopotential generation:
1s( 1.00) rc: 0.01
2p( 0.00) rc: 0.60
3d( 0.00) rc: 1.99
4f( 0.00) rc: 2.49
For O, standard SIESTA heuristics set lmxkb to 3
 (one more than the basis l, including polarization orbitals).
Use PS.lmax or PS.KBprojectors blocks to override.
For N, standard SIESTA heuristics set lmxkb to 3
 (one more than the basis l, including polarization orbitals).
Use PS.lmax or PS.KBprojectors blocks to override.
For Si, standard SIESTA heuristics set lmxkb to 3
 (one more than the basis l, including polarization orbitals).
Use PS.lmax or PS.KBprojectors blocks to override.
For H, standard SIESTA heuristics set lmxkb to 2
 (one more than the basis l, including polarization orbitals).
Use PS.lmax or PS.KBprojectors blocks to override.

<basis_specs>
===============================================================================
O                    Z=   8    Mass=  16.000        Charge= 0.17977+309
Lmxo=1 Lmxkb= 3    BasisType=split      Semic=F
L=0  Nsemic=0  Cnfigmx=2
          i=1  nzeta=2  polorb=0  (2s)
            splnorm:   0.28000    
               vcte:    0.0000    
               rinn:    0.0000    
               qcoe:    0.0000    
               qyuk:    0.0000    
               qwid:   0.10000E-01
                rcs:    0.0000      0.0000    
            lambdas:    1.0000      1.0000    
L=1  Nsemic=0  Cnfigmx=2
          i=1  nzeta=2  polorb=1  (2p)
            splnorm:   0.28000    
               vcte:    0.0000    
               rinn:    0.0000    
               qcoe:    0.0000    
               qyuk:    0.0000    
               qwid:   0.10000E-01
                rcs:    0.0000      0.0000    
            lambdas:    1.0000      1.0000    
-------------------------------------------------------------------------------
L=0  Nkbl=1  erefs: 0.17977+309
L=1  Nkbl=1  erefs: 0.17977+309
L=2  Nkbl=1  erefs: 0.17977+309
L=3  Nkbl=1  erefs: 0.17977+309
===============================================================================
</basis_specs>

atom: Called for O                     (Z =   8)

read_vps: Pseudopotential generation method:
read_vps: ATM4.2.7  Troullier-Martins                       
Valence charge for ps generation:    6.00000

xc_check: Exchange-correlation functional:
xc_check: GGA Perdew, Burke & Ernzerhof 1996
V l=0 = -2*Zval/r beyond r=  1.1000
V l=1 = -2*Zval/r beyond r=  1.1000
V l=2 = -2*Zval/r beyond r=  2.2154
V l=3 = -2*Zval/r beyond r=  1.1000
All V_l potentials equal beyond r=  2.2154
This should be close to max(r_c) in ps generation
All pots = -2*Zval/r beyond r=  2.2154

VLOCAL1: 99.0% of the norm of Vloc inside      8.845 Ry
VLOCAL1: 99.9% of the norm of Vloc inside     20.157 Ry
atom: Maximum radius for 4*pi*r*r*local-pseudopot. charge    2.67231
atom: Maximum radius for r*vlocal+2*Zval:    2.32897
GHOST: No ghost state for L =  0
GHOST: No ghost state for L =  1
GHOST: No ghost state for L =  2
GHOST: No ghost state for L =  3

KBgen: Kleinman-Bylander projectors: 
   l= 0   rc=  2.243238   el= -1.759686   Ekb=**********   kbcos= -0.171774
   l= 1   rc=  2.328968   el= -0.663873   Ekb=-14.506792   kbcos= -0.519897
   l= 2   rc=  2.573941   el=  0.002031   Ekb= -1.137373   kbcos= -0.019581
   l= 3   rc=  2.606321   el=  0.003153   Ekb= -1.013546   kbcos= -0.003122

KBgen: Total number of Kleinman-Bylander projectors:   16
atom: -------------------------------------------------------------------------

atom: SANKEY-TYPE ORBITALS:
atom: Selected multiple-zeta basis: split     

SPLIT: Orbitals with angular momentum L= 0

SPLIT: Basis orbitals for state 2s

SPLIT: PAO cut-off radius determined from an
SPLIT: energy shift=  0.002000 Ry

   izeta = 1
                 lambda =    1.000000
                     rc =    4.243912
                 energy =   -1.758270
                kinetic =    3.286084
    potential(screened) =   -5.044353
       potential(ionic) =  -12.921184

   izeta = 2
                 rmatch =    2.187845
              splitnorm =    0.280000
                 energy =   -0.885018
                kinetic =    8.134434
    potential(screened) =   -9.019452
       potential(ionic) =  -17.710645

SPLIT: Orbitals with angular momentum L= 1

SPLIT: Basis orbitals for state 2p

SPLIT: PAO cut-off radius determined from an
SPLIT: energy shift=  0.002000 Ry

   izeta = 1
                 lambda =    1.000000
                     rc =    5.314825
                 energy =   -0.661986
                kinetic =    4.917472
    potential(screened) =   -5.579458
       potential(ionic) =  -13.236259

   izeta = 2
                 rmatch =    2.160663
              splitnorm =    0.280000
                 energy =   -0.068760
                kinetic =    9.183374
    potential(screened) =   -9.252135
       potential(ionic) =  -18.274251

POLgen: Perturbative polarization orbital with L=  2

POLgen: Polarization orbital for state 2p

   izeta = 1
                     rc =    5.314825
                 energy =    1.970580
                kinetic =    3.886128
    potential(screened) =   -1.915547
       potential(ionic) =   -7.749584
atom: Total number of Sankey-type orbitals: 13

atm_pop: Valence configuration (for local Pseudopot. screening):
 2s( 2.00)                                                            
 2p( 4.00)                                                            
Vna: chval, zval:    6.00000   6.00000

Vna:  Cut-off radius for the neutral-atom potential:   5.314825

atom: _________________________________________________________________________

<basis_specs>
===============================================================================
N                    Z=   7    Mass=  14.010        Charge= 0.17977+309
Lmxo=1 Lmxkb= 3    BasisType=split      Semic=F
L=0  Nsemic=0  Cnfigmx=2
          i=1  nzeta=2  polorb=0  (2s)
            splnorm:   0.28000    
               vcte:    0.0000    
               rinn:    0.0000    
               qcoe:    0.0000    
               qyuk:    0.0000    
               qwid:   0.10000E-01
                rcs:    0.0000      0.0000    
            lambdas:    1.0000      1.0000    
L=1  Nsemic=0  Cnfigmx=2
          i=1  nzeta=2  polorb=1  (2p)
            splnorm:   0.28000    
               vcte:    0.0000    
               rinn:    0.0000    
               qcoe:    0.0000    
               qyuk:    0.0000    
               qwid:   0.10000E-01
                rcs:    0.0000      0.0000    
            lambdas:    1.0000      1.0000    
-------------------------------------------------------------------------------
L=0  Nkbl=1  erefs: 0.17977+309
L=1  Nkbl=1  erefs: 0.17977+309
L=2  Nkbl=1  erefs: 0.17977+309
L=3  Nkbl=1  erefs: 0.17977+309
===============================================================================
</basis_specs>

atom: Called for N                     (Z =   7)

read_vps: Pseudopotential generation method:
read_vps: ATM4.2.7  Troullier-Martins                       
Valence charge for ps generation:    5.00000

xc_check: Exchange-correlation functional:
xc_check: GGA Perdew, Burke & Ernzerhof 1996
V l=0 = -2*Zval/r beyond r=  1.2889
V l=1 = -2*Zval/r beyond r=  1.2889
V l=2 = -2*Zval/r beyond r=  3.4178
V l=3 = -2*Zval/r beyond r=  2.4084
All V_l potentials equal beyond r=  3.3753
This should be close to max(r_c) in ps generation
All pots = -2*Zval/r beyond r=  3.4178

VLOCAL1: 99.0% of the norm of Vloc inside      3.810 Ry
VLOCAL1: 99.9% of the norm of Vloc inside      8.683 Ry
atom: Maximum radius for 4*pi*r*r*local-pseudopot. charge    4.02088
atom: Maximum radius for r*vlocal+2*Zval:    3.54838
GHOST: No ghost state for L =  0
GHOST: No ghost state for L =  1
GHOST: No ghost state for L =  2
GHOST: No ghost state for L =  3

KBgen: Kleinman-Bylander projectors: 
   l= 0   rc=  3.417763   el= -1.365098   Ekb= -4.433130   kbcos= -0.707855
   l= 1   rc=  3.375302   el= -0.521201   Ekb=-13.264039   kbcos= -0.535594
   l= 2   rc=  3.872880   el=  0.001991   Ekb= -0.641094   kbcos= -0.062456
   l= 3   rc=  3.970931   el=  0.003093   Ekb= -0.474517   kbcos= -0.018236

KBgen: Total number of Kleinman-Bylander projectors:   16
atom: -------------------------------------------------------------------------

atom: SANKEY-TYPE ORBITALS:
atom: Selected multiple-zeta basis: split     

SPLIT: Orbitals with angular momentum L= 0

SPLIT: Basis orbitals for state 2s

SPLIT: PAO cut-off radius determined from an
SPLIT: energy shift=  0.002000 Ry

   izeta = 1
                 lambda =    1.000000
                     rc =    4.730425
                 energy =   -1.363399
                kinetic =    1.245246
    potential(screened) =   -2.608645
       potential(ionic) =   -8.121105

   izeta = 2
                 rmatch =    2.531849
              splitnorm =    0.280000
                 energy =   -0.959908
                kinetic =    2.409435
    potential(screened) =   -3.369343
       potential(ionic) =   -9.427975

SPLIT: Orbitals with angular momentum L= 1

SPLIT: Basis orbitals for state 2p

SPLIT: PAO cut-off radius determined from an
SPLIT: energy shift=  0.002000 Ry

   izeta = 1
                 lambda =    1.000000
                     rc =    5.924108
                 energy =   -0.519262
                kinetic =    3.672940
    potential(screened) =   -4.192202
       potential(ionic) =   -9.518354

   izeta = 2
                 rmatch =    2.531849
              splitnorm =    0.280000
                 energy =   -0.104258
                kinetic =    6.807538
    potential(screened) =   -6.911796
       potential(ionic) =  -13.149920

POLgen: Perturbative polarization orbital with L=  2

POLgen: Polarization orbital for state 2p

   izeta = 1
                     rc =    5.924108
                 energy =    1.427508
                kinetic =    2.872379
    potential(screened) =   -1.444871
       potential(ionic) =   -5.563644
atom: Total number of Sankey-type orbitals: 13

atm_pop: Valence configuration (for local Pseudopot. screening):
 2s( 2.00)                                                            
 2p( 3.00)                                                            
Vna: chval, zval:    5.00000   5.00000

Vna:  Cut-off radius for the neutral-atom potential:   5.924108

atom: _________________________________________________________________________

<basis_specs>
===============================================================================
Si                   Z=  14    Mass=  28.090        Charge= 0.17977+309
Lmxo=1 Lmxkb= 3    BasisType=split      Semic=F
L=0  Nsemic=0  Cnfigmx=3
          i=1  nzeta=2  polorb=0  (3s)
            splnorm:   0.28000    
               vcte:    0.0000    
               rinn:    0.0000    
               qcoe:    0.0000    
               qyuk:    0.0000    
               qwid:   0.10000E-01
                rcs:    0.0000      0.0000    
            lambdas:    1.0000      1.0000    
L=1  Nsemic=0  Cnfigmx=3
          i=1  nzeta=2  polorb=1  (3p)
            splnorm:   0.28000    
               vcte:    0.0000    
               rinn:    0.0000    
               qcoe:    0.0000    
               qyuk:    0.0000    
               qwid:   0.10000E-01
                rcs:    0.0000      0.0000    
            lambdas:    1.0000      1.0000    
-------------------------------------------------------------------------------
L=0  Nkbl=1  erefs: 0.17977+309
L=1  Nkbl=1  erefs: 0.17977+309
L=2  Nkbl=1  erefs: 0.17977+309
L=3  Nkbl=1  erefs: 0.17977+309
===============================================================================
</basis_specs>

atom: Called for Si                    (Z =  14)

read_vps: Pseudopotential generation method:
read_vps: ATM4.2.7  Troullier-Martins                       
Valence charge for ps generation:    4.00000

xc_check: Exchange-correlation functional:
xc_check: GGA Perdew, Burke & Ernzerhof 1996
V l=0 = -2*Zval/r beyond r=  2.7826
V l=1 = -2*Zval/r beyond r=  2.7826
V l=2 = -2*Zval/r beyond r=  2.9253
V l=3 = -2*Zval/r beyond r=  2.7826
All V_l potentials equal beyond r=  2.8530
This should be close to max(r_c) in ps generation
All pots = -2*Zval/r beyond r=  2.9253

VLOCAL1: 99.0% of the norm of Vloc inside      5.333 Ry
VLOCAL1: 99.9% of the norm of Vloc inside     12.154 Ry
atom: Maximum radius for 4*pi*r*r*local-pseudopot. charge    3.39869
atom: Maximum radius for r*vlocal+2*Zval:    2.96205
GHOST: No ghost state for L =  0
GHOST: No ghost state for L =  1
GHOST: No ghost state for L =  2
GHOST: No ghost state for L =  3

KBgen: Kleinman-Bylander projectors: 
   l= 0   rc=  3.075247   el= -0.794092   Ekb=  5.879390   kbcos=  0.167461
   l= 1   rc=  3.153101   el= -0.300068   Ekb=  2.642817   kbcos=  0.058301
   l= 2   rc=  3.273594   el=  0.001958   Ekb= -1.185135   kbcos= -0.104411
   l= 3   rc=  3.232927   el=  0.003046   Ekb= -0.497174   kbcos= -0.015889

KBgen: Total number of Kleinman-Bylander projectors:   16
atom: -------------------------------------------------------------------------

atom: SANKEY-TYPE ORBITALS:
atom: Selected multiple-zeta basis: split     

SPLIT: Orbitals with angular momentum L= 0

SPLIT: Basis orbitals for state 3s

SPLIT: PAO cut-off radius determined from an
SPLIT: energy shift=  0.002000 Ry

   izeta = 1
                 lambda =    1.000000
                     rc =    6.429618
                 energy =   -0.792283
                kinetic =    0.525293
    potential(screened) =   -1.317576
       potential(ionic) =   -3.744923

   izeta = 2
                 rmatch =    3.998416
              splitnorm =    0.280000
                 energy =   -0.583081
                kinetic =    1.069570
    potential(screened) =   -1.652651
       potential(ionic) =   -4.235185

SPLIT: Orbitals with angular momentum L= 1

SPLIT: Basis orbitals for state 3p

SPLIT: PAO cut-off radius determined from an
SPLIT: energy shift=  0.002000 Ry

   izeta = 1
                 lambda =    1.000000
                     rc =    8.464845
                 energy =   -0.298236
                kinetic =    0.785360
    potential(screened) =   -1.083596
       potential(ionic) =   -3.273779

   izeta = 2
                 rmatch =    4.587816
              splitnorm =    0.280000
                 energy =   -0.131871
                kinetic =    1.403687
    potential(screened) =   -1.535557
       potential(ionic) =   -4.015310

POLgen: Perturbative polarization orbital with L=  2

POLgen: Polarization orbital for state 3p

   izeta = 1
                     rc =    8.464845
                 energy =    0.321949
                kinetic =    1.055677
    potential(screened) =   -0.733728
       potential(ionic) =   -2.672950
atom: Total number of Sankey-type orbitals: 13

atm_pop: Valence configuration (for local Pseudopot. screening):
 3s( 2.00)                                                            
 3p( 2.00)                                                            
Vna: chval, zval:    4.00000   4.00000

Vna:  Cut-off radius for the neutral-atom potential:   8.464845

atom: _________________________________________________________________________

<basis_specs>
===============================================================================
H                    Z=   1    Mass=  1.0100        Charge= 0.17977+309
Lmxo=0 Lmxkb= 2    BasisType=split      Semic=F
L=0  Nsemic=0  Cnfigmx=1
          i=1  nzeta=2  polorb=1  (1s)
            splnorm:   0.62000    
               vcte:    0.0000    
               rinn:    0.0000    
               qcoe:    0.0000    
               qyuk:    0.0000    
               qwid:   0.10000E-01
                rcs:    0.0000      0.0000    
            lambdas:    1.0000      1.0000    
-------------------------------------------------------------------------------
L=0  Nkbl=1  erefs: 0.17977+309
L=1  Nkbl=1  erefs: 0.17977+309
L=2  Nkbl=1  erefs: 0.17977+309
===============================================================================
</basis_specs>

atom: Called for H                     (Z =   1)

read_vps: Pseudopotential generation method:
read_vps: ATM4.2.7  Troullier-Martins                       
Valence charge for ps generation:    1.00000

xc_check: Exchange-correlation functional:
xc_check: GGA Perdew, Burke & Ernzerhof 1996
V l=0 = -2*Zval/r beyond r=  0.0098
V l=1 = -2*Zval/r beyond r=  0.5817
V l=2 = -2*Zval/r beyond r=  1.9372
All V_l potentials equal beyond r=  1.9372
This should be close to max(r_c) in ps generation
All pots = -2*Zval/r beyond r=  1.9372

VLOCAL1: 99.0% of the norm of Vloc inside     11.567 Ry
VLOCAL1: 99.9% of the norm of Vloc inside     26.362 Ry
atom: Maximum radius for 4*pi*r*r*local-pseudopot. charge    2.25106
atom: Maximum radius for r*vlocal+2*Zval:    1.91306
GHOST: No ghost state for L =  0
GHOST: No ghost state for L =  1
GHOST: No ghost state for L =  2

KBgen: Kleinman-Bylander projectors: 
   l= 0   rc=  2.036604   el= -0.477180   Ekb= -6.081590   kbcos= -0.277285
   l= 1   rc=  2.195416   el=  0.001076   Ekb= -0.926943   kbcos= -0.034643
   l= 2   rc=  2.251056   el=  0.002010   Ekb= -0.130941   kbcos= -0.009788

KBgen: Total number of Kleinman-Bylander projectors:    9
atom: -------------------------------------------------------------------------

atom: SANKEY-TYPE ORBITALS:
atom: Selected multiple-zeta basis: split     

SPLIT: Orbitals with angular momentum L= 0

SPLIT: Basis orbitals for state 1s

SPLIT: PAO cut-off radius determined from an
SPLIT: energy shift=  0.002000 Ry

   izeta = 1
                 lambda =    1.000000
                     rc =    6.518340
                 energy =   -0.475305
                kinetic =    0.912139
    potential(screened) =   -1.387444
       potential(ionic) =   -1.907295

   izeta = 2
                 rmatch =    2.141150
              splitnorm =    0.620000
                 energy =    0.566467
                kinetic =    3.772856
    potential(screened) =   -3.206389
       potential(ionic) =   -3.759093

POLgen: Perturbative polarization orbital with L=  1

POLgen: Polarization orbital for state 1s

   izeta = 1
                     rc =    6.518340
                 energy =    0.533861
                kinetic =    1.121086
    potential(screened) =   -0.587225
       potential(ionic) =   -1.053027
atom: Total number of Sankey-type orbitals:  5

atm_pop: Valence configuration (for local Pseudopot. screening):
 1s( 1.00)                                                            
Vna: chval, zval:    1.00000   1.00000

Vna:  Cut-off radius for the neutral-atom potential:   6.518340

atom: _________________________________________________________________________

prinput: Basis input ----------------------------------------------------------

PAO.BasisType split     

%block ChemicalSpeciesLabel
    1    8 O                       # Species index, atomic number, species label
    2    7 N                       # Species index, atomic number, species label
    3   14 Si                      # Species index, atomic number, species label
    4    1 H                       # Species index, atomic number, species label
%endblock ChemicalSpeciesLabel

%block PAO.Basis                 # Define Basis set
O                     2                    # Species label, number of l-shells
 n=2   0   2                         # n, l, Nzeta 
   4.244      2.188   
   1.000      1.000   
 n=2   1   2 P   1                   # n, l, Nzeta, Polarization, NzetaPol
   5.315      2.161   
   1.000      1.000   
N                     2                    # Species label, number of l-shells
 n=2   0   2                         # n, l, Nzeta 
   4.730      2.532   
   1.000      1.000   
 n=2   1   2 P   1                   # n, l, Nzeta, Polarization, NzetaPol
   5.924      2.532   
   1.000      1.000   
Si                    2                    # Species label, number of l-shells
 n=3   0   2                         # n, l, Nzeta 
   6.430      3.998   
   1.000      1.000   
 n=3   1   2 P   1                   # n, l, Nzeta, Polarization, NzetaPol
   8.465      4.588   
   1.000      1.000   
H                     1                    # Species label, number of l-shells
 n=1   0   2 P   1                   # n, l, Nzeta, Polarization, NzetaPol
   6.518      2.141   
   1.000      1.000   
%endblock PAO.Basis

prinput: ----------------------------------------------------------------------

Dumping basis to NetCDF file O.ion.nc
Dumping basis to NetCDF file N.ion.nc
Dumping basis to NetCDF file Si.ion.nc
Dumping basis to NetCDF file H.ion.nc
coor:   Atomic-coordinates input format  =     Cartesian coordinates
coor:                                          (in Angstroms)

siesta: Atomic coordinates (Bohr) and species
siesta:      1.61558   7.37525   0.00000  1        1
siesta:     -5.95545   1.55686   0.00000  2        2
siesta:      3.64437   2.21854   0.00000  2        3
siesta:      1.85174  -3.45872   0.00000  2        4
siesta:     -4.08041  -3.83238   0.00000  2        5
siesta:      7.15322  -2.10270   0.00000  2        6
siesta:     -2.54345   1.84485   0.00000  3        7
siesta:     -1.13278  -2.07129   0.00000  3        8
siesta:      0.85639   4.44182   0.00000  3        9
siesta:      4.03136  -1.08945   0.00000  3       10
siesta:     -6.64440  -1.59126   0.00000  3       11
siesta:      5.33759   3.31595   0.00000  4       12
siesta:     -9.21724  -2.77641   0.00000  4       13
siesta:      7.54937  -4.05007   0.00000  4       14
siesta:      8.73225  -0.91400   0.00000  4       15
siesta:     -4.30685  -5.82322   0.00000  4       16
siesta:     14.80832  13.58721  -0.00000  3       17
siesta:     18.34014  15.96759  -0.00000  3       18
siesta:     17.47289   8.40607  -0.00000  3       19
siesta:     21.38007  13.14285  -0.00000  3       20
siesta:     14.92082  10.40311  -0.00000  2       21
siesta:     11.72807  14.77785  -0.00000  2       22
siesta:     20.57939   9.90102  -0.00000  2       23
siesta:     18.86996  18.74591  -0.00000  4       24
siesta:     24.20599  13.55642  -0.00000  4       25
siesta:     11.26611  16.70248  -0.00000  4       26
siesta:     10.16575  13.53659  -0.00000  4       27
siesta:     17.58490   5.41569  -0.00000  1       28
siesta:     22.03761   8.52725  -0.00000  4       29

siesta: Automatic unit cell vectors (Ang):
siesta:   27.044070    0.000000    0.000000
siesta:    0.000000   21.890144    0.000000
siesta:    0.000000    0.000000    9.854683

siesta: System type = molecule  

initatomlists: Number of atoms, orbitals, and projectors:     29   297   394

siesta: ******************** Simulation parameters ****************************
siesta:
siesta: The following are some of the parameters of the simulation.
siesta: A complete list of the parameters used, including default values,
siesta: can be found in file out.fdf
siesta:
redata: Spin configuration                          = spin-orbit
redata: Number of spin components                   = 8
redata: Time-Reversal Symmetry                      = F
redata: Spin spiral                                 = F
############################################################
This spin-orbit implementation uses a local approximation.
From 4.2 and onwards the full non-local approximation is implemented
You are strongly advised to use >=4.2 versions!
############################################################
redata: Long output                                 =   F
redata: Number of Atomic Species                    =        4
redata: Charge density info will appear in .RHO file
redata: Write Mulliken Pop.                         = Atomic and Orbital charges
redata: Matel table size (NRTAB)                    =     1024
redata: Mesh Cutoff                                 =   340.0000 Ry
redata: Net charge of the system                    =     0.0000 |e|
redata: Min. number of SCF Iter                     =        1
redata: Max. number of SCF Iter                     =      200
redata: SCF mix quantity                            = Hamiltonian
redata: Mix DM or H after convergence               =   F
redata: Recompute H after scf cycle                 =   F
redata: Mix DM in first SCF step                    =   T
redata: Write Pulay info on disk                    =   F
redata: New DM Occupancy tolerance                  = 0.000000000001
redata: No kicks to SCF
redata: DM Mixing Weight for Kicks                  =     0.5000
redata: Require Harris convergence for SCF          =   F
redata: Harris energy tolerance for SCF             =     0.000100 eV
redata: Require DM convergence for SCF              =   T
redata: DM tolerance for SCF                        =     0.000008
redata: Require EDM convergence for SCF             =   F
redata: EDM tolerance for SCF                       =     0.001000 eV
redata: Require H convergence for SCF               =   T
redata: Hamiltonian tolerance for SCF               =     0.000001 eV
redata: Require (free) Energy convergence for SCF   =   F
redata: (free) Energy tolerance for SCF             =     0.000100 eV
redata: Using Saved Data (generic)                  =   F
redata: Use continuation files for DM               =   F
redata: Neglect nonoverlap interactions             =   F
redata: Method of Calculation                       = Diagonalization
redata: Electronic Temperature                      =   299.9978 K
redata: Fix the spin of the system                  =   F
redata: Dynamics option                             = Single-point calculation
mix.SCF: Pulay mixing                            = Pulay
mix.SCF:    Variant                              = stable
mix.SCF:    History steps                        = 6
mix.SCF:    Linear mixing weight                 =     0.250000
mix.SCF:    Mixing weight                        =     0.250000
mix.SCF:    SVD condition                        = 0.1000E-07
mix.SCF:    Restart steps                        = 24
mix.SCF:    Restart save steps                   = 3
mix.SCF: Spin-component mixing                   all
redata: Save all siesta data in one NC              =   F
redata: ***********************************************************************

%block SCF.Mixers
  Pulay
%endblock SCF.Mixers

%block SCF.Mixer.Pulay
  # Mixing method
  method pulay
  variant stable

  # Mixing options
  weight 0.2500
  weight.linear 0.2500
  history 6
  restart 24
  restart.save 3
%endblock SCF.Mixer.Pulay

DM_history_depth set to one: no extrapolation allowed by default for geometry relaxation
Size of DM history Fstack: 1
Total number of electrons:    98.000000
Total ionic charge:    98.000000

* ProcessorY, Blocksize:    2  24


* Orbital distribution balance (max,min):    81    72


Time-reversal symmetry not used.

siesta: k-grid: Number of k-points =     1
siesta: k-grid: Cutoff (effective) =     4.927 Ang
siesta: k-grid: Supercell and displacements
siesta: k-grid:    1   0   0      0.000
siesta: k-grid:    0   1   0      0.000
siesta: k-grid:    0   0   1      0.000

diag: Algorithm                                     = ELPA-1stage
diag: Parallel over k                               =   F
diag: Use parallel 2D distribution                  =   T
diag: Parallel block-size                           = 24
diag: Parallel distribution                         =     2 x     2
diag: Used triangular part                          = Lower
diag: Absolute tolerance                            =  0.100E-15
diag: Orthogonalization factor                      =  0.100E-05
diag: Memory factor                                 =  1.0000


ts: **************************************************************
ts: Save H and S matrices                           =    F
ts: Save DM and EDM matrices                        =    F
ts: Only save the overlap matrix S                  =    F
ts: **************************************************************

************************ Begin: TS CHECKS AND WARNINGS ************************
************************ End: TS CHECKS AND WARNINGS **************************


                     ====================================
                        Single-point calculation
                     ====================================

outcoor: Atomic coordinates (Ang):                          
    0.85492771    3.90281136    0.00000000   1       1  O
   -3.15148660    0.82385413    0.00000000   2       2  N
    1.92851868    1.17400090    0.00000000   2       3  N
    0.97989950   -1.83027589    0.00000000   2       4  N
   -2.15925893   -2.02800480    0.00000000   2       5  N
    3.78531977   -1.11270066    0.00000000   2       6  N
   -1.34593381    0.97625025    0.00000000   3       7  Si
   -0.59943988   -1.09607717    0.00000000   3       8  Si
    0.45318289    2.35051023    0.00000000   3       9  Si
    2.13330203   -0.57651080    0.00000000   3      10  Si
   -3.51606566   -0.84205651    0.00000000   3      11  Si
    2.82452783    1.75472311    0.00000000   4      12  H
   -4.87755169   -1.46921466    0.00000000   4      13  H
    3.99495202   -2.14320400    0.00000000   4      14  H
    4.62090361   -0.48366606    0.00000000   4      15  H
   -2.27908518   -3.08151409    0.00000000   4      16  H
    7.83622338    7.19003948    0.00000000   3      17  Si
    9.70518287    8.44968311    0.00000000   3      18  Si
    9.24625049    4.44830126    0.00000000   3      19  Si
   11.31384321    6.95489248    0.00000000   3      20  Si
    7.89575333    5.50508702    0.00000000   2      21  N
    6.20622418    7.82009971    0.00000000   2      22  N
   10.89013936    5.23939167    0.00000000   2      23  N
    9.98554657    9.91990563    0.00000000   4      24  H
   12.80925459    7.17374502    0.00000000   4      25  H
    5.96176519    8.83856566    0.00000000   4      26  H
    5.37948300    7.16325158    0.00000000   4      27  H
    9.30552625    2.86585923    0.00000000   1      28  O
   11.66179495    4.51242431    0.00000000   4      29  H

outcell: Unit cell vectors (Ang):
       27.044070    0.000000    0.000000
        0.000000   21.890144    0.000000
        0.000000    0.000000    9.854683

outcell: Cell vector modules (Ang)   :   27.044070   21.890144    9.854683
outcell: Cell angles (23,13,12) (deg):     90.0000     90.0000     90.0000
outcell: Cell volume (Ang**3)        :   5833.9586
<dSpData1D:S at geom step 0
  <sparsity:sparsity for geom step 0
    nrows_g=297 nrows=81 sparsity=.1394 nnzs=12293, refcount: 8>
  <dData1D:(new from dSpData1D) n=12293, refcount: 1>
refcount: 1>
new_DM -- step:     1
Initializing Density Matrix...
DM filled with atomic data:
<dSpData2D:DM initialized from atoms
  <sparsity:sparsity for geom step 0
    nrows_g=297 nrows=81 sparsity=.1394 nnzs=12293, refcount: 9>
  <dData2D:DM n=12293 m=8, refcount: 1>
refcount: 1>
     spin moment: S , {S} =   56.00000   0.00000   0.00000  56.00000
No. of atoms with KB's overlaping orbs in proc 0. Max # of overlaps:      29     142

Initializing spin-orbit part of the Hamiltonian
  Adding spin-orbit effects for O 
  Adding spin-orbit effects for N 
  Adding spin-orbit effects for Si
  Adding spin-orbit effects for H 


New grid distribution:   1
           1       1:  150    1:   63    1:   30
           2       1:  150    1:   63   31:   60
           3       1:  150   64:  125    1:   30
           4       1:  150   64:  125   31:   60

InitMesh: MESH =   300 x   250 x   120 =     9000000
InitMesh: (bp) =   150 x   125 x    60 =     1125000
InitMesh: Mesh cutoff (required, used) =   340.000   340.095 Ry
ExtMesh (bp) on 0 =   250 x   167 x   142 =     5928500
New grid distribution:   2
           1      53:  150    1:   39    1:   60
           2       1:   52    1:   38    1:   60
           3      53:  150   40:  125    1:   60
           4       1:   52   39:  125    1:   60
New grid distribution:   3
           1      54:  150    1:   42    1:   60
           2       1:   53    1:   41    1:   60
           3      54:  150   43:  125    1:   60
           4       1:   53   42:  125    1:   60
Setting up quadratic distribution...
ExtMesh (bp) on 0 =   198 x   143 x   172 =     4870008
PhiOnMesh: Number of (b)points on node 0 =               229320
PhiOnMesh: nlist on node 0 =              2459983

stepf: Fermi-Dirac step function

siesta: Program's energy decomposition (eV):
siesta: Ebs     =      -623.929908
siesta: Eions   =      3585.165840
siesta: Ena     =       384.948850
siesta: Ekin    =      3376.489632
siesta: Enl     =     -3308.235616
siesta: Eso     =        -0.003378
siesta: Edftu   =         0.000000
siesta: DEna    =       154.802192
siesta: DUscf   =        82.427027
siesta: DUext   =         0.000000
siesta: Exc     =     -1205.340822
siesta: eta*DQ  =         0.000000
siesta: Emadel  =         0.000000
siesta: Emeta   =         0.000000
siesta: Emolmec =         0.000000
siesta: Ekinion =         0.000000
siesta: Eharris =     -4019.731118
siesta: Etot    =     -4100.077954
siesta: FreeEng =     -4100.079468

        iscf     Eharris(eV)        E_KS(eV)     FreeEng(eV)     dDmax    Ef(eV) dHmax(eV)
   scf:    1    -4019.731118    -4100.077954    -4100.079468  0.965166 -4.889037 21.622574
     spin moment: S , {S} =    2.00784   0.00000   0.00000   2.00784
timer: Routine,Calls,Time,% = IterSCF        1      13.914  17.70
   scf:    2    -4147.674762    -4135.998746    -4136.003855  0.454643 -4.242983 11.660750
     spin moment: S , {S} =    1.96044   0.00000   0.00000   1.96044
   scf:    3    -4101.402440    -4131.612420    -4131.643054  0.427861 -4.365934 12.671367
     spin moment: S , {S} =    2.39680  -0.00000   0.00000   2.39680
   scf:    4    -4150.163464    -4144.953545    -4144.953546  0.314801 -3.943844  5.970591
     spin moment: S , {S} =    0.00010  -0.00000  -0.00000   0.00010
   scf:    5    -4146.326516    -4145.758454    -4145.758454  0.040095 -3.754281  4.234105
     spin moment: S , {S} =    0.00006  -0.00000  -0.00000   0.00006
   scf:    6    -4146.494326    -4146.132009    -4146.132009  0.023605 -3.582902  2.264041
     spin moment: S , {S} =    0.00003  -0.00000  -0.00000   0.00003
   scf:    7    -4146.515226    -4146.320954    -4146.320954  0.023351 -3.774113  0.872001
     spin moment: S , {S} =    0.00001   0.00000   0.00000   0.00001
   scf:    8    -4146.431853    -4146.374905    -4146.374905  0.012147 -3.704442  0.522013
     spin moment: S , {S} =    0.00000   0.00000   0.00000   0.00000
   scf:    9    -4146.417981    -4146.395658    -4146.395658  0.007352 -3.672133  0.383773
     spin moment: S , {S} =    0.00000   0.00000  -0.00000   0.00000
   scf:   10    -4146.448996    -4146.415382    -4146.415382  0.022260 -3.801551  0.249217
     spin moment: S , {S} =    0.00000   0.00000   0.00000  -0.00000
   scf:   11    -4146.418966    -4146.417141    -4146.417141  0.006119 -3.807564  0.075181
     spin moment: S , {S} =    0.00000  -0.00000  -0.00000  -0.00000
   scf:   12    -4146.418678    -4146.417927    -4146.417927  0.001230 -3.794127  0.030298
     spin moment: S , {S} =    0.00000  -0.00000   0.00000  -0.00000
   scf:   13    -4146.418454    -4146.418187    -4146.418187  0.001227 -3.801563  0.019991
     spin moment: S , {S} =    0.00000  -0.00000   0.00000  -0.00000
   scf:   14    -4146.418488    -4146.418330    -4146.418330  0.000902 -3.799639  0.011644
     spin moment: S , {S} =    0.00000  -0.00000   0.00000  -0.00000
   scf:   15    -4146.418448    -4146.418385    -4146.418385  0.000831 -3.799542  0.007773
     spin moment: S , {S} =    0.00000  -0.00000   0.00000  -0.00000
   scf:   16    -4146.418452    -4146.418416    -4146.418416  0.000755 -3.799542  0.005704
     spin moment: S , {S} =    0.00000  -0.00000   0.00000   0.00000
   scf:   17    -4146.418436    -4146.418425    -4146.418425  0.000447 -3.799541  0.004190
     spin moment: S , {S} =    0.00000  -0.00000   0.00000   0.00000
   scf:   18    -4146.418434    -4146.418429    -4146.418429  0.000294 -3.799505  0.002784
     spin moment: S , {S} =    0.00000  -0.00000   0.00000   0.00000
   scf:   19    -4146.418434    -4146.418431    -4146.418431  0.000231 -3.799454  0.001893
     spin moment: S , {S} =    0.00000  -0.00000   0.00000   0.00000
   scf:   20    -4146.418433    -4146.418432    -4146.418432  0.000134 -3.799477  0.001297
     spin moment: S , {S} =    0.00000  -0.00000   0.00000   0.00000
   scf:   21    -4146.418433    -4146.418432    -4146.418433  0.000169 -3.799526  0.000738
     spin moment: S , {S} =    0.00000  -0.00000   0.00000   0.00000
   scf:   22    -4146.418433    -4146.418433    -4146.418433  0.000120 -3.799577  0.000232
     spin moment: S , {S} =    0.00000  -0.00000   0.00000   0.00000
   scf:   23    -4146.418433    -4146.418433    -4146.418433  0.000041 -3.799582  0.000173
     spin moment: S , {S} =    0.00000   0.00000   0.00000   0.00000
   scf:   24    -4146.418433    -4146.418433    -4146.418433  0.000018 -3.799574  0.000102
     spin moment: S , {S} =    0.00000  -0.00000   0.00000   0.00000
mix: Pulay -- resetting history
   scf:   25    -4146.418433    -4146.418433    -4146.418433  0.000009 -3.799560  0.000057
     spin moment: S , {S} =    0.00000  -0.00000   0.00000   0.00000
   scf:   26    -4146.418433    -4146.418433    -4146.418433  0.000004 -3.799551  0.000033
     spin moment: S , {S} =    0.00000  -0.00000   0.00000   0.00000
   scf:   27    -4146.418433    -4146.418433    -4146.418433  0.000003 -3.799549  0.000022
     spin moment: S , {S} =    0.00000  -0.00000   0.00000   0.00000
   scf:   28    -4146.418433    -4146.418433    -4146.418433  0.000002 -3.799548  0.000011
     spin moment: S , {S} =    0.00000  -0.00000   0.00000   0.00000
   scf:   29    -4146.418433    -4146.418433    -4146.418433  0.000001 -3.799548  0.000007
     spin moment: S , {S} =    0.00000  -0.00000   0.00000   0.00000
   scf:   30    -4146.418433    -4146.418433    -4146.418433  0.000001 -3.799547  0.000004
     spin moment: S , {S} =    0.00000  -0.00000   0.00000   0.00000
   scf:   31    -4146.418433    -4146.418433    -4146.418433  0.000000 -3.799546  0.000002
     spin moment: S , {S} =    0.00000  -0.00000   0.00000   0.00000
   scf:   32    -4146.418433    -4146.418433    -4146.418433  0.000000 -3.799546  0.000002
     spin moment: S , {S} =    0.00000  -0.00000   0.00000   0.00000
   scf:   33    -4146.418433    -4146.418433    -4146.418433  0.000000 -3.799546  0.000001
     spin moment: S , {S} =    0.00000  -0.00000   0.00000   0.00000

SCF Convergence by DM+H criterion
max |DM_out - DM_in|         :     0.0000001890
max |H_out - H_in|      (eV) :     0.0000008435
SCF cycle converged after 33 iterations

Using DM_out to compute the final energy and forces
No. of atoms with KB's overlaping orbs in proc 0. Max # of overlaps:      29     142

siesta: E_KS(eV) =            -4146.4184

siesta: E_KS - E_eggbox =     -4146.4184
     spin moment: S , {S} =    0.00000  -0.00000   0.00000   0.00000

siesta: Atomic forces (eV/Ang):
     1   -0.476402    2.145202    0.000000
     2   -0.005501   -0.010202   -0.000000
     3   -0.040303    0.013154   -0.000000
     4   -0.060668   -0.016780   -0.000000
     5    0.010911   -0.055660   -0.000000
     6   -0.057098   -0.000871    0.000000
     7   -0.008525   -0.003448   -0.000000
     8    0.030250    0.035647    0.000000
     9    0.063307    0.001147    0.000000
    10    0.114437    0.031363    0.000000
    11   -0.031381    0.029272    0.000000
    12   -0.186785   -0.056759    0.000000
    13    0.071569    0.002440    0.000000
    14   -0.012100    0.020651   -0.000000
    15    0.156629    0.091766   -0.000000
    16    0.094278    0.191548   -0.000000
    17   -0.068598    0.003701    0.000000
    18    0.006837   -0.009837   -0.000000
    19   -0.001159    0.022559   -0.000000
    20   -0.013452   -0.003178    0.000000
    21    0.026141   -0.033875    0.000000
    22    0.048787    0.010371    0.000000
    23   -0.006963   -0.010041    0.000000
    24    0.009000    0.051860    0.000000
    25   -0.219681    0.110516    0.000000
    26   -0.173407    0.201225   -0.000000
    27    0.127111    0.057561   -0.000000
    28   -3.720481    2.592328   -0.000000
    29    0.040300    0.037556   -0.000000
----------------------------------------
   Tot   -4.282947    5.449215   -0.000000
----------------------------------------
   Max    3.720481
   Res    0.543660    sqrt( Sum f_i^2 / 3N )
----------------------------------------
   Max    3.720481    constrained

Stress tensor Voigt[x,y,z,yz,xz,xy] (kbar):        0.29        0.19       -0.07       -0.00       -0.00        0.37
(Free)E + p*V (eV/cell)    -4146.9163
Target enthalpy (eV/cell)    -4146.4184

mulliken: Atomic and Orbital Populations:

Species: O                   

Atom      Orb        Charge      Spin       Svec
----------------------------------------------------------------
    1  1 2s         1.75287   0.00000      0.000   0.000  -0.000
    1  2 2s         0.06008   0.00000     -0.000  -0.000   0.000
    1  3 2py        1.42688   0.00000      0.000  -0.000  -0.000
    1  4 2pz        1.53984   0.00000     -0.000  -0.000  -0.000
    1  5 2px        1.61498   0.00000     -0.000   0.000  -0.000
    1  6 2py        0.04214   0.00000      0.000   0.000   0.000
    1  7 2pz       -0.00367   0.00000      0.000   0.000   0.000
    1  8 2px        0.01001   0.00000     -0.000  -0.000   0.000
    1  9 3Pdxy      0.00754   0.00000      0.000  -0.000   0.000
    1 10 3Pdyz      0.00954   0.00000      0.000  -0.000  -0.000
    1 11 3Pdz2      0.00173   0.00000     -0.000  -0.000  -0.000
    1 12 3Pdxz      0.00043   0.00000      0.000   0.000   0.000
    1 13 3Pdx2-y2   0.00721   0.00000      0.000   0.000  -0.000
    1     Total     6.46959   0.00000     -0.000   0.000  -0.000

   28  1 2s         1.73716   0.00000      0.000  -0.000   0.000
   28  2 2s         0.07008   0.00000     -0.000   0.000   0.000
   28  3 2py        1.41879   0.00000     -0.000   0.000   0.000
   28  4 2pz        1.53512   0.00000     -0.000   0.000   0.000
   28  5 2px        1.63247   0.00000     -0.000  -0.000   0.000
   28  6 2py        0.04578   0.00000      0.000   0.000   0.000
   28  7 2pz       -0.00074   0.00000      0.000  -0.000   0.000
   28  8 2px        0.01549   0.00000      0.000   0.000   0.000
   28  9 3Pdxy      0.00715   0.00000     -0.000  -0.000  -0.000
   28 10 3Pdyz      0.01045   0.00000      0.000  -0.000  -0.000
   28 11 3Pdz2      0.00129   0.00000      0.000  -0.000  -0.000
   28 12 3Pdxz     -0.00017   0.00000      0.000   0.000   0.000
   28 13 3Pdx2-y2   0.00779   0.00000      0.000  -0.000  -0.000
   28     Total     6.48066   0.00000     -0.000   0.000   0.000

----------------------------------------------------------------
Total              12.95025   0.00000     -0.000   0.000   0.000


Species: N                   

Atom      Orb        Charge      Spin       Svec
----------------------------------------------------------------
    2  1 2s         1.55021   0.00000     -0.000  -0.000  -0.000
    2  2 2s         0.08419   0.00000      0.000   0.000   0.000
    2  3 2py        1.03135   0.00000     -0.000   0.000  -0.000
    2  4 2pz        1.22385   0.00000      0.000   0.000  -0.000
    2  5 2px        1.00464   0.00000      0.000   0.000  -0.000
    2  6 2py        0.19300   0.00000      0.000   0.000   0.000
    2  7 2pz        0.05465   0.00000     -0.000  -0.000   0.000
    2  8 2px        0.19096   0.00000     -0.000  -0.000   0.000
    2  9 3Pdxy      0.00843   0.00000     -0.000   0.000   0.000
    2 10 3Pdyz      0.01083   0.00000     -0.000  -0.000   0.000
    2 11 3Pdz2      0.00196   0.00000      0.000   0.000   0.000
    2 12 3Pdxz      0.00754   0.00000     -0.000   0.000   0.000
    2 13 3Pdx2-y2   0.00893   0.00000      0.000   0.000  -0.000
    2     Total     5.37054   0.00000      0.000   0.000  -0.000

    3  1 2s         1.40755   0.00000      0.000  -0.000  -0.000
    3  2 2s         0.11423   0.00000     -0.000   0.000   0.000
    3  3 2py        0.93976   0.00000      0.000  -0.000  -0.000
    3  4 2pz        1.53806   0.00000     -0.000  -0.000  -0.000
    3  5 2px        1.09701   0.00000      0.000   0.000  -0.000
    3  6 2py        0.24819   0.00000     -0.000   0.000   0.000
    3  7 2pz        0.00898   0.00000      0.000  -0.000   0.000
    3  8 2px        0.16931   0.00000     -0.000  -0.000   0.000
    3  9 3Pdxy      0.00430   0.00000      0.000   0.000   0.000
    3 10 3Pdyz      0.00418   0.00000     -0.000   0.000  -0.000
    3 11 3Pdz2      0.00083   0.00000     -0.000  -0.000   0.000
    3 12 3Pdxz      0.00267   0.00000      0.000  -0.000  -0.000
    3 13 3Pdx2-y2   0.00307   0.00000      0.000   0.000  -0.000
    3     Total     5.53815   0.00000      0.000  -0.000  -0.000

    4  1 2s         1.46839   0.00000      0.000   0.000  -0.000
    4  2 2s         0.11685   0.00000     -0.000  -0.000   0.000
    4  3 2py        1.10524   0.00000     -0.000  -0.000  -0.000
    4  4 2pz        1.29244   0.00000     -0.000  -0.000  -0.000
    4  5 2px        0.84191   0.00000     -0.000   0.000  -0.000
    4  6 2py        0.15560   0.00000      0.000   0.000   0.000
    4  7 2pz        0.05377   0.00000      0.000   0.000   0.000
    4  8 2px        0.28652   0.00000      0.000  -0.000   0.000
    4  9 3Pdxy      0.00854   0.00000      0.000   0.000   0.000
    4 10 3Pdyz      0.01080   0.00000     -0.000  -0.000   0.000
    4 11 3Pdz2      0.00132   0.00000      0.000  -0.000  -0.000
    4 12 3Pdxz      0.00495   0.00000      0.000   0.000  -0.000
    4 13 3Pdx2-y2   0.00850   0.00000      0.000  -0.000  -0.000
    4     Total     5.35485   0.00000     -0.000  -0.000  -0.000

    5  1 2s         1.37365   0.00000      0.000   0.000  -0.000
    5  2 2s         0.12889   0.00000     -0.000  -0.000   0.000
    5  3 2py        1.02730   0.00000      0.000   0.000  -0.000
    5  4 2pz        1.50106   0.00000      0.000  -0.000  -0.000
    5  5 2px        1.05898   0.00000      0.000  -0.000  -0.000
    5  6 2py        0.20323   0.00000     -0.000   0.000   0.000
    5  7 2pz        0.01347   0.00000     -0.000   0.000   0.000
    5  8 2px        0.20239   0.00000      0.000   0.000   0.000
    5  9 3Pdxy      0.00369   0.00000     -0.000  -0.000   0.000
    5 10 3Pdyz      0.00248   0.00000      0.000   0.000   0.000
    5 11 3Pdz2      0.00137   0.00000     -0.000   0.000   0.000
    5 12 3Pdxz      0.00686   0.00000      0.000  -0.000   0.000
    5 13 3Pdx2-y2   0.00571   0.00000     -0.000  -0.000   0.000
    5     Total     5.52907   0.00000      0.000   0.000  -0.000

    6  1 2s         1.26691   0.00000     -0.000  -0.000  -0.000
    6  2 2s         0.17982   0.00000      0.000   0.000   0.000
    6  3 2py        1.08049   0.00000      0.000  -0.000  -0.000
    6  4 2pz        1.57725   0.00000     -0.000  -0.000  -0.000
    6  5 2px        0.97107   0.00000     -0.000  -0.000  -0.000
    6  6 2py        0.18725   0.00000      0.000   0.000   0.000
    6  7 2pz        0.02927   0.00000      0.000   0.000   0.000
    6  8 2px        0.25277   0.00000      0.000   0.000   0.000
    6  9 3Pdxy      0.00269   0.00000     -0.000  -0.000   0.000
    6 10 3Pdyz      0.00013   0.00000      0.000  -0.000  -0.000
    6 11 3Pdz2      0.00167   0.00000      0.000  -0.000   0.000
    6 12 3Pdxz      0.00288   0.00000     -0.000  -0.000  -0.000
    6 13 3Pdx2-y2   0.00302   0.00000     -0.000   0.000   0.000
    6     Total     5.55524   0.00000     -0.000  -0.000  -0.000

   21  1 2s         1.41213   0.00000      0.000  -0.000  -0.000
   21  2 2s         0.13213   0.00000     -0.000   0.000   0.000
   21  3 2py        0.87137   0.00000      0.000  -0.000  -0.000
   21  4 2pz        1.29315   0.00000     -0.000   0.000   0.000
   21  5 2px        1.15571   0.00000     -0.000   0.000  -0.000
   21  6 2py        0.28098   0.00000     -0.000  -0.000   0.000
   21  7 2pz        0.05018   0.00000      0.000   0.000   0.000
   21  8 2px        0.16533   0.00000      0.000   0.000   0.000
   21  9 3Pdxy      0.00658   0.00000      0.000  -0.000   0.000
   21 10 3Pdyz      0.00525   0.00000     -0.000  -0.000  -0.000
   21 11 3Pdz2     -0.00003   0.00000      0.000   0.000  -0.000
   21 12 3Pdxz      0.00579   0.00000      0.000   0.000  -0.000
   21 13 3Pdx2-y2   0.00558   0.00000     -0.000  -0.000  -0.000
   21     Total     5.38415   0.00000     -0.000   0.000  -0.000

   22  1 2s         1.28664   0.00000      0.000   0.000   0.000
   22  2 2s         0.17099   0.00000     -0.000  -0.000  -0.000
   22  3 2py        1.06839   0.00000     -0.000   0.000  -0.000
   22  4 2pz        1.56146   0.00000     -0.000  -0.000  -0.000
   22  5 2px        1.00186   0.00000     -0.000   0.000  -0.000
   22  6 2py        0.19345   0.00000      0.000  -0.000   0.000
   22  7 2pz        0.02776   0.00000      0.000   0.000   0.000
   22  8 2px        0.23291   0.00000      0.000  -0.000   0.000
   22  9 3Pdxy      0.00359   0.00000     -0.000   0.000   0.000
   22 10 3Pdyz      0.00013   0.00000     -0.000   0.000  -0.000
   22 11 3Pdz2      0.00259   0.00000     -0.000  -0.000   0.000
   22 12 3Pdxz      0.00279   0.00000     -0.000  -0.000   0.000
   22 13 3Pdx2-y2   0.00334   0.00000      0.000  -0.000  -0.000
   22     Total     5.55591   0.00000      0.000  -0.000  -0.000

   23  1 2s         1.39864   0.00000      0.000   0.000   0.000
   23  2 2s         0.11691   0.00000     -0.000  -0.000  -0.000
   23  3 2py        0.99611   0.00000      0.000  -0.000  -0.000
   23  4 2pz        1.51831   0.00000      0.000  -0.000  -0.000
   23  5 2px        1.07599   0.00000      0.000  -0.000  -0.000
   23  6 2py        0.22139   0.00000     -0.000   0.000   0.000
   23  7 2pz        0.00547   0.00000      0.000  -0.000   0.000
   23  8 2px        0.19208   0.00000     -0.000   0.000   0.000
   23  9 3Pdxy      0.00528   0.00000      0.000  -0.000   0.000
   23 10 3Pdyz      0.00451   0.00000      0.000  -0.000  -0.000
   23 11 3Pdz2      0.00049   0.00000     -0.000  -0.000  -0.000
   23 12 3Pdxz      0.00229   0.00000      0.000  -0.000  -0.000
   23 13 3Pdx2-y2   0.00119   0.00000     -0.000  -0.000  -0.000
   23     Total     5.53864   0.00000      0.000  -0.000  -0.000

----------------------------------------------------------------
Total              56.77679   0.00000     -0.000   0.000  -0.000


Species: Si                  

Atom      Orb        Charge      Spin       Svec
----------------------------------------------------------------
    7  1 3s         0.68891   0.00000      0.000   0.000   0.000
    7  2 3s         0.35788   0.00000     -0.000  -0.000   0.000
    7  3 3py        0.47560   0.00000      0.000   0.000   0.000
    7  4 3pz        0.69939   0.00000      0.000   0.000   0.000
    7  5 3px        0.13669   0.00000     -0.000  -0.000   0.000
    7  6 3py        0.27100   0.00000     -0.000   0.000   0.000
    7  7 3pz        0.25796   0.00000     -0.000   0.000   0.000
    7  8 3px        0.42213   0.00000      0.000   0.000   0.000
    7  9 3Pdxy      0.24287   0.00000     -0.000  -0.000   0.000
    7 10 3Pdyz      0.03040   0.00000     -0.000   0.000   0.000
    7 11 3Pdz2      0.01205   0.00000      0.000   0.000   0.000
    7 12 3Pdxz      0.13863   0.00000      0.000  -0.000  -0.000
    7 13 3Pdx2-y2   0.11311   0.00000      0.000   0.000   0.000
    7     Total     3.84662   0.00000     -0.000   0.000   0.000

    8  1 3s         0.64837   0.00000      0.000  -0.000   0.000
    8  2 3s         0.37119   0.00000     -0.000   0.000   0.000
    8  3 3py        0.38679   0.00000     -0.000  -0.000  -0.000
    8  4 3pz        0.52715   0.00000     -0.000   0.000  -0.000
    8  5 3px       -0.03202   0.00000      0.000   0.000   0.000
    8  6 3py        0.30468   0.00000      0.000   0.000   0.000
    8  7 3pz        0.20216   0.00000      0.000  -0.000   0.000
    8  8 3px        0.52012   0.00000     -0.000  -0.000  -0.000
    8  9 3Pdxy      0.25849   0.00000      0.000   0.000   0.000
    8 10 3Pdyz      0.11056   0.00000     -0.000   0.000  -0.000
    8 11 3Pdz2      0.01335   0.00000      0.000  -0.000   0.000
    8 12 3Pdxz      0.15560   0.00000     -0.000   0.000   0.000
    8 13 3Pdx2-y2   0.18794   0.00000     -0.000  -0.000   0.000
    8     Total     3.65439   0.00000     -0.000   0.000   0.000

    9  1 3s         0.62973   0.00000      0.000   0.000  -0.000
    9  2 3s         0.35577   0.00000     -0.000  -0.000   0.000
    9  3 3py        0.08566   0.00000     -0.000   0.000  -0.000
    9  4 3pz        0.48302   0.00000     -0.000   0.000  -0.000
    9  5 3px        0.37053   0.00000     -0.000  -0.000  -0.000
    9  6 3py        0.43875   0.00000      0.000  -0.000  -0.000
    9  7 3pz        0.18493   0.00000      0.000  -0.000  -0.000
    9  8 3px        0.26788   0.00000      0.000   0.000  -0.000
    9  9 3Pdxy      0.31373   0.00000     -0.000  -0.000   0.000
    9 10 3Pdyz      0.19155   0.00000      0.000  -0.000  -0.000
    9 11 3Pdz2      0.01619   0.00000      0.000   0.000  -0.000
    9 12 3Pdxz      0.08747   0.00000      0.000  -0.000  -0.000
    9 13 3Pdx2-y2   0.15457   0.00000     -0.000   0.000   0.000
    9     Total     3.57979   0.00000      0.000   0.000  -0.000

   10  1 3s         0.48400   0.00000      0.000   0.000   0.000
   10  2 3s         0.37948   0.00000     -0.000  -0.000   0.000
   10  3 3py        0.23990   0.00000      0.000  -0.000   0.000
   10  4 3pz        0.41025   0.00000      0.000   0.000   0.000
   10  5 3px        0.10267   0.00000      0.000   0.000   0.000
   10  6 3py        0.33618   0.00000     -0.000  -0.000   0.000
   10  7 3pz        0.22062   0.00000     -0.000  -0.000   0.000
   10  8 3px        0.42175   0.00000     -0.000  -0.000   0.000
   10  9 3Pdxy      0.16310   0.00000     -0.000   0.000  -0.000
   10 10 3Pdyz      0.14976   0.00000     -0.000   0.000   0.000
   10 11 3Pdz2      0.01140   0.00000     -0.000   0.000   0.000
   10 12 3Pdxz      0.16962   0.00000      0.000  -0.000   0.000
   10 13 3Pdx2-y2   0.32188   0.00000     -0.000   0.000  -0.000
   10     Total     3.41059   0.00000      0.000   0.000   0.000

   11  1 3s         0.55850   0.00000     -0.000  -0.000   0.000
   11  2 3s         0.38212   0.00000      0.000   0.000   0.000
   11  3 3py        0.30391   0.00000      0.000   0.000   0.000
   11  4 3pz        0.54255   0.00000     -0.000  -0.000   0.000
   11  5 3px        0.13781   0.00000     -0.000   0.000   0.000
   11  6 3py        0.30307   0.00000     -0.000  -0.000   0.000
   11  7 3pz        0.17712   0.00000      0.000   0.000   0.000
   11  8 3px        0.43236   0.00000      0.000  -0.000   0.000
   11  9 3Pdxy      0.24365   0.00000      0.000   0.000   0.000
   11 10 3Pdyz      0.12462   0.00000      0.000  -0.000   0.000
   11 11 3Pdz2      0.00937   0.00000     -0.000  -0.000  -0.000
   11 12 3Pdxz      0.05253   0.00000     -0.000   0.000   0.000
   11 13 3Pdx2-y2   0.18367   0.00000      0.000   0.000   0.000
   11     Total     3.45130   0.00000     -0.000  -0.000   0.000

   17  1 3s         0.64914   0.00000      0.000   0.000   0.000
   17  2 3s         0.35775   0.00000     -0.000  -0.000  -0.000
   17  3 3py        0.25100   0.00000     -0.000  -0.000  -0.000
   17  4 3pz        0.42788   0.00000      0.000  -0.000   0.000
   17  5 3px        0.22832   0.00000     -0.000  -0.000   0.000
   17  6 3py        0.37047   0.00000     -0.000   0.000   0.000
   17  7 3pz        0.21263   0.00000     -0.000   0.000   0.000
   17  8 3px        0.37581   0.00000     -0.000   0.000  -0.000
   17  9 3Pdxy      0.29620   0.00000      0.000  -0.000  -0.000
   17 10 3Pdyz      0.14007   0.00000      0.000  -0.000   0.000
   17 11 3Pdz2      0.00983   0.00000      0.000   0.000   0.000
   17 12 3Pdxz      0.14745   0.00000      0.000   0.000   0.000
   17 13 3Pdx2-y2   0.16953   0.00000     -0.000  -0.000   0.000
   17     Total     3.63607   0.00000      0.000  -0.000   0.000

   18  1 3s         0.74667   0.00000     -0.000   0.000   0.000
   18  2 3s         0.33778   0.00000     -0.000  -0.000   0.000
   18  3 3py        0.09018   0.00000     -0.000  -0.000   0.000
   18  4 3pz        0.83336   0.00000     -0.000   0.000   0.000
   18  5 3px        0.54553   0.00000     -0.000  -0.000   0.000
   18  6 3py        0.51271   0.00000      0.000  -0.000   0.000
   18  7 3pz        0.19691   0.00000      0.000  -0.000   0.000
   18  8 3px        0.25180   0.00000      0.000   0.000   0.000
   18  9 3Pdxy      0.10901   0.00000      0.000   0.000  -0.000
   18 10 3Pdyz      0.02762   0.00000     -0.000   0.000  -0.000
   18 11 3Pdz2      0.00943   0.00000     -0.000   0.000  -0.000
   18 12 3Pdxz      0.02911   0.00000     -0.000  -0.000  -0.000
   18 13 3Pdx2-y2   0.10680   0.00000     -0.000   0.000   0.000
   18     Total     3.79690   0.00000     -0.000   0.000   0.000

   19  1 3s         0.45369   0.00000     -0.000  -0.000   0.000
   19  2 3s         0.36565   0.00000      0.000   0.000  -0.000
   19  3 3py        0.07893   0.00000     -0.000   0.000   0.000
   19  4 3pz        0.41884   0.00000      0.000  -0.000  -0.000
   19  5 3px        0.34617   0.00000      0.000  -0.000   0.000
   19  6 3py        0.47066   0.00000      0.000  -0.000  -0.000
   19  7 3pz        0.18759   0.00000      0.000   0.000  -0.000
   19  8 3px        0.24298   0.00000     -0.000   0.000  -0.000
   19  9 3Pdxy      0.34831   0.00000     -0.000   0.000  -0.000
   19 10 3Pdyz      0.18939   0.00000      0.000  -0.000  -0.000
   19 11 3Pdz2      0.01592   0.00000      0.000  -0.000   0.000
   19 12 3Pdxz      0.08373   0.00000      0.000  -0.000   0.000
   19 13 3Pdx2-y2   0.22741   0.00000      0.000   0.000  -0.000
   19     Total     3.42925   0.00000      0.000  -0.000  -0.000

   20  1 3s         0.67264   0.00000      0.000   0.000   0.000
   20  2 3s         0.38010   0.00000     -0.000  -0.000  -0.000
   20  3 3py        0.33874   0.00000     -0.000  -0.000  -0.000
   20  4 3pz        0.57824   0.00000      0.000  -0.000  -0.000
   20  5 3px        0.13810   0.00000     -0.000  -0.000  -0.000
   20  6 3py        0.29040   0.00000      0.000   0.000   0.000
   20  7 3pz        0.16358   0.00000     -0.000   0.000  -0.000
   20  8 3px        0.49931   0.00000      0.000   0.000   0.000
   20  9 3Pdxy      0.10302   0.00000     -0.000  -0.000  -0.000
   20 10 3Pdyz      0.13523   0.00000     -0.000   0.000  -0.000
   20 11 3Pdz2      0.00729   0.00000     -0.000  -0.000   0.000
   20 12 3Pdxz      0.02695   0.00000      0.000   0.000   0.000
   20 13 3Pdx2-y2   0.17051   0.00000     -0.000   0.000  -0.000
   20     Total     3.50411   0.00000     -0.000   0.000  -0.000

----------------------------------------------------------------
Total              89.08581   0.00000     -0.000   0.000   0.000


Species: H                   

Atom      Orb        Charge      Spin       Svec
----------------------------------------------------------------
   12  1 1s         0.49240   0.00000     -0.000   0.000   0.000
   12  2 1s         0.18565   0.00000      0.000  -0.000   0.000
   12  3 2Ppy       0.02883   0.00000     -0.000   0.000  -0.000
   12  4 2Ppz       0.03583   0.00000      0.000  -0.000  -0.000
   12  5 2Ppx       0.02327   0.00000     -0.000   0.000  -0.000
   12     Total     0.76598   0.00000     -0.000   0.000   0.000

   13  1 1s         1.02000   0.00000     -0.000  -0.000  -0.000
   13  2 1s         0.09476   0.00000      0.000   0.000   0.000
   13  3 2Ppy       0.01983   0.00000      0.000   0.000  -0.000
   13  4 2Ppz       0.02011   0.00000      0.000   0.000   0.000
   13  5 2Ppx       0.03326   0.00000      0.000  -0.000   0.000
   13     Total     1.18796   0.00000     -0.000  -0.000  -0.000

   14  1 1s         0.46407   0.00000      0.000   0.000   0.000
   14  2 1s         0.19967   0.00000     -0.000  -0.000   0.000
   14  3 2Ppy       0.01827   0.00000      0.000   0.000  -0.000
   14  4 2Ppz       0.04714   0.00000      0.000   0.000   0.000
   14  5 2Ppx       0.01738   0.00000      0.000   0.000  -0.000
   14     Total     0.74654   0.00000      0.000   0.000   0.000

   15  1 1s         0.46943   0.00000     -0.000   0.000   0.000
   15  2 1s         0.19919   0.00000      0.000  -0.000   0.000
   15  3 2Ppy       0.00533   0.00000      0.000   0.000  -0.000
   15  4 2Ppz       0.04919   0.00000     -0.000   0.000   0.000
   15  5 2Ppx       0.02789   0.00000     -0.000  -0.000  -0.000
   15     Total     0.75102   0.00000     -0.000   0.000   0.000

   16  1 1s         0.50807   0.00000      0.000  -0.000   0.000
   16  2 1s         0.18753   0.00000      0.000  -0.000   0.000
   16  3 2Ppy       0.03005   0.00000      0.000  -0.000   0.000
   16  4 2Ppz       0.03955   0.00000     -0.000  -0.000  -0.000
   16  5 2Ppx       0.02320   0.00000     -0.000   0.000  -0.000
   16     Total     0.78839   0.00000     -0.000  -0.000   0.000

   24  1 1s         1.05806   0.00000      0.000   0.000  -0.000
   24  2 1s         0.07621   0.00000      0.000  -0.000   0.000
   24  3 2Ppy       0.03142   0.00000      0.000   0.000   0.000
   24  4 2Ppz       0.03145   0.00000     -0.000   0.000   0.000
   24  5 2Ppx       0.01751   0.00000      0.000   0.000  -0.000
   24     Total     1.21465   0.00000      0.000   0.000  -0.000

   25  1 1s         1.04751   0.00000      0.000  -0.000  -0.000
   25  2 1s         0.08434   0.00000     -0.000   0.000  -0.000
   25  3 2Ppy       0.01171   0.00000     -0.000   0.000  -0.000
   25  4 2Ppz       0.01782   0.00000      0.000  -0.000  -0.000
   25  5 2Ppx       0.03643   0.00000      0.000   0.000   0.000
   25     Total     1.19781   0.00000      0.000  -0.000  -0.000

   26  1 1s         0.47738   0.00000      0.000   0.000   0.000
   26  2 1s         0.19873   0.00000     -0.000  -0.000   0.000
   26  3 2Ppy       0.01871   0.00000      0.000   0.000   0.000
   26  4 2Ppz       0.05210   0.00000      0.000   0.000  -0.000
   26  5 2Ppx       0.01623   0.00000      0.000  -0.000  -0.000
   26     Total     0.76314   0.00000      0.000   0.000   0.000

   27  1 1s         0.46914   0.00000      0.000  -0.000  -0.000
   27  2 1s         0.19660   0.00000     -0.000   0.000   0.000
   27  3 2Ppy       0.00606   0.00000     -0.000   0.000  -0.000
   27  4 2Ppz       0.04434   0.00000     -0.000   0.000   0.000
   27  5 2Ppx       0.02867   0.00000      0.000   0.000  -0.000
   27     Total     0.74481   0.00000      0.000   0.000   0.000

   29  1 1s         0.48250   0.00000      0.000   0.000   0.000
   29  2 1s         0.18841   0.00000     -0.000  -0.000   0.000
   29  3 2Ppy       0.02520   0.00000     -0.000   0.000   0.000
   29  4 2Ppz       0.03399   0.00000     -0.000  -0.000  -0.000
   29  5 2Ppx       0.02378   0.00000      0.000   0.000   0.000
   29     Total     0.75389   0.00000      0.000  -0.000   0.000

----------------------------------------------------------------
Total              98.00000   0.00000     -0.000   0.000   0.000


siesta: Eigenvalues (eV):
ik =     1
  -21.9635  -21.9635  -21.8985  -21.8985  -21.7301  -21.7301  -21.5170  -21.5170  -21.3214  -21.3214
  -21.0420  -21.0420  -20.8375  -20.8375  -19.8787  -19.8787  -19.4696  -19.4696  -19.3858  -19.3858
  -14.7058  -14.7058  -13.9132  -13.9132  -13.2958  -13.2958  -13.1841  -13.1841  -13.1439  -13.1439
  -12.8508  -12.8508  -12.7996  -12.7996  -12.4996  -12.4996  -12.3695  -12.3695  -11.9381  -11.9381
  -11.4550  -11.4550  -10.7636  -10.7636  -10.7564  -10.7564  -10.6888  -10.6888  -10.0649  -10.0649
   -9.5505   -9.5505   -9.2061   -9.2061   -8.9856   -8.9856   -8.7713   -8.7713   -8.6383   -8.6383
   -8.6184   -8.6184   -8.3804   -8.3804   -8.2163   -8.2163   -7.7840   -7.7840   -7.6991   -7.6991
   -7.6432   -7.6432   -7.4396   -7.4396   -7.2896   -7.2896   -6.8571   -6.8571   -6.7534   -6.7534
   -6.5683   -6.5683   -6.5195   -6.5195   -6.2736   -6.2736   -6.1984   -6.1984   -6.1428   -6.1428
   -5.8911   -5.8911   -5.8602   -5.8602   -5.4311   -5.4311   -4.3913   -4.3913   -3.2028   -3.2028
   -2.4073   -2.4073   -2.3197   -2.3197   -2.2434   -2.2434   -1.9868   -1.9868   -1.8755   -1.8755
   -1.8579   -1.8579   -1.7534   -1.7534   -1.5760   -1.5760   -1.5278   -1.5278   -1.2641   -1.2641
   -0.9320   -0.9320   -0.8136   -0.8136   -0.4795   -0.4795   -0.1608   -0.1608    0.2840    0.2840
    0.3076    0.3076    0.3092    0.3092    0.6072    0.6072    0.7737    0.7737    0.7839    0.7839
    1.1847    1.1847    1.3071    1.3071    1.4156    1.4156    1.4653    1.4653    1.4765    1.4765
    1.6696    1.6696    1.9076    1.9076    2.2401    2.2401    2.3764    2.3764    2.6216    2.6216
    2.6846    2.6846    2.9633    2.9633    3.0287    3.0287    3.1475    3.1475    3.2909    3.2909
    3.3696    3.3696    3.7331    3.7331    3.8808    3.8808    4.1510    4.1510    4.3284    4.3284
    4.4682    4.4682    4.5261    4.5261    4.5438    4.5438    4.7162    4.7162    4.7604    4.7604
    4.8654    4.8654    5.1029    5.1029    5.2056    5.2056    5.5368    5.5368    5.5789    5.5789
    5.5997    5.5997    5.8159    5.8159    5.9148    5.9148    5.9335    5.9335    6.0661    6.0661
    6.2423    6.2423    6.2975    6.2975    6.5864    6.5864    6.6132    6.6132    6.8696    6.8696
    7.1144    7.1144    7.1759    7.1759    7.2407    7.2407    7.4752    7.4752    7.7743    7.7743
    7.7938    7.7938    8.0402    8.0402    8.1291    8.1291    8.1804    8.1804    8.2959    8.2959
    8.5677    8.5677    8.6565    8.6565    8.6666    8.6666    8.9453    8.9453    9.1354    9.1354
    9.1996    9.1996    9.2767    9.2767    9.7287    9.7287    9.7514    9.7514    9.7710    9.7710
    9.7755    9.7755   10.1962   10.1962   10.3243   10.3243   10.7909   10.7909   10.8388   10.8388
   10.9768   10.9768   10.9915   10.9915   11.0380   11.0380   11.8389   11.8389   11.9095   11.9095
   11.9542   11.9542   11.9908   11.9908   12.0569   12.0569   12.3226   12.3226   12.3760   12.3760
   12.7948   12.7948   12.8251   12.8251   13.3515   13.3515   13.5889   13.5889   13.7102   13.7102
   13.9480   13.9480   14.0388   14.0388   14.0721   14.0721   14.0948   14.0948   14.6533   14.6533
   15.0547   15.0547   15.5457   15.5457   15.8047   15.8047   16.1597   16.1597   16.7715   16.7715
   16.9048   16.9048   17.3711   17.3711   18.0986   18.0986   18.2068   18.2068   18.3346   18.3346
   18.4774   18.4774   19.2147   19.2147   19.5034   19.5034   20.0695   20.0695   20.2208   20.2208
   20.9884   20.9884   21.2100   21.2100   21.7902   21.7902   22.3758   22.3758   22.5410   22.5410
   23.0087   23.0087   23.1187   23.1187   23.5634   23.5634   23.7526   23.7526   23.9143   23.9143
   24.7776   24.7776   24.7875   24.7875   26.2827   26.2827   26.8976   26.8976   28.8186   28.8186
   28.8901   28.8901   28.9289   28.9289   29.4266   29.4266   29.7551   29.7551   29.9832   29.9832
   30.2602   30.2602   30.3896   30.3896   30.7745   30.7745   30.8741   30.8741   30.9732   30.9732
   30.9946   30.9946   31.2380   31.2380   31.5208   31.5208   31.7192   31.7192   32.3618   32.3618
   32.7658   32.7658   34.0814   34.0814   34.2512   34.2512   34.6039   34.6039   34.8480   34.8480
   35.1461   35.1461   35.1592   35.1592   35.3201   35.3201   35.4268   35.4268   36.0271   36.0271
   36.5902   36.5902   36.8738   36.8738   37.2472   37.2472   37.3124   37.3124   37.5910   37.5910
   38.0286   38.0286   38.2113   38.2113   39.2084   39.2084   39.3693   39.3693   39.9245   39.9245
   40.1224   40.1224   40.6941   40.6941   40.8384   40.8384   40.8569   40.8569   41.1505   41.1505
   41.3382   41.3382   41.3618   41.3618   42.5205   42.5205   42.8927   42.8927   43.2196   43.2196
   43.2922   43.2922   43.6869   43.6869   43.9224   43.9224   43.9777   43.9777   44.1250   44.1250
   44.6583   44.6583   44.6809   44.6809   44.8545   44.8545   45.3346   45.3346   46.2919   46.2919
   46.4345   46.4346   46.7357   46.7357   47.3732   47.3732   49.1123   49.1123   49.1737   49.1737
   49.3383   49.3383   50.3816   50.3816   50.9102   50.9102   51.0095   51.0095   51.1580   51.1580
   51.2570   51.2570   51.8207   51.8207   52.4898   52.4898   52.8546   52.8546   54.7117   54.7117
   54.7838   54.7838   54.9108   54.9108   55.2393   55.2393   55.7452   55.7452   55.7920   55.7920
   55.9687   55.9687   56.4389   56.4389   56.7201   56.7201   58.1498   58.1498   58.7061   58.7061
   59.1656   59.1656   60.2022   60.2022   60.3116   60.3116   60.9544   60.9544   61.4320   61.4320
   61.8107   61.8107   62.0116   62.0116   62.1790   62.1790   64.2701   64.2701   66.3767   66.3767
   67.1291   67.1291   67.2005   67.2005   68.7066   68.7066   68.9708   68.9708   70.6511   70.6511
   73.3894   73.3894   80.7791   80.7791   90.0980   90.0980   91.7286   91.7286   93.3858   93.3858
   98.2917   98.2917   99.3574   99.3574  100.3169  100.3169  103.3018  103.3018  103.5047  103.5047
  110.4197  110.4197  111.2638  111.2638  123.8248  123.8248  126.2311  126.2311  130.8228  130.8228
  139.8218  139.8218  141.1572  141.1572
siesta: Fermi energy =      -3.799546 eV

siesta: Program's energy decomposition (eV):
siesta: Ebs     =     -1137.164758
siesta: Eions   =      3585.165840
siesta: Ena     =       384.948850
siesta: Ekin    =      2907.354757
siesta: Enl     =     -2794.782496
siesta: Eso     =        -0.004257
siesta: Edftu   =         0.000000
siesta: DEna    =        47.461066
siesta: DUscf   =        14.372370
siesta: DUext   =         0.000000
siesta: Exc     =     -1120.602883
siesta: eta*DQ  =         0.000000
siesta: Emadel  =         0.000000
siesta: Emeta   =         0.000000
siesta: Emolmec =         0.000000
siesta: Ekinion =         0.000000
siesta: Eharris =     -4146.418433
siesta: Etot    =     -4146.418433
siesta: FreeEng =     -4146.418433

siesta: Final energy (eV):
siesta:  Band Struct. =   -1137.164758
siesta:       Kinetic =    2907.354757
siesta:       Hartree =    8182.194111
siesta:       Edftu   =       0.000000
siesta:       Eso     =      -0.004257
siesta:    Ext. field =       0.000000
siesta:   Exch.-corr. =   -1120.602883
siesta:  Ion-electron =  -18954.218736
siesta:       Ion-ion =    4838.858576
siesta:       Ekinion =       0.000000
siesta:         Total =   -4146.418433
siesta:         Fermi =      -3.799546

siesta: Atomic forces (eV/Ang):
siesta:      1   -0.476402    2.145202    0.000000
siesta:      2   -0.005501   -0.010202   -0.000000
siesta:      3   -0.040303    0.013154   -0.000000
siesta:      4   -0.060668   -0.016780   -0.000000
siesta:      5    0.010911   -0.055660   -0.000000
siesta:      6   -0.057098   -0.000871    0.000000
siesta:      7   -0.008525   -0.003448   -0.000000
siesta:      8    0.030250    0.035647    0.000000
siesta:      9    0.063307    0.001147    0.000000
siesta:     10    0.114437    0.031363    0.000000
siesta:     11   -0.031381    0.029272    0.000000
siesta:     12   -0.186785   -0.056759    0.000000
siesta:     13    0.071569    0.002440    0.000000
siesta:     14   -0.012100    0.020651   -0.000000
siesta:     15    0.156629    0.091766   -0.000000
siesta:     16    0.094278    0.191548   -0.000000
siesta:     17   -0.068598    0.003701    0.000000
siesta:     18    0.006837   -0.009837   -0.000000
siesta:     19   -0.001159    0.022559   -0.000000
siesta:     20   -0.013452   -0.003178    0.000000
siesta:     21    0.026141   -0.033875    0.000000
siesta:     22    0.048787    0.010371    0.000000
siesta:     23   -0.006963   -0.010041    0.000000
siesta:     24    0.009000    0.051860    0.000000
siesta:     25   -0.219681    0.110516    0.000000
siesta:     26   -0.173407    0.201225   -0.000000
siesta:     27    0.127111    0.057561   -0.000000
siesta:     28   -3.720481    2.592328   -0.000000
siesta:     29    0.040300    0.037556   -0.000000
siesta: ----------------------------------------
siesta:    Tot   -4.282947    5.449215   -0.000000

siesta: Stress tensor (static) (eV/Ang**3):
siesta:     0.000178    0.000228   -0.000000
siesta:     0.000228    0.000121    0.000000
siesta:    -0.000000   -0.000000   -0.000043

siesta: Cell volume =       5833.958641 Ang**3

siesta: Pressure (static):
siesta:                Solid            Molecule  Units
siesta:          -0.00000093          0.00000971  Ry/Bohr**3
siesta:          -0.00008534          0.00089175  eV/Ang**3
siesta:          -0.13673482          1.42875108  kBar
(Free)E+ p_basis*V_orbitals  =       -4126.568015
(Free)Eharris+ p_basis*V_orbitals  =       -4126.568015
     spin moment: S , {S} =    0.00000  -0.00000   0.00000   0.00000

siesta: Electric dipole (a.u.)  =    1.385154   -0.018402    0.000000
siesta: Electric dipole (Debye) =    3.520714   -0.046772    0.000000

cite: Please see "GC.bib" for an exhaustive BiBTeX file.
cite: Please clearly indicate Siesta version in published work: v4.1.5-1-g384057250
cite: This calculation has made use of the following articles
cite: which are encouraged to be cited in a published work.
        Primary SIESTA paper
          DOI: www.doi.org/10.1088/0953-8984/14/11/302
        Spin-orbit coupling (on-site approximation)
          DOI: www.doi.org/10.1088/0953-8984/19/19/489001


WARNING: alloc-realloc-dealloc name mismatch
         Name: atomlist isa
         Size:              -116. Bytes
         Node:     0
         Subsequent mismatches will not be reported
>> End of run:  22-MAY-2023  19:56:49
Job completed
