<?xml version="1.0" encoding="UTF-8" ?>
<psml version="1.1" energy_unit="hartree" length_unit="bohr"
 uuid="4855dd90-3e74-11ef-575f-b7d2fbcf1b99"
 xmlns="http://esl.cecam.org/PSML/ns/1.1">
<provenance creator="ATM4.2.7" date="10-JUL-24">
<annotation action="semilocal-pseudopotential-generation" />
<input-file name="INP">
<![CDATA[   pe        Silicon
        tm2    3.000
   Si   pbr 00000000
       0.0
    3    3
    3    0     1.000     1.000
    3    1     2.000     0.000
    3    2     0.000     0.000
   0.14270   2.22659   3.47430   0.00000   1.00000   0.00000
]]>
</input-file>
</provenance>
<pseudo-atom-spec atomic-label="Si" atomic-number="14" z-pseudo="4"
 flavor="Troullier-Martins" relativity="dirac" spin-dft="no"
 core-corrections="yes">
<annotation pseudo-energy="-8.93947934575" />
<exchange-correlation>
<annotation atom-xc-code="pb" siesta-xc-type="GGA" siesta-xc-authors="PBE" />
<libxc-info number-of-functionals="2">
<functional name="XC_GGA_X_PBE" type="XC_EXCHANGE" id="101" />
<functional name="XC_GGA_C_PBE" type="XC_CORRELATION" id="130" />
</libxc-info>
</exchange-correlation>
<valence-configuration total-valence-charge="4">
<shell n="3" l="s" occupation="2" />
<shell n="3" l="p" occupation="2" />
</valence-configuration>
</pseudo-atom-spec>
<grid npts="376">
<annotation type="sampled-log-atom"
 recipe="r(i:1..N) = a*(exp(b*(i-1))-1); resampled"
 recipe-cont="a: scale; b: step" scale="0.177053726905E-03"
 step="0.125000000000E-01" delta="0.500000000000E-02" rmax="20" />
<grid-data>
  0.000000000000E+00  5.062298916504E-03  1.011320763748E-02  1.517421232168E-02
  2.028757462025E-02  2.545126523066E-02  3.073659984152E-02  3.573948755673E-02
  4.103364701456E-02  4.652078806808E-02  5.208120548357E-02  5.757725458177E-02
  6.285843931485E-02  6.862254753887E-02  7.398094606465E-02  7.975667890972E-02
  8.491196174541E-02  9.039973175815E-02  9.624143252852E-02  1.024598906292E-01
  1.077221992951E-01  1.132543122957E-01  1.190700627951E-01  1.251839931988E-01
  1.316113915176E-01  1.366472912027E-01  1.418756226718E-01  1.473037391278E-01
  1.529392747540E-01  1.587901554511E-01  1.648646099843E-01  1.711711815565E-01
  1.777187398231E-01  1.845164933671E-01  1.915740026497E-01  1.989011934564E-01
  2.039408832776E-01  2.091081534541E-01  2.144062336978E-01  2.198384354815E-01
  2.254081541081E-01  2.311188708329E-01  2.369741550400E-01  2.429776664724E-01
  2.491331575204E-01  2.554444755661E-01  2.619155653888E-01  2.685504716302E-01
  2.753533413229E-01  2.823284264817E-01  2.894800867620E-01  2.968127921842E-01
  3.043311259280E-01  3.120397871966E-01  3.199435941544E-01  3.280474869379E-01
  3.363565307439E-01  3.448759189953E-01  3.536109765870E-01  3.625671632145E-01
  3.717500767859E-01  3.811654569212E-01  3.908191885393E-01  4.007173055369E-01
  4.057599358078E-01  4.108659945592E-01  4.160362796232E-01  4.212715988673E-01
  4.265727703208E-01  4.319406223026E-01  4.373759935504E-01  4.428797333520E-01
  4.484527016780E-01  4.540957693161E-01  4.598098180070E-01  4.655957405824E-01
  4.714544411046E-01  4.773868350073E-01  4.833938492393E-01  4.894764224088E-01
  4.956355049300E-01  5.018720591723E-01  5.081870596100E-01  5.145814929746E-01
  5.210563584094E-01  5.276126676253E-01  5.342514450590E-01  5.409737280329E-01
  5.477805669174E-01  5.546730252950E-01  5.616521801263E-01  5.687191219184E-01
  5.758749548954E-01  5.831207971708E-01  5.904577809221E-01  5.978870525679E-01
  6.054097729471E-01  6.130271175001E-01  6.207402764524E-01  6.285504550008E-01
  6.364588735016E-01  6.444667676612E-01  6.525753887295E-01  6.607860036950E-01
  6.690998954829E-01  6.775183631558E-01  6.860427221164E-01  6.946743043131E-01
  7.034144584481E-01  7.122645501884E-01  7.212259623788E-01  7.303000952582E-01
  7.394883666782E-01  7.487922123251E-01  7.582130859435E-01  7.677524595643E-01
  7.774118237338E-01  7.871926877475E-01  7.970965798852E-01  8.071250476502E-01
  8.172796580110E-01  8.275619976462E-01  8.379736731922E-01  8.485163114945E-01
  8.591915598618E-01  8.700010863233E-01  8.809465798897E-01  8.920297508164E-01
  9.032523308716E-01  9.146160736062E-01  9.261227546280E-01  9.377741718795E-01
  9.495721459183E-01  9.615185202018E-01  9.736151613753E-01  9.858639595636E-01
  9.982668286664E-01  1.010825706657E+00  1.023542555886E+00  1.036419363387E+00
  1.049458141187E+00  1.062660926621E+00  1.076029782653E+00  1.089566798192E+00
  1.103274088425E+00  1.117153795144E+00  1.131208087081E+00  1.145439160249E+00
  1.159849238280E+00  1.174440572780E+00  1.189215443674E+00  1.204176159565E+00
  1.219325058096E+00  1.234664506314E+00  1.250196901037E+00  1.265924669235E+00
  1.281850268402E+00  1.297976186948E+00  1.314304944578E+00  1.330839092694E+00
  1.347581214792E+00  1.364533926861E+00  1.381699877797E+00  1.399081749816E+00
  1.416682258869E+00  1.434504155072E+00  1.452550223133E+00  1.470823282787E+00
  1.489326189236E+00  1.508061833597E+00  1.527033143353E+00  1.546243082810E+00
  1.565694653559E+00  1.585390894947E+00  1.605334884554E+00  1.625529738668E+00
  1.645978612775E+00  1.666684702055E+00  1.687651241875E+00  1.708881508300E+00
  1.730378818602E+00  1.752146531781E+00  1.774188049085E+00  1.796506814546E+00
  1.819106315517E+00  1.841990083215E+00  1.865161693277E+00  1.888624766313E+00
  1.912382968477E+00  1.936440012034E+00  1.960799655949E+00  1.985465706464E+00
  2.010442017700E+00  2.035732492256E+00  2.061341081822E+00  2.087271787790E+00
  2.113528661886E+00  2.140115806801E+00  2.167037376830E+00  2.194297578523E+00
  2.221900671342E+00  2.249850968327E+00  2.278152836767E+00  2.306810698888E+00
  2.335829032539E+00  2.365212371894E+00  2.394965308159E+00  2.425092490291E+00
  2.455598625723E+00  2.486488481102E+00  2.517766883029E+00  2.549438718820E+00
  2.581508937262E+00  2.613982549393E+00  2.646864629280E+00  2.680160314816E+00
  2.713874808519E+00  2.748013378347E+00  2.782581358521E+00  2.817584150359E+00
  2.853027223118E+00  2.888916114849E+00  2.925256433267E+00  2.962053856618E+00
  2.999314134576E+00  3.037043089135E+00  3.075246615520E+00  3.113930683110E+00
  3.153101336371E+00  3.192764695795E+00  3.232926958863E+00  3.273594401011E+00
  3.314773376610E+00  3.356470319957E+00  3.398691746286E+00  3.441444252780E+00
  3.484734519605E+00  3.528569310954E+00  3.572955476101E+00  3.617899950476E+00
  3.663409756744E+00  3.709492005904E+00  3.756153898402E+00  3.803402725254E+00
  3.851245869185E+00  3.899690805783E+00  3.948745104669E+00  3.998416430676E+00
  4.048712545051E+00  4.099641306662E+00  4.151210673234E+00  4.203428702584E+00
  4.256303553885E+00  4.309843488942E+00  4.364056873477E+00  4.418952178442E+00
  4.474537981341E+00  4.530822967568E+00  4.587815931766E+00  4.645525779203E+00
  4.703961527159E+00  4.763132306339E+00  4.823047362298E+00  4.883716056884E+00
  4.945147869706E+00  5.007352399608E+00  5.070339366175E+00  5.134118611249E+00
  5.198700100466E+00  5.264093924816E+00  5.330310302216E+00  5.397359579111E+00
  5.465252232086E+00  5.533998869506E+00  5.603610233174E+00  5.674097200006E+00
  5.745470783735E+00  5.817742136628E+00  5.890922551231E+00  5.965023462133E+00
  6.040056447752E+00  6.116033232145E+00  6.192965686838E+00  6.270865832684E+00
  6.349745841740E+00  6.429618039168E+00  6.510494905160E+00  6.592389076892E+00
  6.675313350494E+00  6.759280683053E+00  6.844304194636E+00  6.930397170340E+00
  7.017573062366E+00  7.105845492126E+00  7.195228252365E+00  7.285735309323E+00
  7.377380804911E+00  7.470179058924E+00  7.564144571278E+00  7.659292024276E+00
  7.755636284901E+00  7.853192407139E+00  7.951975634333E+00  8.052001401564E+00
  8.153285338060E+00  8.255843269644E+00  8.359691221200E+00  8.464845419182E+00
  8.571322294148E+00  8.679138483326E+00  8.788310833214E+00  8.898856402216E+00
  9.010792463300E+00  9.124136506704E+00  9.238906242665E+00  9.355119604189E+00
  9.472794749849E+00  9.591950066626E+00  9.712604172781E+00  9.834775920763E+00
  9.958484400157E+00  1.008374894066E+01  1.021058911512E+01  1.033902474257E+01
  1.046907589134E+01  1.060076288217E+01  1.073410629144E+01  1.086912695432E+01
  1.100584596807E+01  1.114428469530E+01  1.128446476736E+01  1.142640808766E+01
  1.157013683513E+01  1.171567346769E+01  1.186304072574E+01  1.201226163569E+01
  1.216335951363E+01  1.231635796891E+01  1.247128090784E+01  1.262815253745E+01
  1.278699736925E+01  1.294784022307E+01  1.311070623093E+01  1.327562084098E+01
  1.344260982147E+01  1.361169926475E+01  1.378291559140E+01  1.395628555431E+01
  1.413183624291E+01  1.430959508733E+01  1.448958986276E+01  1.467184869376E+01
  1.485640005863E+01  1.504327279389E+01  1.523249609880E+01  1.542409953989E+01
  1.561811305557E+01  1.581456696086E+01  1.601349195207E+01  1.621491911165E+01
  1.641887991299E+01  1.662540622539E+01  1.683453031900E+01  1.704628486989E+01
  1.726070296514E+01  1.747781810800E+01  1.769766422317E+01  1.792027566205E+01
  1.814568720812E+01  1.837393408240E+01  1.860505194893E+01  1.883907692034E+01
  1.907604556351E+01  1.931599490528E+01  1.955896243822E+01  1.980498612650E+01
</grid-data>
</grid>
<valence-charge total-charge="4" is-unscreening-charge="yes"
 rescaled-to-z-pseudo="no">
<radfunc>
<data>
  1.135887501876E-01  1.136000634572E-01  1.136339016153E-01  1.136904002854E-01
  1.137704516314E-01  1.138747200732E-01  1.140058284063E-01  1.141526570004E-01
  1.143321061813E-01  1.145442216682E-01  1.147863001481E-01  1.150524171506E-01
  1.153332736849E-01  1.156679410744E-01  1.160053882076E-01  1.163975380185E-01
  1.167724709513E-01  1.171974069652E-01  1.176790148961E-01  1.182248538852E-01
  1.187134922660E-01  1.192536082458E-01  1.198506275764E-01  1.205105488890E-01
  1.212400044281E-01  1.218371108244E-01  1.224808153284E-01  1.231747584723E-01
  1.239228660211E-01  1.247293714574E-01  1.255988402604E-01  1.265361961252E-01
  1.275467492804E-01  1.286362270770E-01  1.298108070331E-01  1.310771525361E-01
  1.319758904603E-01  1.329208637258E-01  1.339144576539E-01  1.349591813492E-01
  1.360576741895E-01  1.372127126615E-01  1.384272175584E-01  1.397042615591E-01
  1.410470772090E-01  1.424590653215E-01  1.439438038219E-01  1.455050570547E-01
  1.471467855761E-01  1.488731564530E-01  1.506885540909E-01  1.525975916114E-01
  1.546051227992E-01  1.567162546376E-01  1.589363604493E-01  1.612710936535E-01
  1.637264021509E-01  1.663085433358E-01  1.690240997326E-01  1.718799952387E-01
  1.748835119471E-01  1.780423075009E-01  1.813644329135E-01  1.848583507601E-01
  1.866724934717E-01  1.885329536128E-01  1.904409129791E-01  1.923975825486E-01
  1.944042030480E-01  1.964620455091E-01  1.985724118137E-01  2.007366352226E-01
  2.029560808850E-01  2.052321463239E-01  2.075662618938E-01  2.099598912034E-01
  2.124145314990E-01  2.149317140012E-01  2.175130041872E-01  2.201600020110E-01
  2.228743420522E-01  2.256576935820E-01  2.285117605369E-01  2.314382813864E-01
  2.344390288802E-01  2.375158096616E-01  2.406704637271E-01  2.439048637165E-01
  2.472209140108E-01  2.506205496162E-01  2.541057348082E-01  2.576784615103E-01
  2.613407473754E-01  2.650946335383E-01  2.689421820030E-01  2.728854726257E-01
  2.769265996519E-01  2.810676677597E-01  2.853107875611E-01  2.896580705057E-01
  2.941116231288E-01  2.986735405809E-01  3.033458993712E-01  3.081307492517E-01
  3.130301041647E-01  3.180459321727E-01  3.231801442809E-01  3.284345820626E-01
  3.338110039895E-01  3.393110703654E-01  3.449363267609E-01  3.506881858383E-01
  3.565679074582E-01  3.625765769573E-01  3.687150814834E-01  3.749840842812E-01
  3.813839968222E-01  3.879149486793E-01  3.945767550566E-01  4.013688818968E-01
  4.082904085049E-01  4.153399876474E-01  4.225158031134E-01  4.298155247532E-01
  4.372362610496E-01  4.447745093206E-01  4.524261037057E-01  4.601861611469E-01
  4.680490256452E-01  4.760082111513E-01  4.840563435363E-01  4.921851021846E-01
  5.003851618563E-01  5.086461355791E-01  5.169565194526E-01  5.253036403708E-01
  5.336736078023E-01  5.420512708946E-01  5.504201823000E-01  5.587625702390E-01
  5.670593204277E-01  5.752899695849E-01  5.834327123038E-01  5.914644231036E-01
  5.993606954741E-01  6.070958996711E-01  6.146432609095E-01  6.219749594278E-01
  6.290622536466E-01  6.358756273218E-01  6.423849611824E-01  6.485597290485E-01
  6.543692178514E-01  6.597827703210E-01  6.647700483821E-01  6.693013145261E-01
  6.733477276113E-01  6.768816487275E-01  6.798769519605E-01  6.823093341547E-01
  6.841566171253E-01  6.853990352713E-01  6.860195012101E-01  6.860038419626E-01
  6.853409983726E-01  6.840231809077E-01  6.820459757684E-01  6.794083963559E-01
  6.761128766223E-01  6.721652046488E-01  6.675743969572E-01  6.623525165396E-01
  6.565144403682E-01  6.500775851878E-01  6.430616036864E-01  6.354880666432E-01
  6.273801503684E-01  6.187623526426E-01  6.096602637898E-01  6.001004129004E-01
  5.901101696639E-01  5.797176472418E-01  5.689515980327E-01  5.578413115021E-01
  5.464165044356E-01  5.347072072338E-01  5.227436455760E-01  5.105561202420E-01
  4.981748889428E-01  4.856300284407E-01  4.729512818152E-01  4.601679557491E-01
  4.473087793498E-01  4.344017852439E-01  4.214741884694E-01  4.085522743763E-01
  3.956612968226E-01  3.828253904433E-01  3.700675025372E-01  3.574093499127E-01
  3.448713877752E-01  3.324728096500E-01  3.202316079950E-01  3.081645559759E-01
  2.962872054381E-01  2.846138897872E-01  2.731577283725E-01  2.619306367870E-01
  2.509433420181E-01  2.402054019228E-01  2.297252288416E-01  2.195101169928E-01
  2.095662733080E-01  1.998988513708E-01  1.905119881154E-01  1.814088429454E-01
  1.725916389366E-01  1.640617057902E-01  1.558195242266E-01  1.478647714914E-01
  1.401963676927E-01  1.328125226779E-01  1.257107831832E-01  1.188880800049E-01
  1.123407749534E-01  1.060647073764E-01  1.000552400463E-01  9.430730423142E-02
  8.881544378457E-02  8.357385810015E-02  7.857644380838E-02  7.381683509083E-02
  6.928844251664E-02  6.498449031395E-02  6.089805200483E-02  5.702208434177E-02
  5.334945950390E-02  4.987299551475E-02  4.658548485404E-02  4.347972125102E-02
  4.054852465245E-02  3.778476436749E-02  3.518138040014E-02  3.273140298724E-02
  3.042797036760E-02  2.826434481441E-02  2.623392696986E-02  2.433026852686E-02
  2.254708330883E-02  2.087825680371E-02  1.931785421344E-02  1.786012708474E-02
  1.649951859110E-02  1.523066753898E-02  1.404841117468E-02  1.294778686992E-02
  1.192403276631E-02  1.097258745938E-02  1.008908880346E-02  9.269371917919E-03
  8.509466474643E-03  7.805593344818E-03  7.154160681041E-03  6.551759508180E-03
  5.995158893404E-03  5.481300762416E-03  5.007294425266E-03  4.570410871245E-03
  4.168076888295E-03  3.797869058230E-03  3.457507674832E-03  3.144850627718E-03
  2.857887290681E-03  2.594732449166E-03  2.353620297556E-03  2.132898533195E-03
  1.931022570366E-03  1.746549894090E-03  1.578134570279E-03  1.424521925834E-03
  1.284543409417E-03  1.157111641059E-03  1.041215656424E-03  9.359163493759E-04
  8.403421146194E-04  7.536846904570E-04  6.751952002223E-04  6.041803896631E-04
  5.399990564492E-04  4.820586670668E-04  4.298121556245E-04  3.827548985138E-04
  3.404218584374E-04  3.023848910171E-04  2.682502070180E-04  2.376559831459E-04
  2.102701143936E-04  1.857881010006E-04  1.639310632404E-04  1.444438774528E-04
  1.270934269703E-04  1.116669618510E-04  9.797056160295E-05  8.582769537031E-05
  7.507787432981E-05  6.557539132548E-05  5.718814303291E-05  4.979653019837E-05
  4.329243173478E-05  3.757824867776E-05  3.256601420930E-05  2.817656614468E-05
  2.433877845105E-05  2.098884852420E-05  1.806963709587E-05  1.553005777821E-05
  1.332451337659E-05  1.141237621842E-05  9.757509855572E-06  8.327829602692E-06
  7.094899473749E-06  6.033563176860E-06  5.121606922257E-06  4.339451891673E-06
  3.669874309731E-06  3.097751149271E-06  2.609829593411E-06  2.194518467350E-06
  1.841699942566E-06  1.542559905057E-06  1.289435467304E-06  1.075678190618E-06
  8.955316701583E-07  7.440222188567E-07  6.168614685695E-07  5.103597866561E-07
  4.213494836438E-07  3.471168624209E-07  2.853422313163E-07  2.340470722889E-07
  1.915476211216E-07  1.564141788902E-07  1.274355329737E-07  1.035879214527E-07
  8.400802689655E-08  6.796953428219E-08  5.486283317121E-08  4.417748635784E-08
  3.548712608902E-08  2.843647475091E-08  2.273021974150E-08  1.812350224144E-08
  1.441380689979E-08  1.143406422002E-08  9.046799819695E-09  7.139184901772E-09
  5.618860374377E-09  4.410423243332E-09  3.452478329904E-09  2.695171181933E-09
  2.098129390715E-09  1.628749533500E-09  1.260775759491E-09  9.731237456892E-10
  7.489104797391E-10  5.746561841394E-10  4.396297758254E-10  3.353136454390E-10
  2.549673222148E-10  1.932728365768E-10  1.460473695687E-10  1.100111457005E-10
  8.260053736978E-11  6.181805147609E-11  4.611230800440E-11  3.428231869820E-11
</data>
</radfunc>
</valence-charge>
<pseudocore-charge matching-radius="1.18921544367"
 number-of-continuous-derivatives="2">
<annotation model-core-charge="Three-parameter Martins fit" />
<radfunc>
<data>
  8.547146806439E+01  8.546249112651E+01  8.543564702276E+01  8.539084635700E+01
  8.532741285463E+01  8.524486550298E+01  8.514119145522E+01  8.502524762853E+01
  8.488377548457E+01  8.471687683871E+01  8.452683381988E+01  8.431844868437E+01
  8.409912115921E+01  8.383857288988E+01  8.357673993095E+01  8.327356714668E+01
  8.298481149752E+01  8.265884824818E+01  8.229107809926E+01  8.187638758193E+01
  8.150706227154E+01  8.110091480248E+01  8.065451213703E+01  8.016415308572E+01
  7.962585908164E+01  7.918812790209E+01  7.871913743172E+01  7.821689292038E+01
  7.767931024556E+01  7.710421835679E+01  7.648936313199E+01  7.583241288501E+01
  7.513096578825E+01  7.438255949888E+01  7.358468330110E+01  7.273479309826E+01
  7.213803911061E+01  7.151627251058E+01  7.086874012228E+01  7.019469694272E+01
  6.949341018748E+01  6.876416374583E+01  6.800626306420E+01  6.721904047574E+01
  6.640186099064E+01  6.555412855947E+01  6.467529281746E+01  6.376485631334E+01
  6.282238222071E+01  6.184750252311E+01  6.083992665660E+01  5.979945058433E+01
  5.872596626790E+01  5.761947148844E+01  5.648007995780E+01  5.530803164610E+01
  5.410370323624E+01  5.286761859977E+01  5.160045917020E+01  5.030307407171E+01
  4.897648984156E+01  4.762191956522E+01  4.624077122349E+01  4.483465503238E+01
  4.412279401421E+01  4.340538953907E+01  4.268270223253E+01  4.195500622169E+01
  4.122258917838E+01  4.048575232845E+01  3.974481042496E+01  3.900009168303E+01
  3.825193767442E+01  3.750070317941E+01  3.674675599424E+01  3.599047669193E+01
  3.523225833465E+01  3.447250613586E+01  3.371163707052E+01  3.295007943188E+01
  3.218827233352E+01  3.142666515540E+01  3.066571693310E+01  2.990589568951E+01
  2.914767770847E+01  2.839154675027E+01  2.763799320919E+01  2.688751321358E+01
  2.614060766920E+01  2.539778124729E+01  2.465954131878E+01  2.392639683682E+01
  2.319885717006E+01  2.247743088965E+01  2.176262451329E+01  2.105494121023E+01
  2.035487947158E+01  1.966293175064E+01  1.897958307859E+01  1.830530966126E+01
  1.764057746310E+01  1.698584078505E+01  1.634154084319E+01  1.570810435561E+01
  1.508594214517E+01  1.447544776624E+01  1.387699616340E+01  1.329094237086E+01
  1.271762026086E+01  1.215734134976E+01  1.161039367041E+01  1.107704071925E+01
  1.055752048649E+01  1.005204457737E+01  9.560797432295E+00  9.083935652998E+00
  8.621587441633E+00  8.173852158791E+00  7.740800005960E+00  7.322471837059E+00
  6.918879102825E+00  6.530003930906E+00  6.155799343519E+00  5.796189613433E+00
  5.451070757969E+00  5.120311169552E+00  4.803752380156E+00  4.501209955847E+00
  4.212474516432E+00  3.937312874061E+00  3.675469283537E+00  3.426666795999E+00
  3.190608706657E+00  2.966980086335E+00  2.755449385761E+00  2.555670100832E+00
  2.367282486489E+00  2.189915306404E+00  2.023187605341E+00  1.866710490927E+00
  1.720088911528E+00  1.582923417106E+00  1.454811890214E+00  1.335351234763E+00
  1.224139010788E+00  1.120775004190E+00  1.024862721290E+00  9.360107990352E-01
  8.538343227605E-01  7.779560445783E-01  7.080074967055E-01  6.436257594690E-01
  5.844439284439E-01  5.301081035231E-01  4.802818957343E-01  4.346460939808E-01
  3.928983515825E-01  3.547528785302E-01  3.199401200663E-01  2.882064012191E-01
  2.593135205079E-01  2.330382831473E-01  2.091719727368E-01  1.875197684537E-01
  1.679001205115E-01  1.501440993771E-01  1.340947341491E-01  1.196063533891E-01
  1.065439385950E-01  9.478249724612E-02  8.420645953484E-02  7.470910074644E-02
  6.619198980537E-02  5.856446363893E-02  5.174312657468E-02  4.565137382826E-02
  4.021893813766E-02  3.538145867363E-02  3.108007145221E-02  2.726102056637E-02
  2.387528962493E-02  2.087825283621E-02  1.822934520159E-02  1.589175129409E-02
  1.383211209463E-02  1.202024934657E-02  1.042890687256E-02  9.033508278546E-03
  7.811930451139E-03  6.744292236961E-03  5.812757678553E-03  5.001353170106E-03
  4.295797889203E-03  3.683346857260E-03  3.152645981734E-03  2.693598437052E-03
  2.297241748449E-03  1.955634953073E-03  1.661755225590E-03  1.409403370747E-03
  1.193117602571E-03  1.008095048827E-03  8.501204397618E-04  7.155014616515E-04
  6.010102781263E-04  5.038307453106E-04  4.215108703401E-04  3.519200865711E-04
  2.932109426017E-04  2.437848259042E-04  2.022613652845E-04  1.674511793836E-04
  1.383316609157E-04  1.140255081771E-04  9.378173648674E-05  7.695892253879E-05
  6.301045412118E-05  5.147157621428E-05  4.194804210887E-05  3.410619484507E-05
  2.766431996071E-05  2.238512524715E-05  1.806921695086E-05  1.454945464173E-05
  1.168607881779E-05  9.362516256200E-06  7.481778186041E-06  5.963375583480E-06
  4.740684316189E-06  3.758700531260E-06  2.972133633810E-06  2.343790486002E-06
  1.843210113065E-06  1.445513278648E-06  1.130435830310E-06  8.815187599835E-07
  6.854315152313E-07  5.314082747947E-07  4.107797041745E-07  3.165851696501E-07
  2.432525458686E-07  1.863346344288E-07  1.422928479650E-07  1.083202330936E-07
  8.219713103772E-08  6.217382943081E-08  4.687546333878E-08  3.522519655397E-08
  2.638237248004E-08  1.969288247256E-08  1.464947172430E-08  1.086010057352E-08
  8.022812981972E-09  5.905843108738E-09  4.331923488950E-09  3.165951363998E-09
  2.305329317266E-09  1.672427834070E-09  1.208725270230E-09  8.702688729131E-10
  6.241722671765E-10  4.459230174907E-10  3.173208736990E-10  2.249051158958E-10
  1.587596974365E-10  1.116090457607E-10  7.813657521077E-11  5.447315121421E-11
  3.781470758932E-11  2.613760192955E-11  1.798762229699E-11  1.232425682055E-11
  8.406249215019E-12  5.707863137065E-12  3.857886810932E-12  2.595401592431E-12
  1.737852700654E-12  1.158106415650E-12  7.680411997153E-13  5.068672024168E-13
  3.328512601666E-13  2.174828032948E-13  1.413807700052E-13  9.143618784855E-14
  5.882738133121E-14  3.764831050244E-14  2.396550671285E-14  1.517305788583E-14
  9.553771737187E-15  5.982206140496E-15  3.724790261893E-15  2.306030370598E-15
  1.419447827648E-15  8.686266825147E-16  5.284135773581E-16  3.195282302472E-16
  1.920463227466E-16  1.147178296117E-16  6.810050192898E-17  4.017261458920E-17
  2.354701341151E-17  1.371300656433E-17  7.933876615782E-18  4.559933400948E-18
  2.603249847470E-18  1.476118041561E-18  8.312609683646E-19  4.648657109826E-19
  2.581391029131E-19  1.423239995284E-19  7.790440292007E-20  4.233176727735E-20
  2.283241686446E-20  1.222302078779E-20  6.493906263174E-21  3.423682000887E-21
  1.791015787233E-21  9.295701160680E-22  4.786293084517E-22  2.444600847724E-22
  1.238410938762E-22  6.221940343987E-23  3.099892987723E-23  1.531377866560E-23
  7.500449528416E-24  3.641794044711E-24  1.752749944663E-24  8.360914671223E-25
  3.952474189094E-25  1.851472646090E-25  8.593093765987E-26  3.951083217534E-26
  1.799562560979E-26  8.118036884726E-27  3.626744124983E-27  1.604399549403E-27
  7.027245410713E-28  3.047062013324E-28  1.307817081965E-28  5.555556344651E-29
  2.335433898391E-29  9.714289401307E-30  3.997617306175E-30  1.627349072471E-30
  6.552265190844E-31  2.609003591407E-31  1.027237529843E-31  3.998709844599E-32
  1.538724378787E-32  5.852374508814E-33  2.199740276803E-33  8.169880315522E-34
  2.997790094374E-34  1.086584501514E-34  3.889890233559E-35  1.375171315955E-35
  4.800154483489E-36  1.654112998029E-36  5.626243838543E-37  1.888628218555E-37
  6.255749422518E-38  2.044310344847E-38  6.589885275630E-39  2.095080104090E-39
  6.568143629264E-40  2.030161725972E-40  6.185725658768E-41  1.857582124559E-41
  5.497020522262E-42  1.602701256018E-42  4.603062886323E-43  1.302065680782E-43
  3.626873321806E-44  9.946415860689E-45  2.685073341414E-45  7.133798506870E-46
</data>
</radfunc>
</pseudocore-charge>
<semilocal-potentials set="scalar_relativistic">
<slps n="3" l="s" rc="1.66668470205" flavor="Troullier-Martins">
<radfunc>
<data>
  1.936343462459E+00  1.936299411852E+00  1.936167603366E+00  1.935947351172E+00
  1.935634907672E+00  1.935227286714E+00  1.934713686707E+00  1.934137116482E+00
  1.933430466211E+00  1.932592375775E+00  1.931632204146E+00  1.930572167455E+00
  1.929448314430E+00  1.928102337222E+00  1.926737747166E+00  1.925142643122E+00
  1.923608293050E+00  1.921858444417E+00  1.919861392466E+00  1.917580412286E+00
  1.915522784370E+00  1.913231340764E+00  1.910677892083E+00  1.907830562512E+00
  1.904653265296E+00  1.902029346638E+00  1.899177674395E+00  1.896077069950E+00
  1.892704222852E+00  1.889033462369E+00  1.885036504209E+00  1.880682169847E+00
  1.875936075691E+00  1.870760289049E+00  1.865112947614E+00  1.858947838857E+00
  1.854525132432E+00  1.849833325837E+00  1.844854882407E+00  1.839571062689E+00
  1.833961841052E+00  1.828005816708E+00  1.821680118811E+00  1.814960305251E+00
  1.807820254750E+00  1.800232051842E+00  1.792165864278E+00  1.783589812400E+00
  1.774469829972E+00  1.764769515963E+00  1.754449976733E+00  1.743469658064E+00
  1.731784166478E+00  1.719346079272E+00  1.706104742721E+00  1.692006057935E+00
  1.676992253902E+00  1.661001647359E+00  1.643968389241E+00  1.625822197656E+00
  1.606488077591E+00  1.585886027854E+00  1.563930736253E+00  1.540531264524E+00
  1.528259925143E+00  1.515590725292E+00  1.502510570703E+00  1.489005954245E+00
  1.475062945735E+00  1.460667181895E+00  1.445803856487E+00  1.430457710740E+00
  1.414613024105E+00  1.398253605469E+00  1.381362784906E+00  1.363923406094E+00
  1.345917819530E+00  1.327327876680E+00  1.308134925245E+00  1.288319805713E+00
  1.267862849412E+00  1.246743878298E+00  1.224942206713E+00  1.202436645421E+00
  1.179205508225E+00  1.155226621506E+00  1.130477337084E+00  1.104934548811E+00
  1.078574713365E+00  1.051373875758E+00  1.023307700116E+00  9.943515063429E-01
  9.644803133192E-01  9.336688893748E-01  9.018918107902E-01  8.691235291673E-01
  8.353384485518E-01  8.005110132383E-01  7.646158072433E-01  7.276276664531E-01
  6.895218044830E-01  6.502739532795E-01  6.098605194749E-01  5.682587574444E-01
  5.254469599141E-01  4.814046668225E-01  4.361128929165E-01  3.895543742869E-01
  3.417138336721E-01  2.925782638993E-01  2.421372282756E-01  1.903831760697E-01
  1.373117704645E-01  8.292222550505E-02  2.721764763400E-02 -2.979462355673E-02
 -8.810268170035E-02 -1.476897344040E-01 -2.085338064025E-01 -2.706074737357E-01
 -3.338776378631E-01 -3.983053485950E-01 -4.638456842576E-01 -5.304476966288E-01
 -5.980544268732E-01 -6.666029970229E-01 -7.360247796488E-01 -8.062456463444E-01
 -8.771862937631E-01 -9.487626443555E-01 -1.020886317786E+00 -1.093465168241E+00
 -1.166403882188E+00 -1.239604629856E+00 -1.312967760538E+00 -1.386392524592E+00
 -1.459777790858E+00 -1.533022703101E+00 -1.606027178473E+00 -1.678692090500E+00
 -1.750918895980E+00 -1.822608361837E+00 -1.893657937351E+00 -1.963957215104E+00
 -2.033380986674E+00 -2.101779069760E+00 -2.168964093409E+00 -2.234697798457E+00
 -2.298655844642E+00 -2.360500251723E+00 -2.419590957840E+00 -2.475066018960E+00
 -2.526518674490E+00 -2.573539236829E+00 -2.615532457849E+00 -2.652076578970E+00
 -2.682868972027E+00 -2.707772964185E+00 -2.726821274542E+00 -2.740195915722E+00
 -2.748193033523E+00 -2.751178924859E+00 -2.749547759753E+00 -2.743688628992E+00
 -2.733966074120E+00 -2.720714300760E+00 -2.704242252187E+00 -2.684845181697E+00
 -2.662818249985E+00 -2.638468509894E+00 -2.612122845804E+00 -2.584130539506E+00
 -2.554860028715E+00 -2.524689249731E+00 -2.493991895626E+00 -2.463111156296E+00
 -2.432344031098E+00 -2.401888657547E+00 -2.371817265780E+00 -2.342144266801E+00
 -2.312857100713E+00 -2.283946304937E+00 -2.255412027666E+00 -2.227247095696E+00
 -2.199447921708E+00 -2.172009942776E+00 -2.144928832609E+00 -2.118171648357E+00
 -2.091779494829E+00 -2.065740233121E+00 -2.040043082325E+00 -2.014678504967E+00
 -1.989638100549E+00 -1.964914500315E+00 -1.940501259970E+00 -1.916392749900E+00
 -1.892584042853E+00 -1.869070804605E+00 -1.845849184511E+00 -1.822915697243E+00
 -1.800267176986E+00 -1.777900463584E+00 -1.755812078735E+00 -1.733998438305E+00
 -1.712456050349E+00 -1.691181485601E+00 -1.670171369515E+00 -1.649422382095E+00
 -1.628931252891E+00 -1.608694758669E+00 -1.588709721161E+00 -1.568973005296E+00
 -1.549481517726E+00 -1.530232205613E+00 -1.511222055592E+00 -1.492448092879E+00
 -1.473907380500E+00 -1.455597018596E+00 -1.437514143794E+00 -1.419655928640E+00
 -1.402019581054E+00 -1.384602343832E+00 -1.367401494158E+00 -1.350414343149E+00
 -1.333638235400E+00 -1.317070548557E+00 -1.300708692887E+00 -1.284550110866E+00
 -1.268592276773E+00 -1.252832696285E+00 -1.237268906089E+00 -1.221898473489E+00
 -1.206718996028E+00 -1.191728101108E+00 -1.176923445618E+00 -1.162302715568E+00
 -1.147863625727E+00 -1.133603919261E+00 -1.119521367386E+00 -1.105613769014E+00
 -1.091878950412E+00 -1.078314764859E+00 -1.064919092312E+00 -1.051689839073E+00
 -1.038624937464E+00 -1.025722345499E+00 -1.012980046570E+00 -1.000396049128E+00
 -9.879683863707E-01 -9.756951159383E-01 -9.635743196071E-01 -9.516041029901E-01