Siesta Version  : v4.1.5-1-g384057250
Architecture    : gcc
Compiler version: GNU Fortran (Debian 10.2.1-6) 10.2.1 20210110
Compiler flags  : mpifort -O2 -fPIC -ftree-vectorize -fallow-argument-mismatch
PP flags        : -DFC_HAVE_ABORT -DMPI -DSIESTA__FLOOK -DSIESTA__METIS -DSIESTA__MUMPS -DCDF -DNCDF -DNCDF_4 -DNCDF_PARALLEL -DSIESTA__MRRR -DSIESTA__ELPA
Libraries       : libncdf.a libfdict.a  -lflookall -ldl -lnetcdff -lnetcdf -lhdf5_hl -lhdf5 -lhdf5_fortran -lz -lscalapack-openmpi -lopenblas -lmetis -lzmumps -lcmumps -ldmumps -lmumps_common -lpord -lsmumps -lesmumps -lscotch -lscotcherr -fopenmp -lelpa
PARALLEL version
NetCDF support
NetCDF-4 support
NetCDF-4 MPI-IO support
METIS ordering support
Lua support

* Running on 6 nodes in parallel
>> Start of run:  22-MAY-2023   9:36:24

                           ***********************       
                           *  WELCOME TO SIESTA  *       
                           ***********************       

reinit: Reading from standard input
reinit: Dumped input in INPUT_TMP.87783
************************** Dump of input data file ****************************
SystemLabel      AT
NumberOfAtoms    30
NumberOfSpecies  4
%block ChemicalSpeciesLabel
    1    1  H
    2    7  N
    3   14  Si
    4    8  O
%endblock ChemicalSpeciesLabel
# Single point calculation
MD.TypeOfRun                CG
MD.Steps                    0
SCF.MustConverge            F # In case it does not. There can be 2 very close atoms
AtomicCoordinatesFormat NotScaledCartesianAng
%block AtomicCoordinatesAndAtomicSpecies
2.582377650    -5.776830440   0.000000000       1
1.654759240    -5.269361980   0.000000000       2
0.063128840    -6.101704590   0.000000000       3
0.119223240    -7.596849500   0.000000000       1
-1.376892050   -5.182603740   0.000000000       2
-0.824371900   -3.460866440   0.000000000       3
-1.170571480   -1.270002100   0.000000000       3
-2.706933680   -0.417515780   0.000000000       2
-2.754569660   0.634858620    0.000000000       1
-3.637675640   -0.909967860   0.000000000       1
0.218091790    -0.234193970   0.000000000       2
1.872004100    -0.697162300   0.000000000       3
2.828001130    0.461464770    0.000000000       1
2.648150080    -2.255024470   0.000000000       2
1.391921380    -3.454727220   0.000000000       3
1.905236635    4.401483503    0.000000000       2
0.577865115    5.611687803    0.000000000       3
1.217866385    6.973006043    0.000000000       1
-1.507880825   4.941156453    0.000000000       3
-3.537443425   6.071272643    0.000000000       3
-3.383207655   7.231502853    0.940305280       1
-4.523378145   5.049352023    0.512613700       1
-3.953658385   6.547498493    -1.366678340      1
-1.441385405   2.667179833    0.000000000       3
-2.480434135   1.474120333    0.000000000       4
0.215606175    2.033204643    0.000000000       2
0.197588805    0.970759813    0.000000000       1
1.839209245    2.630274853    0.000000000       3
3.034225415    1.615849653    0.000000000       4
2.905274005    4.746990603    0.000000000       1
%endblock AtomicCoordinatesAndAtomicSpecies
%include ../../../Defaults.fdf
************************** End of input data file *****************************

reinit: -----------------------------------------------------------------------
reinit: System Name: 
reinit: -----------------------------------------------------------------------
reinit: System Label: AT
reinit: -----------------------------------------------------------------------

initatom: Reading input for the pseudopotentials and atomic orbitals ----------
Species number:   1 Atomic number:    1 Label: H
Species number:   2 Atomic number:    7 Label: N
Species number:   3 Atomic number:   14 Label: Si
Species number:   4 Atomic number:    8 Label: O

Ground state valence configuration:   1s01
Reading pseudopotential information in formatted form from H.psf

Pseudopotential generated from a relativistic atomic calculation

Valence configuration for pseudopotential generation:
1s( 1.00) rc: 0.01
2p( 0.00) rc: 0.60
3d( 0.00) rc: 1.99
4f( 0.00) rc: 2.49
Ground state valence configuration:   2s02  2p03
Reading pseudopotential information in formatted form from N.psf

Pseudopotential generated from a relativistic atomic calculation

Valence configuration for pseudopotential generation:
2s( 2.00) rc: 0.94
2p( 3.00) rc: 0.59
3d( 0.00) rc: 3.46
4f( 0.00) rc: 2.47
Ground state valence configuration:   3s02  3p02
Reading pseudopotential information in formatted form from Si.psf

Pseudopotential generated from a relativistic atomic calculation

Valence configuration for pseudopotential generation:
3s( 2.00) rc: 1.67
3p( 2.00) rc: 2.04
3d( 0.00) rc: 2.89
4f( 0.00) rc: 2.49
Ground state valence configuration:   2s02  2p04
Reading pseudopotential information in formatted form from O.psf

Pseudopotential generated from a relativistic atomic calculation

Valence configuration for pseudopotential generation:
2s( 2.00) rc: 0.45
2p( 4.00) rc: 0.92
3d( 0.00) rc: 2.24
4f( 0.00) rc: 0.25
For H, standard SIESTA heuristics set lmxkb to 2
 (one more than the basis l, including polarization orbitals).
Use PS.lmax or PS.KBprojectors blocks to override.
For N, standard SIESTA heuristics set lmxkb to 3
 (one more than the basis l, including polarization orbitals).
Use PS.lmax or PS.KBprojectors blocks to override.
For Si, standard SIESTA heuristics set lmxkb to 3
 (one more than the basis l, including polarization orbitals).
Use PS.lmax or PS.KBprojectors blocks to override.
For O, standard SIESTA heuristics set lmxkb to 3
 (one more than the basis l, including polarization orbitals).
Use PS.lmax or PS.KBprojectors blocks to override.

<basis_specs>
===============================================================================
H                    Z=   1    Mass=  1.0100        Charge= 0.17977+309
Lmxo=0 Lmxkb= 2    BasisType=split      Semic=F
L=0  Nsemic=0  Cnfigmx=1
          i=1  nzeta=2  polorb=1  (1s)
            splnorm:   0.62000    
               vcte:    0.0000    
               rinn:    0.0000    
               qcoe:    0.0000    
               qyuk:    0.0000    
               qwid:   0.10000E-01
                rcs:    0.0000      0.0000    
            lambdas:    1.0000      1.0000    
-------------------------------------------------------------------------------
L=0  Nkbl=1  erefs: 0.17977+309
L=1  Nkbl=1  erefs: 0.17977+309
L=2  Nkbl=1  erefs: 0.17977+309
===============================================================================
</basis_specs>

atom: Called for H                     (Z =   1)

read_vps: Pseudopotential generation method:
read_vps: ATM4.2.7  Troullier-Martins                       
Valence charge for ps generation:    1.00000

xc_check: Exchange-correlation functional:
xc_check: GGA Perdew, Burke & Ernzerhof 1996
V l=0 = -2*Zval/r beyond r=  0.0098
V l=1 = -2*Zval/r beyond r=  0.5817
V l=2 = -2*Zval/r beyond r=  1.9372
All V_l potentials equal beyond r=  1.9372
This should be close to max(r_c) in ps generation
All pots = -2*Zval/r beyond r=  1.9372

VLOCAL1: 99.0% of the norm of Vloc inside     11.567 Ry
VLOCAL1: 99.9% of the norm of Vloc inside     26.362 Ry
atom: Maximum radius for 4*pi*r*r*local-pseudopot. charge    2.25106
atom: Maximum radius for r*vlocal+2*Zval:    1.91306
GHOST: No ghost state for L =  0
GHOST: No ghost state for L =  1
GHOST: No ghost state for L =  2

KBgen: Kleinman-Bylander projectors: 
   l= 0   rc=  2.036604   el= -0.477180   Ekb= -6.081590   kbcos= -0.277285
   l= 1   rc=  2.195416   el=  0.001076   Ekb= -0.926943   kbcos= -0.034643
   l= 2   rc=  2.251056   el=  0.002010   Ekb= -0.130941   kbcos= -0.009788

KBgen: Total number of Kleinman-Bylander projectors:    9
atom: -------------------------------------------------------------------------

atom: SANKEY-TYPE ORBITALS:
atom: Selected multiple-zeta basis: split     

SPLIT: Orbitals with angular momentum L= 0

SPLIT: Basis orbitals for state 1s

SPLIT: PAO cut-off radius determined from an
SPLIT: energy shift=  0.002000 Ry

   izeta = 1
                 lambda =    1.000000
                     rc =    6.518340
                 energy =   -0.475305
                kinetic =    0.912139
    potential(screened) =   -1.387444
       potential(ionic) =   -1.907295

   izeta = 2
                 rmatch =    2.141150
              splitnorm =    0.620000
                 energy =    0.566467
                kinetic =    3.772856
    potential(screened) =   -3.206389
       potential(ionic) =   -3.759093

POLgen: Perturbative polarization orbital with L=  1

POLgen: Polarization orbital for state 1s

   izeta = 1
                     rc =    6.518340
                 energy =    0.533861
                kinetic =    1.121086
    potential(screened) =   -0.587225
       potential(ionic) =   -1.053027
atom: Total number of Sankey-type orbitals:  5

atm_pop: Valence configuration (for local Pseudopot. screening):
 1s( 1.00)                                                            
Vna: chval, zval:    1.00000   1.00000

Vna:  Cut-off radius for the neutral-atom potential:   6.518340

atom: _________________________________________________________________________

<basis_specs>
===============================================================================
N                    Z=   7    Mass=  14.010        Charge= 0.17977+309
Lmxo=1 Lmxkb= 3    BasisType=split      Semic=F
L=0  Nsemic=0  Cnfigmx=2
          i=1  nzeta=2  polorb=0  (2s)
            splnorm:   0.28000    
               vcte:    0.0000    
               rinn:    0.0000    
               qcoe:    0.0000    
               qyuk:    0.0000    
               qwid:   0.10000E-01
                rcs:    0.0000      0.0000    
            lambdas:    1.0000      1.0000    
L=1  Nsemic=0  Cnfigmx=2
          i=1  nzeta=2  polorb=1  (2p)
            splnorm:   0.28000    
               vcte:    0.0000    
               rinn:    0.0000    
               qcoe:    0.0000    
               qyuk:    0.0000    
               qwid:   0.10000E-01
                rcs:    0.0000      0.0000    
            lambdas:    1.0000      1.0000    
-------------------------------------------------------------------------------
L=0  Nkbl=1  erefs: 0.17977+309
L=1  Nkbl=1  erefs: 0.17977+309
L=2  Nkbl=1  erefs: 0.17977+309
L=3  Nkbl=1  erefs: 0.17977+309
===============================================================================
</basis_specs>

atom: Called for N                     (Z =   7)

read_vps: Pseudopotential generation method:
read_vps: ATM4.2.7  Troullier-Martins                       
Valence charge for ps generation:    5.00000

xc_check: Exchange-correlation functional:
xc_check: GGA Perdew, Burke & Ernzerhof 1996
V l=0 = -2*Zval/r beyond r=  1.2889
V l=1 = -2*Zval/r beyond r=  1.2889
V l=2 = -2*Zval/r beyond r=  3.4178
V l=3 = -2*Zval/r beyond r=  2.4084
All V_l potentials equal beyond r=  3.3753
This should be close to max(r_c) in ps generation
All pots = -2*Zval/r beyond r=  3.4178

VLOCAL1: 99.0% of the norm of Vloc inside      3.810 Ry
VLOCAL1: 99.9% of the norm of Vloc inside      8.683 Ry
atom: Maximum radius for 4*pi*r*r*local-pseudopot. charge    4.02088
atom: Maximum radius for r*vlocal+2*Zval:    3.54838
GHOST: No ghost state for L =  0
GHOST: No ghost state for L =  1
GHOST: No ghost state for L =  2
GHOST: No ghost state for L =  3

KBgen: Kleinman-Bylander projectors: 
   l= 0   rc=  3.417763   el= -1.365098   Ekb= -4.433130   kbcos= -0.707855
   l= 1   rc=  3.375302   el= -0.521201   Ekb=-13.264039   kbcos= -0.535594
   l= 2   rc=  3.872880   el=  0.001991   Ekb= -0.641094   kbcos= -0.062456
   l= 3   rc=  3.970931   el=  0.003093   Ekb= -0.474517   kbcos= -0.018236

KBgen: Total number of Kleinman-Bylander projectors:   16
atom: -------------------------------------------------------------------------

atom: SANKEY-TYPE ORBITALS:
atom: Selected multiple-zeta basis: split     

SPLIT: Orbitals with angular momentum L= 0

SPLIT: Basis orbitals for state 2s

SPLIT: PAO cut-off radius determined from an
SPLIT: energy shift=  0.002000 Ry

   izeta = 1
                 lambda =    1.000000
                     rc =    4.730425
                 energy =   -1.363399
                kinetic =    1.245246
    potential(screened) =   -2.608645
       potential(ionic) =   -8.121105

   izeta = 2
                 rmatch =    2.531849
              splitnorm =    0.280000
                 energy =   -0.959908
                kinetic =    2.409435
    potential(screened) =   -3.369343
       potential(ionic) =   -9.427975

SPLIT: Orbitals with angular momentum L= 1

SPLIT: Basis orbitals for state 2p

SPLIT: PAO cut-off radius determined from an
SPLIT: energy shift=  0.002000 Ry

   izeta = 1
                 lambda =    1.000000
                     rc =    5.924108
                 energy =   -0.519262
                kinetic =    3.672940
    potential(screened) =   -4.192202
       potential(ionic) =   -9.518354

   izeta = 2
                 rmatch =    2.531849
              splitnorm =    0.280000
                 energy =   -0.104258
                kinetic =    6.807538
    potential(screened) =   -6.911796
       potential(ionic) =  -13.149920

POLgen: Perturbative polarization orbital with L=  2

POLgen: Polarization orbital for state 2p

   izeta = 1
                     rc =    5.924108
                 energy =    1.427508
                kinetic =    2.872379
    potential(screened) =   -1.444871
       potential(ionic) =   -5.563644
atom: Total number of Sankey-type orbitals: 13

atm_pop: Valence configuration (for local Pseudopot. screening):
 2s( 2.00)                                                            
 2p( 3.00)                                                            
Vna: chval, zval:    5.00000   5.00000

Vna:  Cut-off radius for the neutral-atom potential:   5.924108

atom: _________________________________________________________________________

<basis_specs>
===============================================================================
Si                   Z=  14    Mass=  28.090        Charge= 0.17977+309
Lmxo=1 Lmxkb= 3    BasisType=split      Semic=F
L=0  Nsemic=0  Cnfigmx=3
          i=1  nzeta=2  polorb=0  (3s)
            splnorm:   0.28000    
               vcte:    0.0000    
               rinn:    0.0000    
               qcoe:    0.0000    
               qyuk:    0.0000    
               qwid:   0.10000E-01
                rcs:    0.0000      0.0000    
            lambdas:    1.0000      1.0000    
L=1  Nsemic=0  Cnfigmx=3
          i=1  nzeta=2  polorb=1  (3p)
            splnorm:   0.28000    
               vcte:    0.0000    
               rinn:    0.0000    
               qcoe:    0.0000    
               qyuk:    0.0000    
               qwid:   0.10000E-01
                rcs:    0.0000      0.0000    
            lambdas:    1.0000      1.0000    
-------------------------------------------------------------------------------
L=0  Nkbl=1  erefs: 0.17977+309
L=1  Nkbl=1  erefs: 0.17977+309
L=2  Nkbl=1  erefs: 0.17977+309
L=3  Nkbl=1  erefs: 0.17977+309
===============================================================================
</basis_specs>

atom: Called for Si                    (Z =  14)

read_vps: Pseudopotential generation method:
read_vps: ATM4.2.7  Troullier-Martins                       
Valence charge for ps generation:    4.00000

xc_check: Exchange-correlation functional:
xc_check: GGA Perdew, Burke & Ernzerhof 1996
V l=0 = -2*Zval/r beyond r=  2.7826
V l=1 = -2*Zval/r beyond r=  2.7826
V l=2 = -2*Zval/r beyond r=  2.9253
V l=3 = -2*Zval/r beyond r=  2.7826
All V_l potentials equal beyond r=  2.8530
This should be close to max(r_c) in ps generation
All pots = -2*Zval/r beyond r=  2.9253

VLOCAL1: 99.0% of the norm of Vloc inside      5.333 Ry
VLOCAL1: 99.9% of the norm of Vloc inside     12.154 Ry
atom: Maximum radius for 4*pi*r*r*local-pseudopot. charge    3.39869
atom: Maximum radius for r*vlocal+2*Zval:    2.96205
GHOST: No ghost state for L =  0
GHOST: No ghost state for L =  1
GHOST: No ghost state for L =  2
GHOST: No ghost state for L =  3

KBgen: Kleinman-Bylander projectors: 
   l= 0   rc=  3.075247   el= -0.794092   Ekb=  5.879390   kbcos=  0.167461
   l= 1   rc=  3.153101   el= -0.300068   Ekb=  2.642817   kbcos=  0.058301
   l= 2   rc=  3.273594   el=  0.001958   Ekb= -1.185135   kbcos= -0.104411
   l= 3   rc=  3.232927   el=  0.003046   Ekb= -0.497174   kbcos= -0.015889

KBgen: Total number of Kleinman-Bylander projectors:   16
atom: -------------------------------------------------------------------------

atom: SANKEY-TYPE ORBITALS:
atom: Selected multiple-zeta basis: split     

SPLIT: Orbitals with angular momentum L= 0

SPLIT: Basis orbitals for state 3s

SPLIT: PAO cut-off radius determined from an
SPLIT: energy shift=  0.002000 Ry

   izeta = 1
                 lambda =    1.000000
                     rc =    6.429618
                 energy =   -0.792283
                kinetic =    0.525293
    potential(screened) =   -1.317576
       potential(ionic) =   -3.744923

   izeta = 2
                 rmatch =    3.998416
              splitnorm =    0.280000
                 energy =   -0.583081
                kinetic =    1.069570
    potential(screened) =   -1.652651
       potential(ionic) =   -4.235185

SPLIT: Orbitals with angular momentum L= 1

SPLIT: Basis orbitals for state 3p

SPLIT: PAO cut-off radius determined from an
SPLIT: energy shift=  0.002000 Ry

   izeta = 1
                 lambda =    1.000000
                     rc =    8.464845
                 energy =   -0.298236
                kinetic =    0.785360
    potential(screened) =   -1.083596
       potential(ionic) =   -3.273779

   izeta = 2
                 rmatch =    4.587816
              splitnorm =    0.280000
                 energy =   -0.131871
                kinetic =    1.403687
    potential(screened) =   -1.535557
       potential(ionic) =   -4.015310

POLgen: Perturbative polarization orbital with L=  2

POLgen: Polarization orbital for state 3p

   izeta = 1
                     rc =    8.464845
                 energy =    0.321949
                kinetic =    1.055677
    potential(screened) =   -0.733728
       potential(ionic) =   -2.672950
atom: Total number of Sankey-type orbitals: 13

atm_pop: Valence configuration (for local Pseudopot. screening):
 3s( 2.00)                                                            
 3p( 2.00)                                                            
Vna: chval, zval:    4.00000   4.00000

Vna:  Cut-off radius for the neutral-atom potential:   8.464845

atom: _________________________________________________________________________

<basis_specs>
===============================================================================
O                    Z=   8    Mass=  16.000        Charge= 0.17977+309
Lmxo=1 Lmxkb= 3    BasisType=split      Semic=F
L=0  Nsemic=0  Cnfigmx=2
          i=1  nzeta=2  polorb=0  (2s)
            splnorm:   0.28000    
               vcte:    0.0000    
               rinn:    0.0000    
               qcoe:    0.0000    
               qyuk:    0.0000    
               qwid:   0.10000E-01
                rcs:    0.0000      0.0000    
            lambdas:    1.0000      1.0000    
L=1  Nsemic=0  Cnfigmx=2
          i=1  nzeta=2  polorb=1  (2p)
            splnorm:   0.28000    
               vcte:    0.0000    
               rinn:    0.0000    
               qcoe:    0.0000    
               qyuk:    0.0000    
               qwid:   0.10000E-01
                rcs:    0.0000      0.0000    
            lambdas:    1.0000      1.0000    
-------------------------------------------------------------------------------
L=0  Nkbl=1  erefs: 0.17977+309
L=1  Nkbl=1  erefs: 0.17977+309
L=2  Nkbl=1  erefs: 0.17977+309
L=3  Nkbl=1  erefs: 0.17977+309
===============================================================================
</basis_specs>

atom: Called for O                     (Z =   8)

read_vps: Pseudopotential generation method:
read_vps: ATM4.2.7  Troullier-Martins                       
Valence charge for ps generation:    6.00000

xc_check: Exchange-correlation functional:
xc_check: GGA Perdew, Burke & Ernzerhof 1996
V l=0 = -2*Zval/r beyond r=  1.1000
V l=1 = -2*Zval/r beyond r=  1.1000
V l=2 = -2*Zval/r beyond r=  2.2154
V l=3 = -2*Zval/r beyond r=  1.1000
All V_l potentials equal beyond r=  2.2154
This should be close to max(r_c) in ps generation
All pots = -2*Zval/r beyond r=  2.2154

VLOCAL1: 99.0% of the norm of Vloc inside      8.845 Ry
VLOCAL1: 99.9% of the norm of Vloc inside     20.157 Ry
atom: Maximum radius for 4*pi*r*r*local-pseudopot. charge    2.67231
atom: Maximum radius for r*vlocal+2*Zval:    2.32897
GHOST: No ghost state for L =  0
GHOST: No ghost state for L =  1
GHOST: No ghost state for L =  2
GHOST: No ghost state for L =  3

KBgen: Kleinman-Bylander projectors: 
   l= 0   rc=  2.243238   el= -1.759686   Ekb=**********   kbcos= -0.171774
   l= 1   rc=  2.328968   el= -0.663873   Ekb=-14.506792   kbcos= -0.519897
   l= 2   rc=  2.573941   el=  0.002031   Ekb= -1.137373   kbcos= -0.019581
   l= 3   rc=  2.606321   el=  0.003153   Ekb= -1.013546   kbcos= -0.003122

KBgen: Total number of Kleinman-Bylander projectors:   16
atom: -------------------------------------------------------------------------

atom: SANKEY-TYPE ORBITALS:
atom: Selected multiple-zeta basis: split     

SPLIT: Orbitals with angular momentum L= 0

SPLIT: Basis orbitals for state 2s

SPLIT: PAO cut-off radius determined from an
SPLIT: energy shift=  0.002000 Ry

   izeta = 1
                 lambda =    1.000000
                     rc =    4.243912
                 energy =   -1.758270
                kinetic =    3.286084
    potential(screened) =   -5.044353
       potential(ionic) =  -12.921184

   izeta = 2
                 rmatch =    2.187845
              splitnorm =    0.280000
                 energy =   -0.885018
                kinetic =    8.134434
    potential(screened) =   -9.019452
       potential(ionic) =  -17.710645

SPLIT: Orbitals with angular momentum L= 1

SPLIT: Basis orbitals for state 2p

SPLIT: PAO cut-off radius determined from an
SPLIT: energy shift=  0.002000 Ry

   izeta = 1
                 lambda =    1.000000
                     rc =    5.314825
                 energy =   -0.661986
                kinetic =    4.917472
    potential(screened) =   -5.579458
       potential(ionic) =  -13.236259

   izeta = 2
                 rmatch =    2.160663
              splitnorm =    0.280000
                 energy =   -0.068760
                kinetic =    9.183374
    potential(screened) =   -9.252135
       potential(ionic) =  -18.274251

POLgen: Perturbative polarization orbital with L=  2

POLgen: Polarization orbital for state 2p

   izeta = 1
                     rc =    5.314825
                 energy =    1.970580
                kinetic =    3.886128
    potential(screened) =   -1.915547
       potential(ionic) =   -7.749584
atom: Total number of Sankey-type orbitals: 13

atm_pop: Valence configuration (for local Pseudopot. screening):
 2s( 2.00)                                                            
 2p( 4.00)                                                            
Vna: chval, zval:    6.00000   6.00000

Vna:  Cut-off radius for the neutral-atom potential:   5.314825

atom: _________________________________________________________________________

prinput: Basis input ----------------------------------------------------------

PAO.BasisType split     

%block ChemicalSpeciesLabel
    1    1 H                       # Species index, atomic number, species label
    2    7 N                       # Species index, atomic number, species label
    3   14 Si                      # Species index, atomic number, species label
    4    8 O                       # Species index, atomic number, species label
%endblock ChemicalSpeciesLabel

%block PAO.Basis                 # Define Basis set
H                     1                    # Species label, number of l-shells
 n=1   0   2 P   1                   # n, l, Nzeta, Polarization, NzetaPol
   6.518      2.141   
   1.000      1.000   
N                     2                    # Species label, number of l-shells
 n=2   0   2                         # n, l, Nzeta 
   4.730      2.532   
   1.000      1.000   
 n=2   1   2 P   1                   # n, l, Nzeta, Polarization, NzetaPol
   5.924      2.532   
   1.000      1.000   
Si                    2                    # Species label, number of l-shells
 n=3   0   2                         # n, l, Nzeta 
   6.430      3.998   
   1.000      1.000   
 n=3   1   2 P   1                   # n, l, Nzeta, Polarization, NzetaPol
   8.465      4.588   
   1.000      1.000   
O                     2                    # Species label, number of l-shells
 n=2   0   2                         # n, l, Nzeta 
   4.244      2.188   
   1.000      1.000   
 n=2   1   2 P   1                   # n, l, Nzeta, Polarization, NzetaPol
   5.315      2.161   
   1.000      1.000   
%endblock PAO.Basis

prinput: ----------------------------------------------------------------------

Dumping basis to NetCDF file H.ion.nc
Dumping basis to NetCDF file N.ion.nc
Dumping basis to NetCDF file Si.ion.nc
Dumping basis to NetCDF file O.ion.nc
coor:   Atomic-coordinates input format  =     Cartesian coordinates
coor:                                          (in Angstroms)

siesta: Atomic coordinates (Bohr) and species
siesta:      4.87999 -10.91663   0.00000  1        1
siesta:      3.12704  -9.95765   0.00000  2        2
siesta:      0.11930 -11.53056   0.00000  3        3
siesta:      0.22530 -14.35597   0.00000  1        4
siesta:     -2.60195  -9.79371   0.00000  2        5
siesta:     -1.55784  -6.54009   0.00000  3        6
siesta:     -2.21206  -2.39996   0.00000  3        7
siesta:     -5.11537  -0.78899   0.00000  2        8
siesta:     -5.20538   1.19971   0.00000  1        9
siesta:     -6.87421  -1.71959   0.00000  1       10
siesta:      0.41213  -0.44256   0.00000  2       11
siesta:      3.53758  -1.31745   0.00000  3       12
siesta:      5.34415   0.87204   0.00000  1       13
siesta:      5.00428  -4.26138   0.00000  2       14
siesta:      2.63035  -6.52849   0.00000  3       15
siesta:      3.60038   8.31760   0.00000  2       16
siesta:      1.09201  10.60456   0.00000  3       17
siesta:      2.30143  13.17708   0.00000  1       18
siesta:     -2.84948   9.33744   0.00000  3       19
siesta:     -6.68480  11.47305   0.00000  3       20
siesta:     -6.39334  13.66557   1.77692  1       21
siesta:     -8.54795   9.54190   0.96870  1       22
siesta:     -7.47133  12.37298  -2.58265  1       23
siesta:     -2.72382   5.04024   0.00000  3       24
siesta:     -4.68734   2.78568   0.00000  4       25
siesta:      0.40744   3.84220   0.00000  2       26
siesta:      0.37339   1.83447   0.00000  1       27
siesta:      3.47560   4.97050   0.00000  3       28
siesta:      5.73386   3.05351   0.00000  4       29
siesta:      5.49017   8.97052   0.00000  1       30

siesta: Automatic unit cell vectors (Ang):
siesta:   15.808622    0.000000    0.000000
siesta:    0.000000   23.899770    0.000000
siesta:    0.000000    0.000000   10.224979

siesta: System type = molecule  

initatomlists: Number of atoms, orbitals, and projectors:     30   302   403

siesta: ******************** Simulation parameters ****************************
siesta:
siesta: The following are some of the parameters of the simulation.
siesta: A complete list of the parameters used, including default values,
siesta: can be found in file out.fdf
siesta:
redata: Spin configuration                          = spin-orbit
redata: Number of spin components                   = 8
redata: Time-Reversal Symmetry                      = F
redata: Spin spiral                                 = F
############################################################
This spin-orbit implementation uses a local approximation.
From 4.2 and onwards the full non-local approximation is implemented
You are strongly advised to use >=4.2 versions!
############################################################
redata: Long output                                 =   F
redata: Number of Atomic Species                    =        4
redata: Charge density info will appear in .RHO file
redata: Write Mulliken Pop.                         = Atomic and Orbital charges
redata: Matel table size (NRTAB)                    =     1024
redata: Mesh Cutoff                                 =   340.0000 Ry
redata: Net charge of the system                    =     0.0000 |e|
redata: Min. number of SCF Iter                     =        1
redata: Max. number of SCF Iter                     =      200
redata: SCF mix quantity                            = Hamiltonian
redata: Mix DM or H after convergence               =   F
redata: Recompute H after scf cycle                 =   F
redata: Mix DM in first SCF step                    =   T
redata: Write Pulay info on disk                    =   F
redata: New DM Occupancy tolerance                  = 0.000000000001
redata: No kicks to SCF
redata: DM Mixing Weight for Kicks                  =     0.5000
redata: Require Harris convergence for SCF          =   F
redata: Harris energy tolerance for SCF             =     0.000100 eV
redata: Require DM convergence for SCF              =   T
redata: DM tolerance for SCF                        =     0.000008
redata: Require EDM convergence for SCF             =   F
redata: EDM tolerance for SCF                       =     0.001000 eV
redata: Require H convergence for SCF               =   T
redata: Hamiltonian tolerance for SCF               =     0.000001 eV
redata: Require (free) Energy convergence for SCF   =   F
redata: (free) Energy tolerance for SCF             =     0.000100 eV
redata: Using Saved Data (generic)                  =   F
redata: Use continuation files for DM               =   F
redata: Neglect nonoverlap interactions             =   F
redata: Method of Calculation                       = Diagonalization
redata: Electronic Temperature                      =   299.9978 K
redata: Fix the spin of the system                  =   F
redata: Dynamics option                             = Single-point calculation
mix.SCF: Pulay mixing                            = Pulay
mix.SCF:    Variant                              = stable
mix.SCF:    History steps                        = 6
mix.SCF:    Linear mixing weight                 =     0.250000
mix.SCF:    Mixing weight                        =     0.250000
mix.SCF:    SVD condition                        = 0.1000E-07
mix.SCF:    Restart steps                        = 24
mix.SCF:    Restart save steps                   = 3
mix.SCF: Spin-component mixing                   all
redata: Save all siesta data in one NC              =   F
redata: ***********************************************************************

%block SCF.Mixers
  Pulay
%endblock SCF.Mixers

%block SCF.Mixer.Pulay
  # Mixing method
  method pulay
  variant stable

  # Mixing options
  weight 0.2500
  weight.linear 0.2500
  history 6
  restart 24
  restart.save 3
%endblock SCF.Mixer.Pulay

DM_history_depth set to one: no extrapolation allowed by default for geometry relaxation
Size of DM history Fstack: 1
Total number of electrons:    98.000000
Total ionic charge:    98.000000

* ProcessorY, Blocksize:    2  24


* Orbital distribution balance (max,min):    62    48


Time-reversal symmetry not used.

siesta: k-grid: Number of k-points =     1
siesta: k-grid: Cutoff (effective) =     5.112 Ang
siesta: k-grid: Supercell and displacements
siesta: k-grid:    1   0   0      0.000
siesta: k-grid:    0   1   0      0.000
siesta: k-grid:    0   0   1      0.000

diag: Algorithm                                     = ELPA-1stage
diag: Parallel over k                               =   F
diag: Use parallel 2D distribution                  =   T
diag: Parallel block-size                           = 24
diag: Parallel distribution                         =     2 x     3
diag: Used triangular part                          = Lower
diag: Absolute tolerance                            =  0.100E-15
diag: Orthogonalization factor                      =  0.100E-05
diag: Memory factor                                 =  1.0000


ts: **************************************************************
ts: Save H and S matrices                           =    F
ts: Save DM and EDM matrices                        =    F
ts: Only save the overlap matrix S                  =    F
ts: **************************************************************

************************ Begin: TS CHECKS AND WARNINGS ************************
************************ End: TS CHECKS AND WARNINGS **************************


                     ====================================
                        Single-point calculation
                     ====================================

outcoor: Atomic coordinates (Ang):                          
    2.58237765   -5.77683044    0.00000000   1       1  H
    1.65475924   -5.26936198    0.00000000   2       2  N
    0.06312884   -6.10170459    0.00000000   3       3  Si
    0.11922324   -7.59684950    0.00000000   1       4  H
   -1.37689205   -5.18260374    0.00000000   2       5  N
   -0.82437190   -3.46086644    0.00000000   3       6  Si
   -1.17057148   -1.27000210    0.00000000   3       7  Si
   -2.70693368   -0.41751578    0.00000000   2       8  N
   -2.75456966    0.63485862    0.00000000   1       9  H
   -3.63767564   -0.90996786    0.00000000   1      10  H
    0.21809179   -0.23419397    0.00000000   2      11  N
    1.87200410   -0.69716230    0.00000000   3      12  Si
    2.82800113    0.46146477    0.00000000   1      13  H
    2.64815008   -2.25502447    0.00000000   2      14  N
    1.39192138   -3.45472722    0.00000000   3      15  Si
    1.90523664    4.40148350    0.00000000   2      16  N
    0.57786512    5.61168780    0.00000000   3      17  Si
    1.21786638    6.97300604    0.00000000   1      18  H
   -1.50788082    4.94115645    0.00000000   3      19  Si
   -3.53744343    6.07127264    0.00000000   3      20  Si
   -3.38320766    7.23150285    0.94030528   1      21  H
   -4.52337814    5.04935202    0.51261370   1      22  H
   -3.95365839    6.54749849   -1.36667834   1      23  H
   -1.44138540    2.66717983    0.00000000   3      24  Si
   -2.48043413    1.47412033    0.00000000   4      25  O
    0.21560618    2.03320464    0.00000000   2      26  N
    0.19758881    0.97075981    0.00000000   1      27  H
    1.83920924    2.63027485    0.00000000   3      28  Si
    3.03422541    1.61584965    0.00000000   4      29  O
    2.90527400    4.74699060    0.00000000   1      30  H

outcell: Unit cell vectors (Ang):
       15.808622    0.000000    0.000000
        0.000000   23.899770    0.000000
        0.000000    0.000000   10.224979

outcell: Cell vector modules (Ang)   :   15.808622   23.899770   10.224979
outcell: Cell angles (23,13,12) (deg):     90.0000     90.0000     90.0000
outcell: Cell volume (Ang**3)        :   3863.2266
<dSpData1D:S at geom step 0
  <sparsity:sparsity for geom step 0
    nrows_g=302 nrows=62 sparsity=.1638 nnzs=14940, refcount: 8>
  <dData1D:(new from dSpData1D) n=14940, refcount: 1>
refcount: 1>
new_DM -- step:     1
Initializing Density Matrix...
DM filled with atomic data:
<dSpData2D:DM initialized from atoms
  <sparsity:sparsity for geom step 0
    nrows_g=302 nrows=62 sparsity=.1638 nnzs=14940, refcount: 9>
  <dData2D:DM n=14940 m=8, refcount: 1>
refcount: 1>
     spin moment: S , {S} =   56.00000   0.00000   0.00000  56.00000
No. of atoms with KB's overlaping orbs in proc 0. Max # of overlaps:      24     220

Initializing spin-orbit part of the Hamiltonian
  Adding spin-orbit effects for H 
  Adding spin-orbit effects for N 
  Adding spin-orbit effects for Si
  Adding spin-orbit effects for O 


New grid distribution:   1
           1       1:   90    1:   68    1:   20
           2       1:   90    1:   68   21:   40
           3       1:   90    1:   68   41:   60
           4       1:   90   69:  135    1:   20
           5       1:   90   69:  135   21:   40
           6       1:   90   69:  135   41:   60

InitMesh: MESH =   180 x   270 x   120 =     5832000
InitMesh: (bp) =    90 x   135 x    60 =      729000
InitMesh: Mesh cutoff (required, used) =   340.000   352.729 Ry
ExtMesh (bp) on 0 =   194 x   172 x   128 =     4271104
New grid distribution:   2
           1       1:   12   36:  135    1:   60
           2      14:   90    1:   15    1:   60
           3       1:   13    1:   35    1:   60
           4      13:   90   36:  116    1:   60
           5      14:   90   16:   35    1:   60
           6      13:   90  117:  135    1:   60
New grid distribution:   3
           1       1:   18   50:  135    1:   60
           2      24:   90   27:   49    1:   60
           3       1:   23    1:   49    1:   60
           4      19:   90   50:  111    1:   60
           5      24:   90    1:   26    1:   60
           6      19:   90  112:  135    1:   60
Setting up quadratic distribution...
ExtMesh (bp) on 0 =   116 x   204 x   168 =     3975552
PhiOnMesh: Number of (b)points on node 0 =                72000
PhiOnMesh: nlist on node 0 =              1616582

stepf: Fermi-Dirac step function

siesta: Program's energy decomposition (eV):
siesta: Ebs     =      -582.641779
siesta: Eions   =      3553.971015
siesta: Ena     =       388.868899
siesta: Ekin    =      3233.024353
siesta: Enl     =     -3045.050457
siesta: Eso     =        -0.004112
siesta: Edftu   =         0.000000
siesta: DEna    =       133.410328
siesta: DUscf   =        79.292064
siesta: DUext   =         0.000000
siesta: Exc     =     -1182.879029
siesta: eta*DQ  =         0.000000
siesta: Emadel  =         0.000000
siesta: Emeta   =         0.000000
siesta: Emolmec =         0.000000
siesta: Ekinion =         0.000000
siesta: Eharris =     -3851.529667
siesta: Etot    =     -3947.308969
siesta: FreeEng =     -3947.316199

        iscf     Eharris(eV)        E_KS(eV)     FreeEng(eV)     dDmax    Ef(eV) dHmax(eV)
   scf:    1    -3851.529667    -3947.308969    -3947.316199  0.957349 -4.980677 24.292186
     spin moment: S , {S} =    2.06311   0.00004  -0.00000   2.06311
timer: Routine,Calls,Time,% = IterSCF        1       5.507  20.17
   scf:    2    -3991.775527    -3983.774122    -3983.793217  0.439694 -4.210388 10.983796
     spin moment: S , {S} =    2.23810  -0.00005  -0.00007   2.23810
   scf:    3    -3984.301638    -3988.155671    -3988.157120  0.414471 -4.023472  7.989712
     spin moment: S , {S} =    0.00888   0.00000  -0.00001   0.00888
   scf:    4    -3991.683650    -3990.203266    -3990.216737  0.057223 -3.767831  5.397856
     spin moment: S , {S} =    0.14549   0.00000  -0.00001   0.14549
   scf:    5    -3982.968000    -3988.633067    -3988.642167  0.425119 -3.742919  4.878531
     spin moment: S , {S} =    1.91489   0.00000   0.00006   1.91489
   scf:    6    -3990.029757    -3991.164995    -3991.166380  0.435581 -3.706322  2.612504
     spin moment: S , {S} =    0.00831   0.00000  -0.00001   0.00831
   scf:    7    -3991.866769    -3991.515685    -3991.516088  0.027974 -3.762749  1.298629
     spin moment: S , {S} =    0.00198   0.00000  -0.00001   0.00198
   scf:    8    -3991.748386    -3991.654981    -3991.656540  0.023121 -3.815565  0.374507
     spin moment: S , {S} =    0.00847   0.00000  -0.00000   0.00847
   scf:    9    -3991.658425    -3991.665772    -3991.668242  0.015234 -3.842797  0.389225
     spin moment: S , {S} =    0.00916   0.00000   0.00000   0.00916
   scf:   10    -3991.701987    -3991.684717    -3991.686453  0.006053 -3.848978  0.245551
     spin moment: S , {S} =    0.00287   0.00000   0.00000   0.00287
   scf:   11    -3991.706882    -3991.697406    -3991.698513  0.007433 -3.849921  0.068553
     spin moment: S , {S} =    0.00016   0.00000   0.00000   0.00016
   scf:   12    -3991.706588    -3991.701642    -3991.702806  0.005102 -3.851568  0.063718
     spin moment: S , {S} =    0.00064   0.00000   0.00000  -0.00064
   scf:   13    -3991.707623    -3991.704286    -3991.705332  0.006030 -3.850989  0.048127
     spin moment: S , {S} =    0.00081   0.00000   0.00000  -0.00081
   scf:   14    -3991.705227    -3991.704714    -3991.705789  0.002588 -3.849445  0.025000
     spin moment: S , {S} =    0.00052   0.00000   0.00000  -0.00052
   scf:   15    -3991.704954    -3991.704826    -3991.705917  0.001420 -3.848636  0.014490
     spin moment: S , {S} =    0.00037   0.00000   0.00000  -0.00037
   scf:   16    -3991.705013    -3991.704904    -3991.705999  0.001707 -3.848011  0.010264
     spin moment: S , {S} =    0.00028   0.00000   0.00000  -0.00028
   scf:   17    -3991.704960    -3991.704931    -3991.706018  0.000641 -3.848024  0.005520
     spin moment: S , {S} =    0.00024   0.00000   0.00000  -0.00024
   scf:   18    -3991.704962    -3991.704945    -3991.706030  0.000639 -3.848068  0.003122
     spin moment: S , {S} =    0.00015   0.00000   0.00000  -0.00015
   scf:   19    -3991.704956    -3991.704950    -3991.706034  0.000389 -3.848124  0.001577
     spin moment: S , {S} =    0.00008   0.00000   0.00000  -0.00008
   scf:   20    -3991.704952    -3991.704951    -3991.706035  0.000213 -3.848146  0.000865
     spin moment: S , {S} =    0.00004   0.00000   0.00000  -0.00004
   scf:   21    -3991.704951    -3991.704951    -3991.706036  0.000084 -3.848141  0.000551
     spin moment: S , {S} =    0.00004   0.00000   0.00000  -0.00004
   scf:   22    -3991.704952    -3991.704951    -3991.706036  0.000109 -3.848130  0.000357
     spin moment: S , {S} =    0.00003   0.00000   0.00000  -0.00003
   scf:   23    -3991.704951    -3991.704951    -3991.706036  0.000062 -3.848127  0.000310
     spin moment: S , {S} =    0.00003   0.00000   0.00000  -0.00003
   scf:   24    -3991.704952    -3991.704951    -3991.706036  0.000055 -3.848130  0.000273
     spin moment: S , {S} =    0.00002   0.00000   0.00000  -0.00002
mix: Pulay -- resetting history
   scf:   25    -3991.704951    -3991.704951    -3991.706036  0.000030 -3.848132  0.000202
     spin moment: S , {S} =    0.00002   0.00000   0.00000  -0.00002
   scf:   26    -3991.704951    -3991.704951    -3991.706036  0.000023 -3.848132  0.000176
     spin moment: S , {S} =    0.00002   0.00000   0.00000  -0.00002
   scf:   27    -3991.704951    -3991.704951    -3991.706036  0.000035 -3.848132  0.000131
     spin moment: S , {S} =    0.00001   0.00000   0.00000  -0.00001
   scf:   28    -3991.704951    -3991.704951    -3991.706036  0.000054 -3.848128  0.000078
     spin moment: S , {S} =    0.00001   0.00000   0.00000  -0.00001
   scf:   29    -3991.704951    -3991.704951    -3991.706036  0.000028 -3.848128  0.000041
     spin moment: S , {S} =    0.00000   0.00000   0.00000  -0.00000
   scf:   30    -3991.704951    -3991.704951    -3991.706036  0.000024 -3.848128  0.000028
     spin moment: S , {S} =    0.00000   0.00000   0.00000  -0.00000
   scf:   31    -3991.704951    -3991.704951    -3991.706036  0.000012 -3.848130  0.000018
     spin moment: S , {S} =    0.00000   0.00000   0.00000  -0.00000
   scf:   32    -3991.704951    -3991.704951    -3991.706036  0.000004 -3.848130  0.000013
     spin moment: S , {S} =    0.00000   0.00000   0.00000   0.00000
   scf:   33    -3991.704951    -3991.704951    -3991.706036  0.000003 -3.848130  0.000010
     spin moment: S , {S} =    0.00000   0.00000   0.00000   0.00000
   scf:   34    -3991.704951    -3991.704951    -3991.706036  0.000002 -3.848130  0.000006
     spin moment: S , {S} =    0.00000   0.00000  -0.00000   0.00000
   scf:   35    -3991.704951    -3991.704951    -3991.706036  0.000001 -3.848130  0.000003
     spin moment: S , {S} =    0.00000  -0.00000  -0.00000   0.00000
   scf:   36    -3991.704951    -3991.704951    -3991.706036  0.000000 -3.848130  0.000002
     spin moment: S , {S} =    0.00000  -0.00000  -0.00000   0.00000
   scf:   37    -3991.704951    -3991.704951    -3991.706036  0.000000 -3.848130  0.000001
     spin moment: S , {S} =    0.00000   0.00000  -0.00000   0.00000
   scf:   38    -3991.704951    -3991.704951    -3991.706036  0.000001 -3.848130  0.000000
     spin moment: S , {S} =    0.00000   0.00000   0.00000   0.00000

SCF Convergence by DM+H criterion
max |DM_out - DM_in|         :     0.0000007169
max |H_out - H_in|      (eV) :     0.0000004415
SCF cycle converged after 38 iterations

Using DM_out to compute the final energy and forces
No. of atoms with KB's overlaping orbs in proc 0. Max # of overlaps:      24     220

siesta: E_KS(eV) =            -3991.7050

siesta: E_KS - E_eggbox =     -3991.7050
     spin moment: S , {S} =    0.00000   0.00000   0.00000   0.00000

siesta: Atomic forces (eV/Ang):
     1   -0.015810    0.032003    0.000020
     2   -0.085595   -0.224326   -0.000261
     3    0.125437    0.074077   -0.000199
     4   -0.067301   -0.062696    0.000132
     5   -0.052485   -0.014191    0.000155
     6    0.215432   -0.053082    0.000403
     7   -2.308241   -0.278911    0.000686
     8   -0.175080  -13.532171   -0.003757
     9   -4.078032   -8.262755    0.002868
    10    0.051040   -0.802179    0.000059
    11   -0.393249   -5.219557   -0.000788
    12    0.424121   -3.150672   -0.001254
    13    0.180316   -1.318003   -0.000126
    14   -0.410499   -0.853151    0.001022
    15    0.308891   -0.065184   -0.000303
    16    0.558988   -0.273489    0.007709
    17   -0.075440    0.119970   -0.032344
    18   -0.006569    0.157912    0.005059
    19   -0.231719   -0.221916   -0.048683
    20    0.116539    0.004075    0.012239
    21   -0.147273    0.180705    0.081324
    22   -0.033397    0.038762    0.029184
    23    0.061620    0.168629    0.092205
    24    1.922173    1.724755   -0.024144
    25    7.500848   23.979750    0.005706
    26    0.245354    7.313184    0.009270
    27   -0.547020   -2.052157    0.002441
    28   -2.473890    1.804685   -0.001198
    29    4.131607   -1.043564   -0.001130
    30    0.051742    0.350684    0.005734
----------------------------------------
   Tot    4.792505   -1.478814    0.142029
----------------------------------------
   Max   23.979750
   Res    3.397469    sqrt( Sum f_i^2 / 3N )
----------------------------------------
   Max   23.979750    constrained

Stress tensor Voigt[x,y,z,yz,xz,xy] (kbar):       -3.52      -28.31       -0.22       -0.05        0.06       -3.68
(Free)E + p*V (eV/cell)    -3965.9460
Target enthalpy (eV/cell)    -3991.7060

mulliken: Atomic and Orbital Populations:

Species: H                   

Atom      Orb        Charge      Spin       Svec
----------------------------------------------------------------
    1  1 1s         0.51395   0.00000     -0.000  -0.000  -0.000
    1  2 1s         0.18710   0.00000      0.000   0.000  -0.000
    1  3 2Ppy       0.02858   0.00000      0.000  -0.000  -0.000
    1  4 2Ppz       0.04016   0.00000     -0.000  -0.000   0.000
    1  5 2Ppx       0.02525   0.00000     -0.000   0.000  -0.000
    1     Total     0.79504   0.00000     -0.000  -0.000  -0.000

    4  1 1s         1.02429   0.00000      0.000  -0.000   0.000
    4  2 1s         0.09529   0.00000     -0.000   0.000  -0.000
    4  3 2Ppy       0.03899   0.00000     -0.000  -0.000   0.000
    4  4 2Ppz       0.01968   0.00000      0.000  -0.000  -0.000
    4  5 2Ppx       0.01364   0.00000     -0.000  -0.000   0.000
    4     Total     1.19189   0.00000      0.000  -0.000   0.000

    9  1 1s         0.14699   0.00000      0.000  -0.000  -0.000
    9  2 1s         0.33400   0.00000     -0.000   0.000   0.000
    9  3 2Ppy       0.18834   0.00000      0.000  -0.000  -0.000
    9  4 2Ppz       0.09916   0.00000      0.000  -0.000   0.000
    9  5 2Ppx       0.06769   0.00000     -0.000  -0.000   0.000
    9     Total     0.83618   0.00000      0.000  -0.000   0.000

   10  1 1s         0.53092   0.00000      0.000  -0.000   0.000
   10  2 1s         0.18659   0.00000     -0.000   0.000  -0.000
   10  3 2Ppy       0.02936   0.00000     -0.000   0.000  -0.000
   10  4 2Ppz       0.05208   0.00000     -0.000  -0.000  -0.000
   10  5 2Ppx       0.03326   0.00000      0.000   0.000   0.000
   10     Total     0.83221   0.00000      0.000   0.000  -0.000

   13  1 1s         0.61223   0.00000     -0.000  -0.000  -0.000
   13  2 1s         0.17426   0.00000      0.000   0.000  -0.000
   13  3 2Ppy       0.12748   0.00000     -0.000  -0.000  -0.000
   13  4 2Ppz       0.04328   0.00000      0.000  -0.000   0.000
   13  5 2Ppx       0.06384   0.00000      0.000   0.000   0.000
   13     Total     1.02110   0.00000     -0.000  -0.000  -0.000

   18  1 1s         1.04527   0.00000     -0.000   0.000  -0.000
   18  2 1s         0.08478   0.00000      0.000  -0.000   0.000
   18  3 2Ppy       0.02795   0.00000     -0.000   0.000  -0.000
   18  4 2Ppz       0.02052   0.00000      0.000  -0.000   0.000
   18  5 2Ppx       0.01772   0.00000      0.000  -0.000  -0.000
   18     Total     1.19624   0.00000     -0.000   0.000  -0.000

   21  1 1s         1.06671   0.00000      0.000  -0.000   0.000
   21  2 1s         0.08250   0.00000     -0.000  -0.000  -0.000
   21  3 2Ppy       0.02226   0.00000     -0.000  -0.000  -0.000
   21  4 2Ppz       0.02091   0.00000      0.000  -0.000  -0.000
   21  5 2Ppx       0.01189   0.00000     -0.000   0.000  -0.000
   21     Total     1.20427   0.00000      0.000  -0.000   0.000

   22  1 1s         1.05789   0.00000     -0.000  -0.000   0.000
   22  2 1s         0.08284   0.00000      0.000   0.000  -0.000
   22  3 2Ppy       0.01970   0.00000      0.000   0.000  -0.000
   22  4 2Ppz       0.01777   0.00000     -0.000  -0.000  -0.000
   22  5 2Ppx       0.01726   0.00000      0.000  -0.000   0.000
   22     Total     1.19546   0.00000     -0.000  -0.000   0.000

   23  1 1s         1.06472   0.00000     -0.000   0.000   0.000
   23  2 1s         0.08269   0.00000      0.000   0.000  -0.000
   23  3 2Ppy       0.01683   0.00000      0.000   0.000  -0.000
   23  4 2Ppz       0.02446   0.00000      0.000  -0.000  -0.000
   23  5 2Ppx       0.01367   0.00000      0.000  -0.000   0.000
   23     Total     1.20237   0.00000     -0.000   0.000   0.000

   27  1 1s         0.40190   0.00000     -0.000  -0.000  -0.000
   27  2 1s         0.20664   0.00000      0.000  -0.000  -0.000
   27  3 2Ppy       0.16590   0.00000     -0.000  -0.000  -0.000
   27  4 2Ppz       0.05849   0.00000     -0.000   0.000   0.000
   27  5 2Ppx       0.06306   0.00000      0.000  -0.000  -0.000
   27     Total     0.89599   0.00000     -0.000   0.000  -0.000

   30  1 1s         0.50050   0.00000      0.000   0.000  -0.000
   30  2 1s         0.18646   0.00000     -0.000  -0.000  -0.000
   30  3 2Ppy       0.02989   0.00000      0.000   0.000  -0.000
   30  4 2Ppz       0.03539   0.00000      0.000  -0.000  -0.000
   30  5 2Ppx       0.02571   0.00000      0.000   0.000   0.000
   30     Total     0.77795   0.00000      0.000  -0.000  -0.000

----------------------------------------------------------------
Total              11.14870   0.00000     -0.000  -0.000  -0.000


Species: N                   

Atom      Orb        Charge      Spin       Svec
----------------------------------------------------------------
    2  1 2s         1.38096   0.00000      0.000   0.000   0.000
    2  2 2s         0.12665   0.00000      0.000  -0.000  -0.000
    2  3 2py        1.07312   0.00000     -0.000  -0.000   0.000
    2  4 2pz        1.48918   0.00000      0.000   0.000   0.000
    2  5 2px        1.01165   0.00000      0.000   0.000   0.000
    2  6 2py        0.19570   0.00000     -0.000   0.000  -0.000
    2  7 2pz        0.01506   0.00000     -0.000  -0.000  -0.000
    2  8 2px        0.21161   0.00000     -0.000  -0.000  -0.000
    2  9 3Pdxy      0.00711   0.00000      0.000   0.000   0.000
    2 10 3Pdyz      0.00572   0.00000     -0.000   0.000  -0.000
    2 11 3Pdz2      0.00159   0.00000      0.000  -0.000  -0.000
    2 12 3Pdxz      0.00303   0.00000      0.000   0.000  -0.000
    2 13 3Pdx2-y2   0.00304   0.00000     -0.000   0.000  -0.000
    2     Total     5.52443   0.00000     -0.000   0.000   0.000

    5  1 2s         1.55788   0.00000      0.000   0.000   0.000
    5  2 2s         0.08163   0.00000     -0.000  -0.000  -0.000
    5  3 2py        0.90225   0.00000     -0.000  -0.000   0.000
    5  4 2pz        1.22195   0.00000      0.000   0.000   0.000
    5  5 2px        1.14552   0.00000      0.000  -0.000   0.000
    5  6 2py        0.22938   0.00000      0.000   0.000  -0.000
    5  7 2pz        0.05534   0.00000     -0.000  -0.000  -0.000
    5  8 2px        0.14553   0.00000     -0.000   0.000  -0.000
    5  9 3Pdxy      0.00866   0.00000     -0.000   0.000   0.000
    5 10 3Pdyz      0.00682   0.00000      0.000  -0.000  -0.000
    5 11 3Pdz2      0.00193   0.00000     -0.000  -0.000  -0.000
    5 12 3Pdxz      0.01131   0.00000      0.000  -0.000  -0.000
    5 13 3Pdx2-y2   0.00925   0.00000      0.000   0.000  -0.000
    5     Total     5.37743   0.00000      0.000  -0.000   0.000

    8  1 2s         1.35118   0.00000     -0.000   0.000  -0.000
    8  2 2s         0.14137   0.00000      0.000  -0.000   0.000
    8  3 2py        1.21180   0.00000      0.000  -0.000   0.000
    8  4 2pz        1.42701   0.00000     -0.000   0.000  -0.000
    8  5 2px        0.96562   0.00000     -0.000  -0.000   0.000
    8  6 2py        0.12526   0.00000      0.000   0.000  -0.000
    8  7 2pz        0.03418   0.00000      0.000  -0.000  -0.000
    8  8 2px        0.22767   0.00000      0.000   0.000   0.000
    8  9 3Pdxy      0.00494   0.00000      0.000  -0.000  -0.000
    8 10 3Pdyz      0.00251   0.00000      0.000   0.000   0.000
    8 11 3Pdz2      0.00343   0.00000     -0.000  -0.000   0.000
    8 12 3Pdxz      0.00256   0.00000     -0.000  -0.000   0.000
    8 13 3Pdx2-y2   0.00694   0.00000     -0.000  -0.000   0.000
    8     Total     5.50448   0.00000     -0.000   0.000  -0.000

   11  1 2s         1.38909   0.00000      0.000  -0.000   0.000
   11  2 2s         0.11921   0.00000     -0.000   0.000  -0.000
   11  3 2py        1.14308   0.00000      0.000   0.000   0.000
   11  4 2pz        1.39803   0.00000     -0.000   0.000   0.000
   11  5 2px        0.88200   0.00000     -0.000   0.000   0.000
   11  6 2py        0.15380   0.00000     -0.000  -0.000  -0.000
   11  7 2pz        0.02173   0.00000      0.000  -0.000  -0.000
   11  8 2px        0.29027   0.00000      0.000  -0.000  -0.000
   11  9 3Pdxy      0.00436   0.00000     -0.000  -0.000  -0.000
   11 10 3Pdyz      0.00411   0.00000      0.000  -0.000   0.000
   11 11 3Pdz2      0.00215   0.00000      0.000  -0.000  -0.000
   11 12 3Pdxz      0.00548   0.00000      0.000  -0.000   0.000
   11 13 3Pdx2-y2   0.01152   0.00000      0.000  -0.000   0.000
   11     Total     5.42485   0.00000      0.000   0.000   0.000

   14  1 2s         1.50130   0.00000     -0.000  -0.000   0.000
   14  2 2s         0.10552   0.00000      0.000   0.000  -0.000
   14  3 2py        0.84993   0.00000     -0.000   0.000   0.000
   14  4 2pz        1.22187   0.00000      0.000  -0.000   0.000
   14  5 2px        1.13358   0.00000     -0.000   0.000   0.000
   14  6 2py        0.27909   0.00000      0.000  -0.000  -0.000
   14  7 2pz        0.05716   0.00000     -0.000  -0.000  -0.000
   14  8 2px        0.14395   0.00000      0.000  -0.000  -0.000
   14  9 3Pdxy      0.00893   0.00000      0.000  -0.000   0.000
   14 10 3Pdyz      0.00401   0.00000     -0.000   0.000  -0.000
   14 11 3Pdz2      0.00182   0.00000     -0.000   0.000  -0.000
   14 12 3Pdxz      0.01061   0.00000      0.000  -0.000   0.000
   14 13 3Pdx2-y2   0.00944   0.00000     -0.000  -0.000  -0.000
   14     Total     5.32721   0.00000      0.000  -0.000   0.000

   16  1 2s         1.34474   0.00000     -0.000  -0.000  -0.000
   16  2 2s         0.14375   0.00000      0.000   0.000   0.000
   16  3 2py        0.96452   0.00000     -0.000  -0.000  -0.000
   16  4 2pz        1.52909   0.00000      0.000   0.000   0.000
   16  5 2px        1.07127   0.00000     -0.000  -0.000  -0.000
   16  6 2py        0.25076   0.00000      0.000   0.000   0.000
   16  7 2pz        0.00949   0.00000      0.000  -0.000  -0.000
   16  8 2px        0.18516   0.00000      0.000   0.000   0.000
   16  9 3Pdxy      0.00226   0.00000      0.000  -0.000  -0.000
   16 10 3Pdyz      0.00502   0.00000      0.000  -0.000   0.000
   16 11 3Pdz2      0.00182   0.00000     -0.000   0.000   0.000
   16 12 3Pdxz      0.00239   0.00000      0.000   0.000   0.000
   16 13 3Pdx2-y2   0.00611   0.00000     -0.000   0.000   0.000
   16     Total     5.51638   0.00000     -0.000   0.000  -0.000

   26  1 2s         1.37465   0.00000      0.000   0.000   0.000
   26  2 2s         0.12191   0.00000     -0.000  -0.000  -0.000
   26  3 2py        1.16993   0.00000      0.000   0.000   0.000
   26  4 2pz        1.42595   0.00000      0.000  -0.000  -0.000
   26  5 2px        0.84113   0.00000      0.000   0.000   0.000
   26  6 2py        0.17182   0.00000     -0.000  -0.000  -0.000
   26  7 2pz        0.01689   0.00000     -0.000   0.000  -0.000
   26  8 2px        0.29841   0.00000     -0.000  -0.000  -0.000
   26  9 3Pdxy      0.00202   0.00000      0.000   0.000  -0.000
   26 10 3Pdyz      0.00296   0.00000      0.000   0.000   0.000
   26 11 3Pdz2     -0.00028   0.00000     -0.000   0.000  -0.000
   26 12 3Pdxz      0.00401   0.00000     -0.000  -0.000   0.000
   26 13 3Pdx2-y2   0.00778   0.00000      0.000   0.000  -0.000
   26     Total     5.43717   0.00000      0.000  -0.000   0.000

----------------------------------------------------------------
Total              49.26064   0.00000     -0.000  -0.000   0.000


Species: Si                  

Atom      Orb        Charge      Spin       Svec
----------------------------------------------------------------
    3  1 3s         0.55202   0.00000      0.000   0.000  -0.000
    3  2 3s         0.38736   0.00000     -0.000  -0.000  -0.000
    3  3 3py        0.08368   0.00000     -0.000   0.000  -0.000
    3  4 3pz        0.53037   0.00000     -0.000  -0.000  -0.000
    3  5 3px        0.37549   0.00000      0.000  -0.000  -0.000
    3  6 3py        0.49729   0.00000      0.000  -0.000  -0.000
    3  7 3pz        0.17353   0.00000     -0.000  -0.000  -0.000
    3  8 3px        0.23665   0.00000     -0.000   0.000   0.000
    3  9 3Pdxy      0.10972   0.00000     -0.000  -0.000  -0.000
    3 10 3Pdyz      0.05185   0.00000      0.000  -0.000  -0.000
    3 11 3Pdz2      0.01060   0.00000     -0.000   0.000   0.000
    3 12 3Pdxz      0.13488   0.00000     -0.000   0.000  -0.000
    3 13 3Pdx2-y2   0.32606   0.00000     -0.000   0.000  -0.000
    3     Total     3.46948   0.00000     -0.000  -0.000  -0.000

    6  1 3s         0.66664   0.00000      0.000  -0.000  -0.000
    6  2 3s         0.37096   0.00000     -0.000   0.000   0.000
    6  3 3py        0.13557   0.00000      0.000   0.000  -0.000
    6  4 3pz        0.67756   0.00000     -0.000  -0.000  -0.000
    6  5 3px        0.49110   0.00000     -0.000   0.000  -0.000
    6  6 3py        0.46739   0.00000     -0.000  -0.000   0.000
    6  7 3pz        0.23508   0.00000      0.000  -0.000  -0.000
    6  8 3px        0.24733   0.00000      0.000  -0.000   0.000
    6  9 3Pdxy      0.18053   0.00000     -0.000   0.000  -0.000
    6 10 3Pdyz      0.14541   0.00000      0.000  -0.000  -0.000
    6 11 3Pdz2      0.01275   0.00000      0.000   0.000  -0.000
    6 12 3Pdxz      0.03765   0.00000      0.000   0.000  -0.000
    6 13 3Pdx2-y2   0.18536   0.00000     -0.000   0.000   0.000
    6     Total     3.85334   0.00000      0.000   0.000  -0.000

    7  1 3s         0.64404   0.00000      0.000   0.000   0.000
    7  2 3s         0.35736   0.00000     -0.000   0.000  -0.000
    7  3 3py        0.32860   0.00000      0.000   0.000   0.000
    7  4 3pz        0.51850   0.00000      0.000  -0.000   0.000
    7  5 3px        0.09386   0.00000      0.000   0.000   0.000
    7  6 3py        0.32350   0.00000     -0.000  -0.000  -0.000
    7  7 3pz        0.19814   0.00000     -0.000   0.000  -0.000
    7  8 3px        0.42268   0.00000     -0.000  -0.000  -0.000
    7  9 3Pdxy      0.20562   0.00000     -0.000  -0.000   0.000
    7 10 3Pdyz      0.13305   0.00000      0.000   0.000  -0.000
    7 11 3Pdz2      0.00993   0.00000      0.000  -0.000  -0.000
    7 12 3Pdxz      0.15290   0.00000      0.000  -0.000  -0.000
    7 13 3Pdx2-y2   0.23054   0.00000     -0.000  -0.000   0.000
    7     Total     3.61871   0.00000      0.000  -0.000   0.000

   12  1 3s         0.80091   0.00000      0.000  -0.000  -0.000
   12  2 3s         0.32996   0.00000     -0.000   0.000   0.000
   12  3 3py        0.23140   0.00000      0.000  -0.000   0.000
   12  4 3pz        0.38337   0.00000     -0.000  -0.000  -0.000
   12  5 3px        0.36720   0.00000      0.000  -0.000  -0.000
   12  6 3py        0.42554   0.00000     -0.000   0.000  -0.000
   12  7 3pz        0.15078   0.00000      0.000   0.000  -0.000
   12  8 3px        0.29913   0.00000     -0.000   0.000   0.000
   12  9 3Pdxy      0.31212   0.00000      0.000   0.000   0.000
   12 10 3Pdyz      0.08796   0.00000      0.000  -0.000  -0.000
   12 11 3Pdz2      0.02801   0.00000     -0.000  -0.000  -0.000
   12 12 3Pdxz      0.08893   0.00000     -0.000   0.000  -0.000
   12 13 3Pdx2-y2   0.16621   0.00000     -0.000   0.000   0.000
   12     Total     3.67151   0.00000      0.000   0.000  -0.000

   15  1 3s         0.69122   0.00000      0.000  -0.000  -0.000
   15  2 3s         0.35866   0.00000     -0.000   0.000  -0.000
   15  3 3py        0.00151   0.00000      0.000  -0.000  -0.000
   15  4 3pz        0.49624   0.00000     -0.000   0.000  -0.000
   15  5 3px        0.41394   0.00000     -0.000  -0.000  -0.000
   15  6 3py        0.45501   0.00000     -0.000   0.000   0.000
   15  7 3pz        0.19194   0.00000      0.000  -0.000  -0.000
   15  8 3px        0.33639   0.00000      0.000   0.000   0.000
   15  9 3Pdxy      0.14392   0.00000      0.000   0.000  -0.000
   15 10 3Pdyz      0.12875   0.00000      0.000   0.000  -0.000
   15 11 3Pdz2      0.01694   0.00000      0.000   0.000  -0.000
   15 12 3Pdxz      0.12490   0.00000     -0.000  -0.000  -0.000
   15 13 3Pdx2-y2   0.31533   0.00000      0.000  -0.000  -0.000
   15     Total     3.67475   0.00000     -0.000  -0.000  -0.000

   17  1 3s         0.73065   0.00000     -0.000  -0.000   0.000
   17  2 3s         0.35472   0.00000      0.000  -0.000  -0.000
   17  3 3py        0.10748   0.00000      0.000  -0.000   0.000
   17  4 3pz        0.65953   0.00000      0.000   0.000   0.000
   17  5 3px        0.36563   0.00000      0.000   0.000   0.000
   17  6 3py        0.44281   0.00000     -0.000   0.000  -0.000
   17  7 3pz        0.14875   0.00000      0.000  -0.000   0.000
   17  8 3px        0.32515   0.00000     -0.000  -0.000   0.000
   17  9 3Pdxy      0.15798   0.00000      0.000  -0.000   0.000
   17 10 3Pdyz      0.02467   0.00000     -0.000  -0.000   0.000
   17 11 3Pdz2      0.01003   0.00000     -0.000   0.000  -0.000
   17 12 3Pdxz      0.11929   0.00000      0.000  -0.000   0.000
   17 13 3Pdx2-y2   0.12487   0.00000     -0.000  -0.000   0.000
   17     Total     3.57155   0.00000      0.000  -0.000   0.000

   19  1 3s         0.86880   0.00000     -0.000   0.000  -0.000
   19  2 3s         0.31403   0.00000      0.000  -0.000   0.000
   19  3 3py        0.42451   0.00000      0.000  -0.000  -0.000
   19  4 3pz        0.65568   0.00000     -0.000   0.000  -0.000
   19  5 3px        0.34640   0.00000     -0.000  -0.000  -0.000
   19  6 3py        0.32783   0.00000     -0.000   0.000  -0.000
   19  7 3pz        0.26294   0.00000      0.000  -0.000  -0.000
   19  8 3px        0.35714   0.00000      0.000  -0.000  -0.000
   19  9 3Pdxy      0.10118   0.00000     -0.000  -0.000  -0.000
   19 10 3Pdyz      0.03418   0.00000     -0.000   0.000   0.000
   19 11 3Pdz2      0.01540   0.00000     -0.000   0.000   0.000
   19 12 3Pdxz      0.05923   0.00000     -0.000  -0.000   0.000
   19 13 3Pdx2-y2   0.13219   0.00000      0.000  -0.000   0.000
   19     Total     3.89949   0.00000      0.000   0.000  -0.000

   20  1 3s         0.54277   0.00000     -0.000   0.000  -0.000
   20  2 3s         0.44243   0.00000      0.000  -0.000   0.000
   20  3 3py        0.31413   0.00000     -0.000   0.000  -0.000
   20  4 3pz        0.25783   0.00000     -0.000   0.000   0.000
   20  5 3px        0.46241   0.00000      0.000   0.000   0.000
   20  6 3py        0.38391   0.00000      0.000  -0.000  -0.000
   20  7 3pz        0.42027   0.00000     -0.000  -0.000  -0.000
   20  8 3px        0.27731   0.00000     -0.000  -0.000  -0.000
   20  9 3Pdxy      0.07125   0.00000      0.000   0.000  -0.000
   20 10 3Pdyz      0.08502   0.00000     -0.000  -0.000  -0.000
   20 11 3Pdz2      0.05097   0.00000     -0.000   0.000   0.000
   20 12 3Pdxz      0.07129   0.00000      0.000   0.000  -0.000
   20 13 3Pdx2-y2   0.04603   0.00000      0.000  -0.000  -0.000
   20     Total     3.42562   0.00000     -0.000   0.000  -0.000

   24  1 3s         0.65195   0.00000     -0.000   0.000  -0.000
   24  2 3s         0.34991   0.00000     -0.000  -0.000   0.000
   24  3 3py        0.30099   0.00000      0.000   0.000   0.000
   24  4 3pz        0.38553   0.00000     -0.000  -0.000   0.000
   24  5 3px        0.25665   0.00000     -0.000  -0.000   0.000
   24  6 3py        0.35442   0.00000     -0.000  -0.000   0.000
   24  7 3pz        0.20065   0.00000      0.000   0.000   0.000
   24  8 3px        0.30536   0.00000     -0.000   0.000   0.000
   24  9 3Pdxy      0.17178   0.00000      0.000   0.000  -0.000
   24 10 3Pdyz      0.13786   0.00000      0.000  -0.000   0.000
   24 11 3Pdz2      0.01184   0.00000     -0.000  -0.000  -0.000
   24 12 3Pdxz      0.11006   0.00000      0.000   0.000   0.000
   24 13 3Pdx2-y2   0.29894   0.00000     -0.000   0.000   0.000
   24     Total     3.53594   0.00000      0.000   0.000   0.000

   28  1 3s         0.47522   0.00000     -0.000   0.000   0.000
   28  2 3s         0.36448   0.00000     -0.000  -0.000  -0.000
   28  3 3py        0.03668   0.00000     -0.000  -0.000  -0.000
   28  4 3pz        0.35471   0.00000     -0.000   0.000   0.000
   28  5 3px        0.23368   0.00000     -0.000  -0.000  -0.000
   28  6 3py        0.44484   0.00000      0.000   0.000  -0.000
   28  7 3pz        0.21134   0.00000      0.000  -0.000   0.000
   28  8 3px        0.34205   0.00000      0.000  -0.000   0.000
   28  9 3Pdxy      0.16032   0.00000     -0.000  -0.000  -0.000
   28 10 3Pdyz      0.13546   0.00000     -0.000  -0.000   0.000
   28 11 3Pdz2      0.00773   0.00000     -0.000   0.000   0.000
   28 12 3Pdxz      0.14809   0.00000      0.000   0.000   0.000
   28 13 3Pdx2-y2   0.30079   0.00000     -0.000   0.000  -0.000
   28     Total     3.21539   0.00000     -0.000   0.000   0.000

----------------------------------------------------------------
Total              85.19644   0.00000     -0.000   0.000   0.000


Species: O                   

Atom      Orb        Charge      Spin       Svec
----------------------------------------------------------------
   25  1 2s         1.56268   0.00000     -0.000  -0.000   0.000
   25  2 2s         0.12261   0.00000      0.000   0.000  -0.000
   25  3 2py        1.20977   0.00000      0.000   0.000  -0.000
   25  4 2pz        1.64203   0.00000     -0.000   0.000  -0.000
   25  5 2px        1.52757   0.00000      0.000   0.000  -0.000
   25  6 2py        0.17987   0.00000      0.000  -0.000   0.000
   25  7 2pz       -0.00237   0.00000      0.000  -0.000   0.000
   25  8 2px        0.07932   0.00000     -0.000  -0.000   0.000
   25  9 3Pdxy      0.00613   0.00000      0.000  -0.000  -0.000
   25 10 3Pdyz      0.00642   0.00000     -0.000   0.000   0.000
   25 11 3Pdz2      0.00319   0.00000     -0.000  -0.000  -0.000
   25 12 3Pdxz      0.00297   0.00000     -0.000   0.000   0.000
   25 13 3Pdx2-y2   0.01366   0.00000     -0.000  -0.000  -0.000
   25     Total     6.35386   0.00000      0.000   0.000  -0.000

   29  1 2s         1.71855   0.00000     -0.000   0.000  -0.000
   29  2 2s         0.05056   0.00000      0.000  -0.000  -0.000
   29  3 2py        1.32782   0.00000      0.000  -0.000  -0.000
   29  4 2pz        1.63525   0.00000      0.000  -0.000  -0.000
   29  5 2px        1.55632   0.00000     -0.000  -0.000  -0.000
   29  6 2py        0.09116   0.00000     -0.000   0.000  -0.000
   29  7 2pz       -0.00878   0.00000     -0.000  -0.000  -0.000
   29  8 2px        0.04178   0.00000      0.000   0.000   0.000
   29  9 3Pdxy      0.00881   0.00000      0.000  -0.000  -0.000
   29 10 3Pdyz      0.00218   0.00000      0.000   0.000   0.000
   29 11 3Pdz2      0.00368   0.00000      0.000   0.000   0.000
   29 12 3Pdxz      0.00671   0.00000      0.000  -0.000  -0.000
   29 13 3Pdx2-y2   0.01566   0.00000      0.000  -0.000  -0.000
   29     Total     6.44971   0.00000      0.000  -0.000  -0.000

----------------------------------------------------------------
Total              98.00000   0.00000      0.000   0.000   0.000


siesta: Eigenvalues (eV):
ik =     1
  -25.9306  -25.9306  -24.9004  -24.9004  -22.1296  -22.1296  -21.5670  -21.5670  -20.8199  -20.8199
  -19.8669  -19.8669  -19.2566  -19.2566  -19.1190  -19.1190  -18.6153  -18.6153  -15.4906  -15.4906
  -14.9798  -14.9798  -14.3973  -14.3973  -14.0349  -14.0349  -13.3250  -13.3250  -13.1391  -13.1391
  -12.8977  -12.8977  -12.7370  -12.7370  -12.3790  -12.3790  -11.9154  -11.9154  -11.5588  -11.5588
  -10.9745  -10.9745  -10.6767  -10.6767  -10.4199  -10.4199   -9.9510   -9.9510   -9.6886   -9.6886
   -9.5491   -9.5491   -9.4717   -9.4717   -9.2220   -9.2220   -9.0236   -9.0236   -8.9814   -8.9814
   -8.8672   -8.8672   -8.6430   -8.6430   -8.5478   -8.5478   -8.3748   -8.3748   -8.2346   -8.2346
   -7.9761   -7.9761   -7.6679   -7.6679   -7.5812   -7.5812   -7.1727   -7.1727   -7.1672   -7.1672
   -6.4478   -6.4478   -6.1090   -6.1090   -6.0612   -6.0612   -5.9198   -5.9198   -5.8170   -5.8170
   -5.3319   -5.3319   -5.1832   -5.1832   -5.0822   -5.0822   -4.0183   -4.0183   -3.6780   -3.6780
   -2.8156   -2.8156   -2.5598   -2.5598   -2.5070   -2.5070   -2.0670   -2.0670   -2.0557   -2.0557
   -1.8694   -1.8694   -1.6899   -1.6899   -1.4905   -1.4905   -1.3574   -1.3574   -1.2317   -1.2317
   -0.9792   -0.9792   -0.3765   -0.3765   -0.3480   -0.3480   -0.1963   -0.1963   -0.1444   -0.1444
   -0.0236   -0.0236    0.1992    0.1992    0.3581    0.3581    0.3836    0.3836    0.7035    0.7035
    0.8876    0.8876    0.9568    0.9568    1.1706    1.1706    1.3650    1.3650    1.4223    1.4223
    1.8432    1.8432    2.0109    2.0109    2.0392    2.0392    2.5056    2.5056    2.5196    2.5196
    2.5879    2.5879    2.7793    2.7793    2.8366    2.8366    3.0405    3.0405    3.1311    3.1311
    3.2237    3.2237    3.3147    3.3147    3.6786    3.6786    3.8854    3.8854    4.0239    4.0239
    4.0807    4.0807    4.2024    4.2024    4.5719    4.5719    4.6900    4.6900    4.8625    4.8625
    4.9695    4.9695    5.1617    5.1617    5.2144    5.2144    5.2431    5.2431    5.4529    5.4529
    5.6882    5.6882    5.8380    5.8380    5.9488    5.9488    6.3109    6.3109    6.3552    6.3552
    6.4184    6.4184    6.5232    6.5232    6.8191    6.8191    6.9706    6.9706    7.0672    7.0672
    7.1490    7.1490    7.3056    7.3056    7.4960    7.4960    7.5859    7.5859    7.6774    7.6774
    7.8119    7.8119    8.0120    8.0120    8.2841    8.2841    8.4336    8.4336    8.4619    8.4619
    8.5568    8.5568    9.0761    9.0761    9.1057    9.1057    9.3340    9.3340    9.4260    9.4260
    9.4567    9.4567    9.7449    9.7449    9.8345    9.8345    9.9282    9.9282    9.9661    9.9661
   10.2369   10.2369   10.4761   10.4761   10.7458   10.7458   10.7918   10.7918   10.9130   10.9130
   11.1451   11.1451   11.3993   11.3993   11.5480   11.5480   11.6398   11.6398   11.7481   11.7481
   11.8535   11.8535   12.1497   12.1497   12.1822   12.1822   12.2773   12.2773   12.7176   12.7176
   12.9051   12.9051   13.2686   13.2686   13.3373   13.3373   13.4739   13.4739   13.7363   13.7363
   14.1002   14.1002   14.2068   14.2068   14.6073   14.6073   14.8990   14.8990   15.0139   15.0139
   15.3804   15.3804   15.5484   15.5484   15.8382   15.8382   16.3007   16.3007   16.5885   16.5885
   16.6897   16.6897   16.7187   16.7187   17.0761   17.0761   17.2667   17.2667   17.3843   17.3843
   17.5536   17.5536   18.0879   18.0879   18.3484   18.3484   18.4085   18.4085   18.6642   18.6642
   18.8505   18.8505   19.4278   19.4278   19.7408   19.7408   20.0443   20.0443   20.3445   20.3445
   20.9737   20.9737   21.0325   21.0325   21.1719   21.1719   21.4886   21.4886   21.8478   21.8478
   22.3215   22.3215   22.4734   22.4734   23.0086   23.0086   23.2490   23.2490   23.4096   23.4096
   24.1247   24.1247   24.5480   24.5480   24.8224   24.8224   25.1129   25.1129   25.6315   25.6315
   25.9852   25.9852   26.1318   26.1318   26.3470   26.3470   27.6962   27.6962   27.8430   27.8430
   28.2491   28.2491   28.4858   28.4858   29.4243   29.4243   29.5667   29.5667   30.5750   30.5750
   30.9738   30.9738   31.0261   31.0261   31.4926   31.4926   31.5489   31.5489   31.9029   31.9029
   32.0988   32.0988   32.6799   32.6799   33.3503   33.3503   33.3609   33.3609   34.8359   34.8359
   35.3832   35.3832   35.6954   35.6954   35.7044   35.7044   36.5240   36.5240   36.5997   36.5997
   36.7727   36.7727   37.4478   37.4478   38.1133   38.1133   38.3783   38.3783   39.3847   39.3847
   39.3929   39.3929   40.0668   40.0668   40.8222   40.8222   40.9807   40.9807   41.0742   41.0742
   41.1998   41.1998   42.4825   42.4825   42.6305   42.6305   43.2259   43.2259   43.4431   43.4431
   43.8319   43.8319   44.0225   44.0225   44.4918   44.4918   44.7959   44.7959   45.0505   45.0505
   45.3987   45.3987   45.7285   45.7285   46.0731   46.0731   46.2167   46.2167   46.9872   46.9872
   47.2811   47.2811   48.1048   48.1048   48.1663   48.1663   48.7588   48.7588   48.9642   48.9642
   49.0306   49.0306   49.3605   49.3605   49.8643   49.8643   50.1015   50.1015   50.7367   50.7367
   50.9087   50.9087   51.6015   51.6015   52.5615   52.5615   52.7319   52.7319   53.6117   53.6117
   54.3569   54.3569   54.9199   54.9199   55.2161   55.2161   56.5128   56.5128   56.5615   56.5615
   57.1726   57.1726   58.7061   58.7061   59.5717   59.5717   60.1566   60.1566   60.4568   60.4568
   61.2212   61.2212   61.3234   61.3234   61.6411   61.6411   64.3155   64.3155   64.3504   64.3504
   65.0081   65.0081   65.2820   65.2820   65.7801   65.7801   67.4656   67.4656   67.6665   67.6665
   67.9197   67.9197   69.6317   69.6317   69.8243   69.8243   70.9830   70.9830   73.0458   73.0458
   74.1140   74.1140   78.4309   78.4309   80.9077   80.9077   83.6472   83.6472   91.5228   91.5228
   92.4786   92.4786   93.2122   93.2122   95.5199   95.5199   97.7039   97.7039  100.2420  100.2420
  101.6200  101.6200  102.9897  102.9897  104.9199  104.9199  109.6259  109.6259  112.3357  112.3357
  121.1661  121.1661  124.9911  124.9911  127.2293  127.2293  133.4617  133.4617  146.0340  146.0340
  150.2233  150.2233  157.0793  157.0793
siesta: Fermi energy =      -3.848130 eV

siesta: Program's energy decomposition (eV):
siesta: Ebs     =     -1134.441370
siesta: Eions   =      3553.971015
siesta: Ena     =       388.868899
siesta: Ekin    =      2797.049869
siesta: Enl     =     -2571.152791
siesta: Eso     =        -0.004956
siesta: Edftu   =         0.000000
siesta: DEna    =        38.098523
siesta: DUscf   =        13.965510
siesta: DUext   =         0.000000
siesta: Exc     =     -1104.558990
siesta: eta*DQ  =         0.000000
siesta: Emadel  =         0.000000
siesta: Emeta   =         0.000000
siesta: Emolmec =         0.000000
siesta: Ekinion =         0.000000
siesta: Eharris =     -3991.704951
siesta: Etot    =     -3991.704951
siesta: FreeEng =     -3991.706036

siesta: Final energy (eV):
siesta:  Band Struct. =   -1134.441370
siesta:       Kinetic =    2797.049869
siesta:       Hartree =    8679.818629
siesta:       Edftu   =       0.000000
siesta:       Eso     =      -0.004956
siesta:    Ext. field =       0.000000
siesta:   Exch.-corr. =   -1104.558990
siesta:  Ion-electron =  -19856.922642
siesta:       Ion-ion =    5492.913138
siesta:       Ekinion =       0.000000
siesta:         Total =   -3991.704951
siesta:         Fermi =      -3.848130

siesta: Atomic forces (eV/Ang):
siesta:      1   -0.015810    0.032003    0.000020
siesta:      2   -0.085595   -0.224326   -0.000261
siesta:      3    0.125437    0.074077   -0.000199
siesta:      4   -0.067301   -0.062696    0.000132
siesta:      5   -0.052485   -0.014191    0.000155
siesta:      6    0.215432   -0.053082    0.000403
siesta:      7   -2.308241   -0.278911    0.000686
siesta:      8   -0.175080  -13.532171   -0.003757
siesta:      9   -4.078032   -8.262755    0.002868
siesta:     10    0.051040   -0.802179    0.000059
siesta:     11   -0.393249   -5.219557   -0.000788
siesta:     12    0.424121   -3.150672   -0.001254
siesta:     13    0.180316   -1.318003   -0.000126
siesta:     14   -0.410499   -0.853151    0.001022
siesta:     15    0.308891   -0.065184   -0.000303
siesta:     16    0.558988   -0.273489    0.007709
siesta:     17   -0.075440    0.119970   -0.032344
siesta:     18   -0.006569    0.157912    0.005059
siesta:     19   -0.231719   -0.221916   -0.048683
siesta:     20    0.116539    0.004075    0.012239
siesta:     21   -0.147273    0.180705    0.081324
siesta:     22   -0.033397    0.038762    0.029184
siesta:     23    0.061620    0.168629    0.092205
siesta:     24    1.922173    1.724755   -0.024144
siesta:     25    7.500848   23.979750    0.005706
siesta:     26    0.245354    7.313184    0.009270
siesta:     27   -0.547020   -2.052157    0.002441
siesta:     28   -2.473890    1.804685   -0.001198
siesta:     29    4.131607   -1.043564   -0.001130
siesta:     30    0.051742    0.350684    0.005734
siesta: ----------------------------------------
siesta:    Tot    4.792505   -1.478814    0.142029

siesta: Stress tensor (static) (eV/Ang**3):
siesta:    -0.002198   -0.002300    0.000037
siesta:    -0.002300   -0.017668   -0.000031
siesta:     0.000037   -0.000031   -0.000138

siesta: Cell volume =       3863.226598 Ang**3

siesta: Pressure (static):
siesta:                Solid            Molecule  Units
siesta:           0.00007262          0.00000473  Ry/Bohr**3
siesta:           0.00666800          0.00043433  eV/Ang**3
siesta:          10.68342710          0.69588460  kBar
(Free)E+ p_basis*V_orbitals  =       -3970.577951
(Free)Eharris+ p_basis*V_orbitals  =       -3970.577951
     spin moment: S , {S} =    0.00000   0.00000   0.00000   0.00000

siesta: Electric dipole (a.u.)  =    0.305421    2.674115   -0.013458
siesta: Electric dipole (Debye) =    0.776303    6.796926   -0.034208

cite: Please see "AT.bib" for an exhaustive BiBTeX file.
cite: Please clearly indicate Siesta version in published work: v4.1.5-1-g384057250
cite: This calculation has made use of the following articles
cite: which are encouraged to be cited in a published work.
        Primary SIESTA paper
          DOI: www.doi.org/10.1088/0953-8984/14/11/302
        Spin-orbit coupling (on-site approximation)
          DOI: www.doi.org/10.1088/0953-8984/19/19/489001


WARNING: alloc-realloc-dealloc name mismatch
         Name: atomlist isa
         Size:              -120. Bytes
         Node:     0
         Subsequent mismatches will not be reported
>> End of run:  22-MAY-2023   9:38:42
Job completed
