Siesta Version  : v4.1.5-1-g384057250
Architecture    : gcc
Compiler version: GNU Fortran (Ubuntu 11.4.0-1ubuntu1~22.04) 11.4.0
Compiler flags  : mpifort -O2 -fPIC -ftree-vectorize -fallow-argument-mismatch
PP flags        : -DFC_HAVE_ABORT -DMPI -DSIESTA__FLOOK -DSIESTA__METIS -DSIESTA__MUMPS -DCDF -DNCDF -DNCDF_4 -DNCDF_PARALLEL -DSIESTA__MRRR -DSIESTA__ELPA
Libraries       : libncdf.a libfdict.a  -lflookall -ldl -lnetcdff -lnetcdf -lhdf5_hl -lhdf5 -lhdf5_fortran -lz -lscalapack-openmpi -lopenblas -lmetis -lzmumps -lcmumps -ldmumps -lmumps_common -lpord -lsmumps -lesmumps -lscotch -lscotcherr -fopenmp -lelpa
PARALLEL version
NetCDF support
NetCDF-4 support
NetCDF-4 MPI-IO support
METIS ordering support
Lua support

* Running on 8 nodes in parallel
>> Start of run:   1-FEB-2024  18:28:10

                           ***********************       
                           *  WELCOME TO SIESTA  *       
                           ***********************       

reinit: Reading from standard input
reinit: Dumped input in INPUT_TMP.80463
************************** Dump of input data file ****************************
# mpirun -np 4 siesta-4.1.5 < AT.fdf > AT.out &
SystemLabel      AT
NumberOfAtoms    30
NumberOfSpecies  4
%block ChemicalSpeciesLabel
    1    1  H
    2    7  N
    3   14  Si
    4    8  O
%endblock ChemicalSpeciesLabel
############################################
# This overrides Defaults.fdf configuration
############################################
MD.TypeOfRun                Verlet # CG, Verlet
MD.Steps                    0
MaxSCFIterations            200
SCF.MustConverge            F
AtomicCoordinatesFormat NotScaledCartesianAng
%block AtomicCoordinatesAndAtomicSpecies
    2.28494382 -5.19529124 0.0  1  1  H
    1.37433094 -4.6647107 0.0  2  2  N
    -0.21830245 -5.49458215 0.0  3  3  Si
    -0.17484108 -6.98516892 0.0  1  4  H
    -1.66171682 -4.58600741 0.0  2  5  N
    -1.09026419 -2.87456374 0.0  3  6  Si
    -1.53038332 -0.70765692 0.0  3  7  Si
    -3.14415959 -0.09186471 0.0  2  8  N
    -3.40268075 0.95848335 0.0  1  9  H
    -3.95073599 -0.76720972 0.0  1  10  H
    -0.17836637 0.41349951 0.0  2  11  N
    1.49520211 -0.0473996 0.0  3  12  Si
    2.45603905 1.10727302 0.0  1  13  H
    2.30451743 -1.58574382 0.0  2  14  N
    1.10725559 -2.84610319 0.0  3  15  Si
    0.5332061038444886 7.8124422806636264 0.0  1  16  H
    -0.27550457615551144 7.120236400663626 0.0  2  17  N
    -1.9320944161555114 7.833356500663626 0.0  3  18  Si
    -1.8352292461555113 9.344081710663625 0.0  1  19  H
    -3.6582507661555113 6.490308370663626 0.0  3  20  Si
    -6.012705016155512 6.482321440663626 0.0  3  21  Si
    -6.575123136155512 7.216811090663626 -1.20183078  1  22  H
    -6.312518766155512 5.003230310663626 -0.08618332  1  23  H
    -6.575235596155512 7.047153900663626 1.28814761  1  24  H
    -2.7288601261555114 4.419737140663626 0.0  3  25  Si
    -3.6783284861555114 3.131201010663626 0.0  4  26  O
    -0.9379152561555114 4.246001670663626 0.0  2  27  N
    -0.6069238961555113 3.2136446906636262 0.0  1  28  H
    0.37054296384448854 5.440548090663626 0.0  3  29  Si
    1.9364798938444885 5.173301240663626 0.0  4  30  O
%endblock AtomicCoordinatesAndAtomicSpecies
#############
# Unit Cell
#############
LatticeConstant 1.0 Ang
%block LatticeVectors
    30.00000    0.000000    0.000000
    0.000000    45.00000    0.000000
    0.000000    0.000000    10.00000
%endblock LatticeVectors
%include ../../../../Defaults.fdf
************************** End of input data file *****************************

reinit: -----------------------------------------------------------------------
reinit: System Name: 
reinit: -----------------------------------------------------------------------
reinit: System Label: AT
reinit: -----------------------------------------------------------------------

initatom: Reading input for the pseudopotentials and atomic orbitals ----------
Species number:   1 Atomic number:    1 Label: H
Species number:   2 Atomic number:    7 Label: N
Species number:   3 Atomic number:   14 Label: Si
Species number:   4 Atomic number:    8 Label: O

Ground state valence configuration:   1s01
Reading pseudopotential information in formatted form from H.psf

Pseudopotential generated from a relativistic atomic calculation

Valence configuration for pseudopotential generation:
1s( 1.00) rc: 0.01
2p( 0.00) rc: 0.60
3d( 0.00) rc: 1.99
4f( 0.00) rc: 2.49
Ground state valence configuration:   2s02  2p03
Reading pseudopotential information in formatted form from N.psf

Pseudopotential generated from a relativistic atomic calculation

Valence configuration for pseudopotential generation:
2s( 2.00) rc: 0.94
2p( 3.00) rc: 0.59
3d( 0.00) rc: 3.46
4f( 0.00) rc: 2.47
Ground state valence configuration:   3s02  3p02
Reading pseudopotential information in formatted form from Si.psf

Pseudopotential generated from a relativistic atomic calculation

Valence configuration for pseudopotential generation:
3s( 2.00) rc: 1.67
3p( 2.00) rc: 2.04
3d( 0.00) rc: 2.89
4f( 0.00) rc: 2.49
Ground state valence configuration:   2s02  2p04
Reading pseudopotential information in formatted form from O.psf

Pseudopotential generated from a relativistic atomic calculation

Valence configuration for pseudopotential generation:
2s( 2.00) rc: 0.45
2p( 4.00) rc: 0.92
3d( 0.00) rc: 2.24
4f( 0.00) rc: 0.25
For H, standard SIESTA heuristics set lmxkb to 2
 (one more than the basis l, including polarization orbitals).
Use PS.lmax or PS.KBprojectors blocks to override.
For N, standard SIESTA heuristics set lmxkb to 3
 (one more than the basis l, including polarization orbitals).
Use PS.lmax or PS.KBprojectors blocks to override.
For Si, standard SIESTA heuristics set lmxkb to 3
 (one more than the basis l, including polarization orbitals).
Use PS.lmax or PS.KBprojectors blocks to override.
For O, standard SIESTA heuristics set lmxkb to 3
 (one more than the basis l, including polarization orbitals).
Use PS.lmax or PS.KBprojectors blocks to override.

<basis_specs>
===============================================================================
H                    Z=   1    Mass=  1.0100        Charge= 0.17977+309
Lmxo=0 Lmxkb= 2    BasisType=split      Semic=F
L=0  Nsemic=0  Cnfigmx=1
          i=1  nzeta=2  polorb=1  (1s)
            splnorm:   0.62000    
               vcte:    0.0000    
               rinn:    0.0000    
               qcoe:    0.0000    
               qyuk:    0.0000    
               qwid:   0.10000E-01
                rcs:    0.0000      0.0000    
            lambdas:    1.0000      1.0000    
-------------------------------------------------------------------------------
L=0  Nkbl=1  erefs: 0.17977+309
L=1  Nkbl=1  erefs: 0.17977+309
L=2  Nkbl=1  erefs: 0.17977+309
===============================================================================
</basis_specs>

atom: Called for H                     (Z =   1)

read_vps: Pseudopotential generation method:
read_vps: ATM4.2.7  Troullier-Martins                       
Valence charge for ps generation:    1.00000

xc_check: Exchange-correlation functional:
xc_check: GGA Perdew, Burke & Ernzerhof 1996
V l=0 = -2*Zval/r beyond r=  0.0098
V l=1 = -2*Zval/r beyond r=  0.5817
V l=2 = -2*Zval/r beyond r=  1.9372
All V_l potentials equal beyond r=  1.9372
This should be close to max(r_c) in ps generation
All pots = -2*Zval/r beyond r=  1.9372

VLOCAL1: 99.0% of the norm of Vloc inside     11.567 Ry
VLOCAL1: 99.9% of the norm of Vloc inside     26.362 Ry
atom: Maximum radius for 4*pi*r*r*local-pseudopot. charge    2.25106
atom: Maximum radius for r*vlocal+2*Zval:    1.91306
GHOST: No ghost state for L =  0
GHOST: No ghost state for L =  1
GHOST: No ghost state for L =  2

KBgen: Kleinman-Bylander projectors: 
   l= 0   rc=  2.036604   el= -0.477180   Ekb= -6.081590   kbcos= -0.277285
   l= 1   rc=  2.195416   el=  0.001076   Ekb= -0.926943   kbcos= -0.034643
   l= 2   rc=  2.251056   el=  0.002010   Ekb= -0.130941   kbcos= -0.009788

KBgen: Total number of Kleinman-Bylander projectors:    9
atom: -------------------------------------------------------------------------

atom: SANKEY-TYPE ORBITALS:
atom: Selected multiple-zeta basis: split     

SPLIT: Orbitals with angular momentum L= 0

SPLIT: Basis orbitals for state 1s

SPLIT: PAO cut-off radius determined from an
SPLIT: energy shift=  0.002000 Ry

   izeta = 1
                 lambda =    1.000000
                     rc =    6.518340
                 energy =   -0.475305
                kinetic =    0.912139
    potential(screened) =   -1.387444
       potential(ionic) =   -1.907295

   izeta = 2
                 rmatch =    2.141150
              splitnorm =    0.620000
                 energy =    0.566467
                kinetic =    3.772856
    potential(screened) =   -3.206389
       potential(ionic) =   -3.759093

POLgen: Perturbative polarization orbital with L=  1

POLgen: Polarization orbital for state 1s

   izeta = 1
                     rc =    6.518340
                 energy =    0.533861
                kinetic =    1.121086
    potential(screened) =   -0.587225
       potential(ionic) =   -1.053027
atom: Total number of Sankey-type orbitals:  5

atm_pop: Valence configuration (for local Pseudopot. screening):
 1s( 1.00)                                                            
Vna: chval, zval:    1.00000   1.00000

Vna:  Cut-off radius for the neutral-atom potential:   6.518340

atom: _________________________________________________________________________

<basis_specs>
===============================================================================
N                    Z=   7    Mass=  14.010        Charge= 0.17977+309
Lmxo=1 Lmxkb= 3    BasisType=split      Semic=F
L=0  Nsemic=0  Cnfigmx=2
          i=1  nzeta=2  polorb=0  (2s)
            splnorm:   0.28000    
               vcte:    0.0000    
               rinn:    0.0000    
               qcoe:    0.0000    
               qyuk:    0.0000    
               qwid:   0.10000E-01
                rcs:    0.0000      0.0000    
            lambdas:    1.0000      1.0000    
L=1  Nsemic=0  Cnfigmx=2
          i=1  nzeta=2  polorb=1  (2p)
            splnorm:   0.28000    
               vcte:    0.0000    
               rinn:    0.0000    
               qcoe:    0.0000    
               qyuk:    0.0000    
               qwid:   0.10000E-01
                rcs:    0.0000      0.0000    
            lambdas:    1.0000      1.0000    
-------------------------------------------------------------------------------
L=0  Nkbl=1  erefs: 0.17977+309
L=1  Nkbl=1  erefs: 0.17977+309
L=2  Nkbl=1  erefs: 0.17977+309
L=3  Nkbl=1  erefs: 0.17977+309
===============================================================================
</basis_specs>

atom: Called for N                     (Z =   7)

read_vps: Pseudopotential generation method:
read_vps: ATM4.2.7  Troullier-Martins                       
Valence charge for ps generation:    5.00000

xc_check: Exchange-correlation functional:
xc_check: GGA Perdew, Burke & Ernzerhof 1996
V l=0 = -2*Zval/r beyond r=  1.2889
V l=1 = -2*Zval/r beyond r=  1.2889
V l=2 = -2*Zval/r beyond r=  3.4178
V l=3 = -2*Zval/r beyond r=  2.4084
All V_l potentials equal beyond r=  3.3753
This should be close to max(r_c) in ps generation
All pots = -2*Zval/r beyond r=  3.4178

VLOCAL1: 99.0% of the norm of Vloc inside      3.810 Ry
VLOCAL1: 99.9% of the norm of Vloc inside      8.683 Ry
atom: Maximum radius for 4*pi*r*r*local-pseudopot. charge    4.02088
atom: Maximum radius for r*vlocal+2*Zval:    3.54838
GHOST: No ghost state for L =  0
GHOST: No ghost state for L =  1
GHOST: No ghost state for L =  2
GHOST: No ghost state for L =  3

KBgen: Kleinman-Bylander projectors: 
   l= 0   rc=  3.417763   el= -1.365098   Ekb= -4.433130   kbcos= -0.707855
   l= 1   rc=  3.375302   el= -0.521201   Ekb=-13.264039   kbcos= -0.535594
   l= 2   rc=  3.872880   el=  0.001991   Ekb= -0.641094   kbcos= -0.062456
   l= 3   rc=  3.970931   el=  0.003093   Ekb= -0.474517   kbcos= -0.018236

KBgen: Total number of Kleinman-Bylander projectors:   16
atom: -------------------------------------------------------------------------

atom: SANKEY-TYPE ORBITALS:
atom: Selected multiple-zeta basis: split     

SPLIT: Orbitals with angular momentum L= 0

SPLIT: Basis orbitals for state 2s

SPLIT: PAO cut-off radius determined from an
SPLIT: energy shift=  0.002000 Ry

   izeta = 1
                 lambda =    1.000000
                     rc =    4.730425
                 energy =   -1.363399
                kinetic =    1.245246
    potential(screened) =   -2.608645
       potential(ionic) =   -8.121105

   izeta = 2
                 rmatch =    2.531849
              splitnorm =    0.280000
                 energy =   -0.959908
                kinetic =    2.409435
    potential(screened) =   -3.369343
       potential(ionic) =   -9.427975

SPLIT: Orbitals with angular momentum L= 1

SPLIT: Basis orbitals for state 2p

SPLIT: PAO cut-off radius determined from an
SPLIT: energy shift=  0.002000 Ry

   izeta = 1
                 lambda =    1.000000
                     rc =    5.924108
                 energy =   -0.519262
                kinetic =    3.672940
    potential(screened) =   -4.192202
       potential(ionic) =   -9.518354

   izeta = 2
                 rmatch =    2.531849
              splitnorm =    0.280000
                 energy =   -0.104258
                kinetic =    6.807538
    potential(screened) =   -6.911796
       potential(ionic) =  -13.149920

POLgen: Perturbative polarization orbital with L=  2

POLgen: Polarization orbital for state 2p

   izeta = 1
                     rc =    5.924108
                 energy =    1.427508
                kinetic =    2.872379
    potential(screened) =   -1.444871
       potential(ionic) =   -5.563644
atom: Total number of Sankey-type orbitals: 13

atm_pop: Valence configuration (for local Pseudopot. screening):
 2s( 2.00)                                                            
 2p( 3.00)                                                            
Vna: chval, zval:    5.00000   5.00000

Vna:  Cut-off radius for the neutral-atom potential:   5.924108

atom: _________________________________________________________________________

<basis_specs>
===============================================================================
Si                   Z=  14    Mass=  28.090        Charge= 0.17977+309
Lmxo=1 Lmxkb= 3    BasisType=split      Semic=F
L=0  Nsemic=0  Cnfigmx=3
          i=1  nzeta=2  polorb=0  (3s)
            splnorm:   0.28000    
               vcte:    0.0000    
               rinn:    0.0000    
               qcoe:    0.0000    
               qyuk:    0.0000    
               qwid:   0.10000E-01
                rcs:    0.0000      0.0000    
            lambdas:    1.0000      1.0000    
L=1  Nsemic=0  Cnfigmx=3
          i=1  nzeta=2  polorb=1  (3p)
            splnorm:   0.28000    
               vcte:    0.0000    
               rinn:    0.0000    
               qcoe:    0.0000    
               qyuk:    0.0000    
               qwid:   0.10000E-01
                rcs:    0.0000      0.0000    
            lambdas:    1.0000      1.0000    
-------------------------------------------------------------------------------
L=0  Nkbl=1  erefs: 0.17977+309
L=1  Nkbl=1  erefs: 0.17977+309
L=2  Nkbl=1  erefs: 0.17977+309
L=3  Nkbl=1  erefs: 0.17977+309
===============================================================================
</basis_specs>

atom: Called for Si                    (Z =  14)

read_vps: Pseudopotential generation method:
read_vps: ATM4.2.7  Troullier-Martins                       
Valence charge for ps generation:    4.00000

xc_check: Exchange-correlation functional:
xc_check: GGA Perdew, Burke & Ernzerhof 1996
V l=0 = -2*Zval/r beyond r=  2.7826
V l=1 = -2*Zval/r beyond r=  2.7826
V l=2 = -2*Zval/r beyond r=  2.9253
V l=3 = -2*Zval/r beyond r=  2.7826
All V_l potentials equal beyond r=  2.8530
This should be close to max(r_c) in ps generation
All pots = -2*Zval/r beyond r=  2.9253

VLOCAL1: 99.0% of the norm of Vloc inside      5.333 Ry
VLOCAL1: 99.9% of the norm of Vloc inside     12.154 Ry
atom: Maximum radius for 4*pi*r*r*local-pseudopot. charge    3.39869
atom: Maximum radius for r*vlocal+2*Zval:    2.96205
GHOST: No ghost state for L =  0
GHOST: No ghost state for L =  1
GHOST: No ghost state for L =  2
GHOST: No ghost state for L =  3

KBgen: Kleinman-Bylander projectors: 
   l= 0   rc=  3.075247   el= -0.794092   Ekb=  5.879390   kbcos=  0.167461
   l= 1   rc=  3.153101   el= -0.300068   Ekb=  2.642817   kbcos=  0.058301
   l= 2   rc=  3.273594   el=  0.001958   Ekb= -1.185135   kbcos= -0.104411
   l= 3   rc=  3.232927   el=  0.003046   Ekb= -0.497174   kbcos= -0.015889

KBgen: Total number of Kleinman-Bylander projectors:   16
atom: -------------------------------------------------------------------------

atom: SANKEY-TYPE ORBITALS:
atom: Selected multiple-zeta basis: split     

SPLIT: Orbitals with angular momentum L= 0

SPLIT: Basis orbitals for state 3s

SPLIT: PAO cut-off radius determined from an
SPLIT: energy shift=  0.002000 Ry

   izeta = 1
                 lambda =    1.000000
                     rc =    6.429618
                 energy =   -0.792283
                kinetic =    0.525293
    potential(screened) =   -1.317576
       potential(ionic) =   -3.744923

   izeta = 2
                 rmatch =    3.998416
              splitnorm =    0.280000
                 energy =   -0.583081
                kinetic =    1.069570
    potential(screened) =   -1.652651
       potential(ionic) =   -4.235185

SPLIT: Orbitals with angular momentum L= 1

SPLIT: Basis orbitals for state 3p

SPLIT: PAO cut-off radius determined from an
SPLIT: energy shift=  0.002000 Ry

   izeta = 1
                 lambda =    1.000000
                     rc =    8.464845
                 energy =   -0.298236
                kinetic =    0.785360
    potential(screened) =   -1.083596
       potential(ionic) =   -3.273779

   izeta = 2
                 rmatch =    4.587816
              splitnorm =    0.280000
                 energy =   -0.131871
                kinetic =    1.403687
    potential(screened) =   -1.535557
       potential(ionic) =   -4.015310

POLgen: Perturbative polarization orbital with L=  2

POLgen: Polarization orbital for state 3p

   izeta = 1
                     rc =    8.464845
                 energy =    0.321949
                kinetic =    1.055677
    potential(screened) =   -0.733728
       potential(ionic) =   -2.672950
atom: Total number of Sankey-type orbitals: 13

atm_pop: Valence configuration (for local Pseudopot. screening):
 3s( 2.00)                                                            
 3p( 2.00)                                                            
Vna: chval, zval:    4.00000   4.00000

Vna:  Cut-off radius for the neutral-atom potential:   8.464845

atom: _________________________________________________________________________

<basis_specs>
===============================================================================
O                    Z=   8    Mass=  16.000        Charge= 0.17977+309
Lmxo=1 Lmxkb= 3    BasisType=split      Semic=F
L=0  Nsemic=0  Cnfigmx=2
          i=1  nzeta=2  polorb=0  (2s)
            splnorm:   0.28000    
               vcte:    0.0000    
               rinn:    0.0000    
               qcoe:    0.0000    
               qyuk:    0.0000    
               qwid:   0.10000E-01
                rcs:    0.0000      0.0000    
            lambdas:    1.0000      1.0000    
L=1  Nsemic=0  Cnfigmx=2
          i=1  nzeta=2  polorb=1  (2p)
            splnorm:   0.28000    
               vcte:    0.0000    
               rinn:    0.0000    
               qcoe:    0.0000    
               qyuk:    0.0000    
               qwid:   0.10000E-01
                rcs:    0.0000      0.0000    
            lambdas:    1.0000      1.0000    
-------------------------------------------------------------------------------
L=0  Nkbl=1  erefs: 0.17977+309
L=1  Nkbl=1  erefs: 0.17977+309
L=2  Nkbl=1  erefs: 0.17977+309
L=3  Nkbl=1  erefs: 0.17977+309
===============================================================================
</basis_specs>

atom: Called for O                     (Z =   8)

read_vps: Pseudopotential generation method:
read_vps: ATM4.2.7  Troullier-Martins                       
Valence charge for ps generation:    6.00000

xc_check: Exchange-correlation functional:
xc_check: GGA Perdew, Burke & Ernzerhof 1996
V l=0 = -2*Zval/r beyond r=  1.1000
V l=1 = -2*Zval/r beyond r=  1.1000
V l=2 = -2*Zval/r beyond r=  2.2154
V l=3 = -2*Zval/r beyond r=  1.1000
All V_l potentials equal beyond r=  2.2154
This should be close to max(r_c) in ps generation
All pots = -2*Zval/r beyond r=  2.2154

VLOCAL1: 99.0% of the norm of Vloc inside      8.845 Ry
VLOCAL1: 99.9% of the norm of Vloc inside     20.157 Ry
atom: Maximum radius for 4*pi*r*r*local-pseudopot. charge    2.67231
atom: Maximum radius for r*vlocal+2*Zval:    2.32897
GHOST: No ghost state for L =  0
GHOST: No ghost state for L =  1
GHOST: No ghost state for L =  2
GHOST: No ghost state for L =  3

KBgen: Kleinman-Bylander projectors: 
   l= 0   rc=  2.243238   el= -1.759686   Ekb=**********   kbcos= -0.171774
   l= 1   rc=  2.328968   el= -0.663873   Ekb=-14.506792   kbcos= -0.519897
   l= 2   rc=  2.573941   el=  0.002031   Ekb= -1.137373   kbcos= -0.019581
   l= 3   rc=  2.606321   el=  0.003153   Ekb= -1.013546   kbcos= -0.003122

KBgen: Total number of Kleinman-Bylander projectors:   16
atom: -------------------------------------------------------------------------

atom: SANKEY-TYPE ORBITALS:
atom: Selected multiple-zeta basis: split     

SPLIT: Orbitals with angular momentum L= 0

SPLIT: Basis orbitals for state 2s

SPLIT: PAO cut-off radius determined from an
SPLIT: energy shift=  0.002000 Ry

   izeta = 1
                 lambda =    1.000000
                     rc =    4.243912
                 energy =   -1.758270
                kinetic =    3.286084
    potential(screened) =   -5.044353
       potential(ionic) =  -12.921184

   izeta = 2
                 rmatch =    2.187845
              splitnorm =    0.280000
                 energy =   -0.885018
                kinetic =    8.134434
    potential(screened) =   -9.019452
       potential(ionic) =  -17.710645

SPLIT: Orbitals with angular momentum L= 1

SPLIT: Basis orbitals for state 2p

SPLIT: PAO cut-off radius determined from an
SPLIT: energy shift=  0.002000 Ry

   izeta = 1
                 lambda =    1.000000
                     rc =    5.314825
                 energy =   -0.661986
                kinetic =    4.917472
    potential(screened) =   -5.579458
       potential(ionic) =  -13.236259

   izeta = 2
                 rmatch =    2.160663
              splitnorm =    0.280000
                 energy =   -0.068760
                kinetic =    9.183374
    potential(screened) =   -9.252135
       potential(ionic) =  -18.274251

POLgen: Perturbative polarization orbital with L=  2

POLgen: Polarization orbital for state 2p

   izeta = 1
                     rc =    5.314825
                 energy =    1.970580
                kinetic =    3.886128
    potential(screened) =   -1.915547
       potential(ionic) =   -7.749584
atom: Total number of Sankey-type orbitals: 13

atm_pop: Valence configuration (for local Pseudopot. screening):
 2s( 2.00)                                                            
 2p( 4.00)                                                            
Vna: chval, zval:    6.00000   6.00000

Vna:  Cut-off radius for the neutral-atom potential:   5.314825

atom: _________________________________________________________________________

prinput: Basis input ----------------------------------------------------------

PAO.BasisType split     

%block ChemicalSpeciesLabel
    1    1 H                       # Species index, atomic number, species label
    2    7 N                       # Species index, atomic number, species label
    3   14 Si                      # Species index, atomic number, species label
    4    8 O                       # Species index, atomic number, species label
%endblock ChemicalSpeciesLabel

%block PAO.Basis                 # Define Basis set
H                     1                    # Species label, number of l-shells
 n=1   0   2 P   1                   # n, l, Nzeta, Polarization, NzetaPol
   6.518      2.141   
   1.000      1.000   
N                     2                    # Species label, number of l-shells
 n=2   0   2                         # n, l, Nzeta 
   4.730      2.532   
   1.000      1.000   
 n=2   1   2 P   1                   # n, l, Nzeta, Polarization, NzetaPol
   5.924      2.532   
   1.000      1.000   
Si                    2                    # Species label, number of l-shells
 n=3   0   2                         # n, l, Nzeta 
   6.430      3.998   
   1.000      1.000   
 n=3   1   2 P   1                   # n, l, Nzeta, Polarization, NzetaPol
   8.465      4.588   
   1.000      1.000   
O                     2                    # Species label, number of l-shells
 n=2   0   2                         # n, l, Nzeta 
   4.244      2.188   
   1.000      1.000   
 n=2   1   2 P   1                   # n, l, Nzeta, Polarization, NzetaPol
   5.315      2.161   
   1.000      1.000   
%endblock PAO.Basis

prinput: ----------------------------------------------------------------------

Dumping basis to NetCDF file H.ion.nc
Dumping basis to NetCDF file N.ion.nc
Dumping basis to NetCDF file Si.ion.nc
Dumping basis to NetCDF file O.ion.nc
coor:   Atomic-coordinates input format  =     Cartesian coordinates
coor:                                          (in Angstroms)

siesta: Atomic coordinates (Bohr) and species
siesta:      4.31792  -9.81768   0.00000  1        1
siesta:      2.59711  -8.81503   0.00000  2        2
siesta:     -0.41253 -10.38326   0.00000  3        3
siesta:     -0.33040 -13.20006   0.00000  1        4
siesta:     -3.14019  -8.66630   0.00000  2        5
siesta:     -2.06030  -5.43214   0.00000  3        6
siesta:     -2.89201  -1.33728   0.00000  3        7
siesta:     -5.94160  -0.17360   0.00000  2        8
siesta:     -6.43014   1.81127   0.00000  1        9
siesta:     -7.46581  -1.44982   0.00000  1       10
siesta:     -0.33706   0.78140   0.00000  2       11
siesta:      2.82552  -0.08957   0.00000  3       12
siesta:      4.64124   2.09244   0.00000  1       13
siesta:      4.35491  -2.99662   0.00000  2       14
siesta:      2.09241  -5.37836   0.00000  3       15
siesta:      1.00761  14.76338   0.00000  1       16
siesta:     -0.52063  13.45530   0.00000  2       17
siesta:     -3.65113  14.80290   0.00000  3       18
siesta:     -3.46808  17.65776   0.00000  1       19
siesta:     -6.91309  12.26491   0.00000  3       20
siesta:    -11.36237  12.24982   0.00000  3       21
siesta:    -12.42519  13.63780  -2.27113  1       22
siesta:    -11.92894   9.45474  -0.16286  1       23
siesta:    -12.42540  13.31720   2.43425  1       24
siesta:     -5.15680   8.35210   0.00000  3       25
siesta:     -6.95104   5.91711   0.00000  4       26
siesta:     -1.77240   8.02378   0.00000  2       27
siesta:     -1.14692   6.07291   0.00000  1       28
siesta:      0.70022  10.28115   0.00000  3       29
siesta:      3.65942   9.77613   0.00000  4       30

siesta: System type = molecule  

initatomlists: Number of atoms, orbitals, and projectors:     30   302   403

siesta: ******************** Simulation parameters ****************************
siesta:
siesta: The following are some of the parameters of the simulation.
siesta: A complete list of the parameters used, including default values,
siesta: can be found in file out.fdf
siesta:
redata: Spin configuration                          = spin-orbit
redata: Number of spin components                   = 8
redata: Time-Reversal Symmetry                      = F
redata: Spin spiral                                 = F
############################################################
This spin-orbit implementation uses a local approximation.
From 4.2 and onwards the full non-local approximation is implemented
You are strongly advised to use >=4.2 versions!
############################################################
redata: Long output                                 =   F
redata: Number of Atomic Species                    =        4
redata: Charge density info will appear in .RHO file
redata: Write Mulliken Pop.                         = NO
redata: Matel table size (NRTAB)                    =     1024
redata: Mesh Cutoff                                 =   340.0000 Ry
redata: Net charge of the system                    =     0.0000 |e|
redata: Min. number of SCF Iter                     =        1
redata: Max. number of SCF Iter                     =      200
redata: SCF mix quantity                            = Hamiltonian
redata: Mix DM or H after convergence               =   F
redata: Recompute H after scf cycle                 =   F
redata: Mix DM in first SCF step                    =   T
redata: Write Pulay info on disk                    =   F
redata: New DM Occupancy tolerance                  = 0.000000000001
redata: No kicks to SCF
redata: DM Mixing Weight for Kicks                  =     0.5000
redata: Require Harris convergence for SCF          =   F
redata: Harris energy tolerance for SCF             =     0.000100 eV
redata: Require DM convergence for SCF              =   T
redata: DM tolerance for SCF                        =     0.000008
redata: Require EDM convergence for SCF             =   F
redata: EDM tolerance for SCF                       =     0.001000 eV
redata: Require H convergence for SCF               =   T
redata: Hamiltonian tolerance for SCF               =     0.000001 eV
redata: Require (free) Energy convergence for SCF   =   F
redata: (free) Energy tolerance for SCF             =     0.000100 eV
redata: Using Saved Data (generic)                  =   F
redata: Use continuation files for DM               =   T
redata: Neglect nonoverlap interactions             =   F
redata: Method of Calculation                       = Diagonalization
redata: Electronic Temperature                      =   299.9978 K
redata: Fix the spin of the system                  =   F
redata: Dynamics option                             = Verlet MD run
redata: Initial MD time step                        =        1
redata:   Final MD time step                        =        1
redata: Length of MD time step                      =     0.5000 fs
redata: Initial Temperature of MD run               =     0.0000 K
redata: Perform a MD quench                         =   F
mix.SCF: Pulay mixing                            = Pulay
mix.SCF:    Variant                              = stable
mix.SCF:    History steps                        = 6
mix.SCF:    Linear mixing weight                 =     0.250000
mix.SCF:    Mixing weight                        =     0.250000
mix.SCF:    SVD condition                        = 0.1000E-07
mix.SCF:    Restart steps                        = 24
mix.SCF:    Restart save steps                   = 3
mix.SCF: Spin-component mixing                   all
redata: Save all siesta data in one NC              =   F
redata: ***********************************************************************

%block SCF.Mixers
  Pulay
%endblock SCF.Mixers

%block SCF.Mixer.Pulay
  # Mixing method
  method pulay
  variant stable

  # Mixing options
  weight 0.2500
  weight.linear 0.2500
  history 6
  restart 24
  restart.save 3
%endblock SCF.Mixer.Pulay

Size of DM history Fstack: 3
Total number of electrons:    98.000000
Total ionic charge:    98.000000

* ProcessorY, Blocksize:    2  24


* Orbital distribution balance (max,min):    48    24


Time-reversal symmetry not used.

siesta: k-grid: Number of k-points =     1
siesta: k-grid: Cutoff (effective) =     5.000 Ang
siesta: k-grid: Supercell and displacements
siesta: k-grid:    1   0   0      0.000
siesta: k-grid:    0   1   0      0.000
siesta: k-grid:    0   0   1      0.000

diag: Algorithm                                     = ELPA-1stage
diag: Parallel over k                               =   F
diag: Use parallel 2D distribution                  =   T
diag: Parallel block-size                           = 24
diag: Parallel distribution                         =     2 x     4
diag: Used triangular part                          = Lower
diag: Absolute tolerance                            =  0.100E-15
diag: Orthogonalization factor                      =  0.100E-05
diag: Memory factor                                 =  1.0000


ts: **************************************************************
ts: Save H and S matrices                           =    F
ts: Save DM and EDM matrices                        =    F
ts: Only save the overlap matrix S                  =    F
ts: **************************************************************

************************ Begin: TS CHECKS AND WARNINGS ************************
************************ End: TS CHECKS AND WARNINGS **************************


                     ====================================
                        Begin MD step =      1
                     ====================================

outcoor: Atomic coordinates (Ang):                          
    2.28494382   -5.19529124    0.00000000   1       1  H
    1.37433094   -4.66471070    0.00000000   2       2  N
   -0.21830245   -5.49458215    0.00000000   3       3  Si
   -0.17484108   -6.98516892    0.00000000   1       4  H
   -1.66171682   -4.58600741    0.00000000   2       5  N
   -1.09026419   -2.87456374    0.00000000   3       6  Si
   -1.53038332   -0.70765692    0.00000000   3       7  Si
   -3.14415959   -0.09186471    0.00000000   2       8  N
   -3.40268075    0.95848335    0.00000000   1       9  H
   -3.95073599   -0.76720972    0.00000000   1      10  H
   -0.17836637    0.41349951    0.00000000   2      11  N
    1.49520211   -0.04739960    0.00000000   3      12  Si
    2.45603905    1.10727302    0.00000000   1      13  H
    2.30451743   -1.58574382    0.00000000   2      14  N
    1.10725559   -2.84610319    0.00000000   3      15  Si
    0.53320610    7.81244228    0.00000000   1      16  H
   -0.27550458    7.12023640    0.00000000   2      17  N
   -1.93209442    7.83335650    0.00000000   3      18  Si
   -1.83522925    9.34408171    0.00000000   1      19  H
   -3.65825077    6.49030837    0.00000000   3      20  Si
   -6.01270502    6.48232144    0.00000000   3      21  Si
   -6.57512314    7.21681109   -1.20183078   1      22  H
   -6.31251877    5.00323031   -0.08618332   1      23  H
   -6.57523560    7.04715390    1.28814761   1      24  H
   -2.72886013    4.41973714    0.00000000   3      25  Si
   -3.67832849    3.13120101    0.00000000   4      26  O
   -0.93791526    4.24600167    0.00000000   2      27  N
   -0.60692390    3.21364469    0.00000000   1      28  H
    0.37054296    5.44054809    0.00000000   3      29  Si
    1.93647989    5.17330124    0.00000000   4      30  O

outcell: Unit cell vectors (Ang):
       30.000000    0.000000    0.000000
        0.000000   45.000000    0.000000
        0.000000    0.000000   10.000000

outcell: Cell vector modules (Ang)   :   30.000000   45.000000   10.000000
outcell: Cell angles (23,13,12) (deg):     90.0000     90.0000     90.0000
outcell: Cell volume (Ang**3)        :  13500.0000
<dSpData1D:S at geom step 1
  <sparsity:sparsity for geom step 1
    nrows_g=302 nrows=48 sparsity=.0934 nnzs=8523, refcount: 8>
  <dData1D:(new from dSpData1D) n=8523, refcount: 1>
refcount: 1>
new_DM -- step:     1
Initializing Density Matrix...

Attempting to read DM from file... Failed...
DM filled with atomic data:
<dSpData2D:DM initialized from atoms
  <sparsity:sparsity for geom step 1
    nrows_g=302 nrows=48 sparsity=.0934 nnzs=8523, refcount: 9>
  <dData2D:DM n=8523 m=8, refcount: 1>
refcount: 1>
     spin moment: S , {S} =   56.00000   0.00000   0.00000  56.00000
No. of atoms with KB's overlaping orbs in proc 0. Max # of overlaps:      28     172

Initializing spin-orbit part of the Hamiltonian
  Adding spin-orbit effects for H 
  Adding spin-orbit effects for N 
  Adding spin-orbit effects for Si
  Adding spin-orbit effects for O 


New grid distribution:   1
           1       1:  180    1:  125    1:   15
           2       1:  180    1:  125   16:   30
           3       1:  180    1:  125   31:   45
           4       1:  180    1:  125   46:   60
           5       1:  180  126:  250    1:   15
           6       1:  180  126:  250   16:   30
           7       1:  180  126:  250   31:   45
           8       1:  180  126:  250   46:   60

InitMesh: MESH =   360 x   500 x   120 =    21600000
InitMesh: (bp) =   180 x   250 x    60 =     2700000
InitMesh: Mesh cutoff (required, used) =   340.000   341.206 Ry
ExtMesh (bp) on 0 =   288 x   225 x   123 =     7970400
New grid distribution:   2
           1     154:  180   43:  229    1:   60
           2       1:  159    1:   25    1:   60
           3       1:  159   26:   42    1:   60
           4     160:  180    1:   23    1:   60
           5       1:  153   43:  231    1:   60
           6       1:  153  232:  250    1:   60
           7     154:  180  230:  250    1:   60
           8     160:  180   24:   42    1:   60
New grid distribution:   3
           1     147:  180   50:  220    1:   60
           2       1:  141    1:   27    1:   60
           3       1:  141   28:   49    1:   60
           4     142:  180    1:   26    1:   60
           5       1:  146   50:  223    1:   60
           6       1:  146  224:  250    1:   60
           7     147:  180  221:  250    1:   60
           8     142:  180   27:   49    1:   60
Setting up quadratic distribution...
ExtMesh (bp) on 0 =   135 x   287 x   168 =     6509160
PhiOnMesh: Number of (b)points on node 0 =               302940
PhiOnMesh: nlist on node 0 =              1580714

stepf: Fermi-Dirac step function

siesta: Program's energy decomposition (eV):
siesta: Ebs     =      -613.547402
siesta: Eions   =      3553.971015
siesta: Ena     =       374.906038
siesta: Ekin    =      3167.126457
siesta: Enl     =     -2981.171954
siesta: Eso     =        -0.003902
siesta: Edftu   =         0.000000
siesta: DEna    =       129.622332
siesta: DUscf   =        74.036905
siesta: DUext   =         0.000000
siesta: Exc     =     -1167.803210
siesta: eta*DQ  =         0.000000
siesta: Emadel  =         0.000000
siesta: Emeta   =         0.000000
siesta: Emolmec =         0.000000
siesta: Ekinion =         0.000000
siesta: Eharris =     -3888.789483
siesta: Etot    =     -3957.258348
siesta: FreeEng =     -3957.261686

        iscf     Eharris(eV)        E_KS(eV)     FreeEng(eV)     dDmax    Ef(eV) dHmax(eV)
   scf:    1    -3888.789483    -3957.258348    -3957.261686  0.969511 -4.936282 20.936591
     spin moment: S , {S} =    2.02380  -0.00000  -0.00000   2.02380
timer: Routine,Calls,Time,% = IterSCF        1      11.332  33.20
   scf:    2    -3998.124087    -3990.053554    -3990.053559  0.463630 -4.225497 10.739359
     spin moment: S , {S} =    2.00010   0.00000  -0.00000   2.00010
   scf:    3    -3966.247619    -3988.234916    -3988.279188  0.426585 -4.115166 11.177389
     spin moment: S , {S} =    1.66102  -0.00000  -0.00000   1.66102
   scf:    4    -4002.571787    -3997.769620    -3997.769623  0.189056 -3.842500  4.563129
     spin moment: S , {S} =    0.00011  -0.00000   0.00000   0.00011
   scf:    5    -3999.119730    -3998.509189    -3998.509189  0.036276 -3.722385  2.738739
     spin moment: S , {S} =    0.00006  -0.00000   0.00000   0.00006
   scf:    6    -3999.308721    -3998.905568    -3998.905568  0.028005 -3.698980  1.447021
     spin moment: S , {S} =    0.00003  -0.00000   0.00000   0.00003
   scf:    7    -3999.285589    -3999.090234    -3999.090234  0.022547 -3.756625  0.756592
     spin moment: S , {S} =    0.00001  -0.00000   0.00000   0.00001
   scf:    8    -3999.213330    -3999.149892    -3999.149893  0.011780 -3.794591  0.478828
     spin moment: S , {S} =    0.00000  -0.00000   0.00000   0.00000
   scf:    9    -3999.197638    -3999.172830    -3999.172830  0.006930 -3.809618  0.360483
     spin moment: S , {S} =    0.00000  -0.00000   0.00000   0.00000
   scf:   10    -3999.229774    -3999.195115    -3999.195144  0.019773 -3.835737  0.150898
     spin moment: S , {S} =    0.00007  -0.00000  -0.00000  -0.00007
   scf:   11    -3999.197939    -3999.196588    -3999.196619  0.003752 -3.825645  0.045788
     spin moment: S , {S} =    0.00001  -0.00000  -0.00000  -0.00001
   scf:   12    -3999.197269    -3999.196936    -3999.196971  0.001436 -3.822884  0.026711
     spin moment: S , {S} =    0.00000  -0.00000  -0.00000   0.00000
   scf:   13    -3999.197363    -3999.197146    -3999.197182  0.001282 -3.820775  0.018999
     spin moment: S , {S} =    0.00000  -0.00000  -0.00000   0.00000
   scf:   14    -3999.197396    -3999.197265    -3999.197301  0.001176 -3.819902  0.014736
     spin moment: S , {S} =    0.00000  -0.00000  -0.00000   0.00000
   scf:   15    -3999.197468    -3999.197357    -3999.197394  0.001378 -3.819422  0.011298
     spin moment: S , {S} =    0.00000  -0.00000  -0.00000  -0.00000
   scf:   16    -3999.197479    -3999.197410    -3999.197447  0.001286 -3.819295  0.006540
     spin moment: S , {S} =    0.00000  -0.00000  -0.00000  -0.00000
   scf:   17    -3999.197445    -3999.197425    -3999.197462  0.000673 -3.819411  0.004831
     spin moment: S , {S} =    0.00000  -0.00000  -0.00000  -0.00000
   scf:   18    -3999.197443    -3999.197432    -3999.197469  0.000598 -3.819528  0.002047
     spin moment: S , {S} =    0.00000  -0.00000  -0.00000  -0.00000
   scf:   19    -3999.197436    -3999.197434    -3999.197471  0.000281 -3.819538  0.000945
     spin moment: S , {S} =    0.00000   0.00000  -0.00000  -0.00000
   scf:   20    -3999.197434    -3999.197434    -3999.197471  0.000074 -3.819550  0.000611
     spin moment: S , {S} =    0.00000   0.00000  -0.00000  -0.00000
   scf:   21    -3999.197435    -3999.197434    -3999.197471  0.000063 -3.819544  0.000324
     spin moment: S , {S} =    0.00000   0.00000  -0.00000  -0.00000
   scf:   22    -3999.197434    -3999.197434    -3999.197471  0.000053 -3.819549  0.000145
     spin moment: S , {S} =    0.00000   0.00000  -0.00000  -0.00000
   scf:   23    -3999.197434    -3999.197434    -3999.197471  0.000013 -3.819552  0.000104
     spin moment: S , {S} =    0.00000  -0.00000   0.00000  -0.00000
   scf:   24    -3999.197434    -3999.197434    -3999.197471  0.000005 -3.819552  0.000079
     spin moment: S , {S} =    0.00000  -0.00000   0.00000  -0.00000
mix: Pulay -- resetting history
   scf:   25    -3999.197434    -3999.197434    -3999.197471  0.000006 -3.819551  0.000050
     spin moment: S , {S} =    0.00000  -0.00000   0.00000  -0.00000
   scf:   26    -3999.197434    -3999.197434    -3999.197471  0.000004 -3.819550  0.000029
     spin moment: S , {S} =    0.00000  -0.00000   0.00000  -0.00000
   scf:   27    -3999.197434    -3999.197434    -3999.197471  0.000004 -3.819549  0.000012
     spin moment: S , {S} =    0.00000  -0.00000   0.00000   0.00000
   scf:   28    -3999.197434    -3999.197434    -3999.197471  0.000001 -3.819550  0.000005
     spin moment: S , {S} =    0.00000  -0.00000   0.00000   0.00000
   scf:   29    -3999.197434    -3999.197434    -3999.197471  0.000000 -3.819550  0.000004
     spin moment: S , {S} =    0.00000  -0.00000   0.00000   0.00000
   scf:   30    -3999.197434    -3999.197434    -3999.197471  0.000000 -3.819550  0.000002
     spin moment: S , {S} =    0.00000  -0.00000   0.00000   0.00000
   scf:   31    -3999.197434    -3999.197434    -3999.197471  0.000000 -3.819550  0.000001
     spin moment: S , {S} =    0.00000  -0.00000   0.00000   0.00000
   scf:   32    -3999.197434    -3999.197434    -3999.197471  0.000000 -3.819550  0.000001
     spin moment: S , {S} =    0.00000  -0.00000   0.00000   0.00000

SCF Convergence by DM+H criterion
max |DM_out - DM_in|         :     0.0000001232
max |H_out - H_in|      (eV) :     0.0000009210
SCF cycle converged after 32 iterations

Using DM_out to compute the final energy and forces
No. of atoms with KB's overlaping orbs in proc 0. Max # of overlaps:      28     172

siesta: E_KS(eV) =            -3999.1974

siesta: E_KS - E_eggbox =     -3999.1974
     spin moment: S , {S} =    0.00000  -0.00000   0.00000   0.00000

siesta: Atomic forces (eV/Ang):
     1    0.142303   -0.033369   -0.000000
     2   -0.020228    0.034313   -0.000001
     3   -0.018740   -0.016211    0.000000
     4    0.067160   -0.134018    0.000000
     5    0.043975    0.014842   -0.000000
     6   -0.101421    0.010737   -0.000001
     7    0.556757    0.002896   -0.000006
     8   -0.414885    1.129948    0.000020
     9    0.084356   -0.483532   -0.000041
    10   -0.070754    0.077807    0.000001
    11   -0.090920   -0.127906    0.000005
    12   -0.145745    0.018149    0.000000
    13   -0.127061   -0.038250    0.000000
    14    0.011374   -0.051390   -0.000001
    15    0.057333    0.045170    0.000003
    16   -0.115254   -0.021345   -0.000950
    17   -0.005666   -0.017634   -0.000795
    18   -0.048457    0.015335    0.005341
    19    0.061064   -0.002251   -0.001497
    20    0.053011    0.039237   -0.001181
    21    0.055085   -0.007877   -0.006490
    22    0.051369   -0.034072    0.131568
    23   -0.003789    0.084021   -0.012954
    24    0.049700    0.014683   -0.096869
    25   -0.304475   -0.273379    0.001016
    26    1.930873    2.864669    0.000449
    27    0.169255   -0.306783   -0.000550
    28   -0.070159    0.455962   -0.000086
    29    0.111114    0.059213   -0.000189
    30   -3.473373   -0.488886    0.000232
----------------------------------------
   Tot   -1.566198    2.830080    0.017023
----------------------------------------
   Max    3.473373
   Res    0.547383    sqrt( Sum f_i^2 / 3N )
----------------------------------------
   Max    3.473373    constrained

Stress tensor Voigt[x,y,z,yz,xz,xy] (kbar):        0.12        0.40       -0.01       -0.01        0.00        0.08
(Free)E + p*V (eV/cell)    -4000.6297
Target enthalpy (eV/cell)    -3999.1975

siesta: Stress tensor (static) (eV/Ang**3):
         0.000076    0.000052    0.000000
         0.000052    0.000248   -0.000004
         0.000000   -0.000004   -0.000006

siesta: Pressure (static):         -0.16998210  kBar

siesta: Stress tensor (total) (eV/Ang**3):
         0.000076    0.000052    0.000000
         0.000052    0.000248   -0.000004
         0.000000   -0.000004   -0.000006

siesta: Pressure (total):         -0.16998210  kBar

siesta: Temp_ion =       0.000 K

siesta: Eigenvalues (eV):
ik =     1
  -22.8151  -22.8151  -22.5793  -22.5793  -21.7315  -21.7315  -21.2191  -21.2191  -20.9124  -20.9124
  -20.5023  -20.5023  -19.3286  -19.3286  -19.1302  -19.1302  -18.5618  -18.5618  -15.0885  -15.0885
  -14.1637  -14.1637  -13.5317  -13.5317  -13.5147  -13.5147  -13.1108  -13.1108  -12.7730  -12.7730
  -12.3543  -12.3543  -11.9199  -11.9199  -11.8345  -11.8345  -11.4438  -11.4438  -11.3768  -11.3768
  -10.7675  -10.7675  -10.6358  -10.6358  -10.0902  -10.0902   -9.6556   -9.6556   -9.3827   -9.3827
   -9.2066   -9.2066   -9.0324   -9.0324   -9.0095   -9.0095   -8.7028   -8.7028   -8.6220   -8.6220
   -8.4216   -8.4216   -8.1500   -8.1500   -8.0285   -8.0285   -8.0200   -8.0200   -7.9596   -7.9596
   -7.7706   -7.7706   -7.3201   -7.3201   -7.2453   -7.2453   -7.2300   -7.2300   -6.8435   -6.8435
   -6.7956   -6.7956   -6.6528   -6.6528   -6.5165   -6.5165   -6.2591   -6.2591   -6.1516   -6.1516
   -5.7773   -5.7773   -5.6962   -5.6962   -5.4822   -5.4822   -4.0878   -4.0878   -3.5513   -3.5513
   -2.7527   -2.7527   -2.2691   -2.2691   -2.1689   -2.1689   -2.0558   -2.0558   -2.0442   -2.0442
   -1.8549   -1.8549   -1.6583   -1.6583   -1.6335   -1.6335   -1.4648   -1.4648   -1.2941   -1.2941
   -1.1555   -1.1555   -0.3748   -0.3748   -0.2508   -0.2508   -0.1983   -0.1983   -0.1094   -0.1094
   -0.0561   -0.0561   -0.0089   -0.0089    0.2079    0.2079    0.6325    0.6325    0.6614    0.6614
    0.6909    0.6909    0.9000    0.9000    1.3343    1.3343    1.3908    1.3908    1.4089    1.4089
    1.5196    1.5196    1.6750    1.6750    1.8121    1.8121    2.2130    2.2130    2.3343    2.3343
    2.5078    2.5078    2.7405    2.7405    2.9623    2.9623    2.9750    2.9750    3.1366    3.1366
    3.1664    3.1664    3.1887    3.1887    3.2083    3.2083    3.3227    3.3227    3.6676    3.6676
    3.9291    3.9291    4.0895    4.0895    4.2550    4.2550    4.3154    4.3154    4.4268    4.4268
    4.4614    4.4614    4.7205    4.7205    4.8711    4.8711    5.0590    5.0590    5.1850    5.1850
    5.2042    5.2042    5.4879    5.4879    5.6639    5.6639    5.6706    5.6706    5.8967    5.8967
    5.9742    5.9742    6.1613    6.1613    6.2841    6.2841    6.4318    6.4318    6.4554    6.4554
    6.6696    6.6696    6.7937    6.7937    6.9656    6.9656    7.1416    7.1416    7.3563    7.3563
    7.4828    7.4828    7.6262    7.6262    7.8162    7.8162    7.8200    7.8200    8.0811    8.0811
    8.2800    8.2800    8.3945    8.3945    8.5056    8.5056    8.7202    8.7202    8.7741    8.7741
    8.9741    8.9741    9.1675    9.1675    9.2395    9.2395    9.4479    9.4479    9.6712    9.6712
    9.8110    9.8110    9.8552    9.8552    9.9514    9.9514   10.0837   10.0837   10.1835   10.1835
   10.6510   10.6510   10.7951   10.7951   10.9326   10.9326   11.0467   11.0467   11.2947   11.2947
   11.3404   11.3404   11.5865   11.5865   11.7934   11.7934   11.9127   11.9127   11.9928   11.9928
   12.2150   12.2150   12.3688   12.3688   12.5263   12.5263   12.6558   12.6558   12.8066   12.8066
   12.9176   12.9176   13.0352   13.0352   13.4202   13.4202   13.6429   13.6429   13.7002   13.7002
   13.8616   13.8616   14.0690   14.0690   14.5430   14.5430   14.9949   14.9949   15.0367   15.0367
   15.1420   15.1420   15.1654   15.1654   15.4292   15.4292   16.0535   16.0535   16.4991   16.4991
   16.9386   16.9386   17.0373   17.0373   17.1650   17.1650   17.2714   17.2714   17.7637   17.7637
   18.1995   18.1995   18.5534   18.5534   18.7583   18.7583   18.8230   18.8230   18.9260   18.9260
   19.0225   19.0225   19.5043   19.5043   19.6643   19.6643   20.0202   20.0202   20.7859   20.7859
   20.8646   20.8646   21.5433   21.5433   21.6773   21.6773   22.0670   22.0670   22.3753   22.3753
   22.4559   22.4559   23.1856   23.1856   23.2541   23.2541   23.3716   23.3716   24.2908   24.2908
   24.6948   24.6948   24.9196   24.9196   25.1264   25.1264   25.8698   25.8698   26.1243   26.1243
   26.5948   26.5948   26.7189   26.7189   26.8481   26.8481   27.7678   27.7678   28.0232   28.0232
   28.6359   28.6359   29.1666   29.1666   29.6036   29.6036   30.8126   30.8126   30.9572   30.9572
   30.9688   30.9688   31.3018   31.3018   31.4439   31.4439   31.4791   31.4791   31.9359   31.9359
   31.9881   31.9881   32.3633   32.3633   33.0054   33.0054   33.5051   33.5051   33.9925   33.9925
   34.1588   34.1588   34.4857   34.4857   34.8076   34.8076   35.3910   35.3910   36.1609   36.1609
   36.2042   36.2042   36.7765   36.7765   37.3136   37.3136   37.7801   37.7801   38.1697   38.1697
   38.4190   38.4190   38.9343   38.9343   39.0833   39.0833   39.4905   39.4905   40.4020   40.4020
   40.5534   40.5534   40.7263   40.7263   41.2071   41.2071   41.5686   41.5686   41.9266   41.9266
   42.6241   42.6241   43.1215   43.1215   43.3367   43.3367   43.8055   43.8055   44.0743   44.0743
   44.8840   44.8840   45.3311   45.3311   45.3805   45.3805   45.8449   45.8449   46.0808   46.0808
   46.5596   46.5596   46.8129   46.8129   47.2846   47.2846   47.9032   47.9032   48.2342   48.2342
   48.5217   48.5217   48.8450   48.8450   49.3418   49.3418   49.8558   49.8558   50.1308   50.1308
   50.2897   50.2897   50.6157   50.6157   50.6810   50.6810   51.7884   51.7884   52.0142   52.0142
   52.3706   52.3706   54.0642   54.0642   54.1842   54.1842   54.8757   54.8757   54.8869   54.8869
   55.9229   55.9229   56.2954   56.2954   56.5497   56.5497   56.7951   56.7951   57.0021   57.0021
   58.0938   58.0938   59.0861   59.0861   59.3505   59.3505   61.1473   61.1473   61.2952   61.2952
   61.5540   61.5540   62.9492   62.9492   63.5078   63.5078   64.4351   64.4351   64.6544   64.6544
   65.8302   65.8302   66.4465   66.4465   67.3625   67.3625   67.9488   67.9488   68.8658   68.8658
   71.0752   71.0752   71.8758   71.8758   72.3505   72.3505   81.1166   81.1166   88.7891   88.7891
   93.2293   93.2293   93.8268   93.8268   95.6545   95.6545   97.1759   97.1759  100.3413  100.3413
  102.3221  102.3221  102.8202  102.8202  117.2601  117.2601  120.3689  120.3689  123.9763  123.9763
  134.8315  134.8315  143.6260  143.6260
siesta: Fermi energy =      -3.819550 eV

siesta: Program's energy decomposition (eV):
siesta: Ebs     =     -1106.810830
siesta: Eions   =      3553.971015
siesta: Ena     =       374.906038
siesta: Ekin    =      2743.416618
siesta: Enl     =     -2523.373727
siesta: Eso     =        -0.004679
siesta: Edftu   =         0.000000
siesta: DEna    =        37.146723
siesta: DUscf   =        13.715242
siesta: DUext   =         0.000000
siesta: Exc     =     -1091.032634
siesta: eta*DQ  =         0.000000
siesta: Emadel  =         0.000000
siesta: Emeta   =         0.000000
siesta: Emolmec =         0.000000
siesta: Ekinion =         0.000000
siesta: Eharris =     -3999.197434
siesta: Etot    =     -3999.197434
siesta: FreeEng =     -3999.197471

siesta: Final energy (eV):
siesta:  Band Struct. =   -1106.810830
siesta:       Kinetic =    2743.416618
siesta:       Hartree =   14336.018510
siesta:       Edftu   =       0.000000
siesta:       Eso     =      -0.004679
siesta:    Ext. field =       0.000000
siesta:   Exch.-corr. =   -1091.032634
siesta:  Ion-electron =  -31106.296059
siesta:       Ion-ion =   11118.700810
siesta:       Ekinion =       0.000000
siesta:         Total =   -3999.197434
siesta:         Fermi =      -3.819550

siesta: Atomic forces (eV/Ang):
siesta:      1    0.142303   -0.033369   -0.000000
siesta:      2   -0.020228    0.034313   -0.000001
siesta:      3   -0.018740   -0.016211    0.000000
siesta:      4    0.067160   -0.134018    0.000000
siesta:      5    0.043975    0.014842   -0.000000
siesta:      6   -0.101421    0.010737   -0.000001
siesta:      7    0.556757    0.002896   -0.000006
siesta:      8   -0.414885    1.129948    0.000020
siesta:      9    0.084356   -0.483532   -0.000041
siesta:     10   -0.070754    0.077807    0.000001
siesta:     11   -0.090920   -0.127906    0.000005
siesta:     12   -0.145745    0.018149    0.000000
siesta:     13   -0.127061   -0.038250    0.000000
siesta:     14    0.011374   -0.051390   -0.000001
siesta:     15    0.057333    0.045170    0.000003
siesta:     16   -0.115254   -0.021345   -0.000950
siesta:     17   -0.005666   -0.017634   -0.000795
siesta:     18   -0.048457    0.015335    0.005341
siesta:     19    0.061064   -0.002251   -0.001497
siesta:     20    0.053011    0.039237   -0.001181
siesta:     21    0.055085   -0.007877   -0.006490
siesta:     22    0.051369   -0.034072    0.131568
siesta:     23   -0.003789    0.084021   -0.012954
siesta:     24    0.049700    0.014683   -0.096869
siesta:     25   -0.304475   -0.273379    0.001016
siesta:     26    1.930873    2.864669    0.000449
siesta:     27    0.169255   -0.306783   -0.000550
siesta:     28   -0.070159    0.455962   -0.000086
siesta:     29    0.111114    0.059213   -0.000189
siesta:     30   -3.473373   -0.488886    0.000232
siesta: ----------------------------------------
siesta:    Tot   -1.566198    2.830080    0.017023

siesta: Stress tensor (static) (eV/Ang**3):
siesta:     0.000076    0.000052    0.000000
siesta:     0.000052    0.000248   -0.000004
siesta:     0.000000   -0.000004   -0.000006

siesta: Cell volume =      13500.000000 Ang**3

siesta: Pressure (static):
siesta:                Solid            Molecule  Units
siesta:          -0.00000116          0.00000305  Ry/Bohr**3
siesta:          -0.00010609          0.00028014  eV/Ang**3
siesta:          -0.16998210          0.44883944  kBar
(Free)E+ p_basis*V_orbitals  =       -3978.069386
(Free)Eharris+ p_basis*V_orbitals  =       -3978.069386
     spin moment: S , {S} =    0.00000  -0.00000   0.00000   0.00000

siesta: Electric dipole (a.u.)  =   -1.175684    1.827669   -0.001768
siesta: Electric dipole (Debye) =   -2.988293    4.645474   -0.004495

cite: Please see "AT.bib" for an exhaustive BiBTeX file.
cite: Please clearly indicate Siesta version in published work: v4.1.5-1-g384057250
cite: This calculation has made use of the following articles
cite: which are encouraged to be cited in a published work.
        Primary SIESTA paper
          DOI: www.doi.org/10.1088/0953-8984/14/11/302
        Spin-orbit coupling (on-site approximation)
          DOI: www.doi.org/10.1088/0953-8984/19/19/489001


WARNING: alloc-realloc-dealloc name mismatch
         Name: atomlist isa
         Size:              -120. Bytes
         Node:     0
         Subsequent mismatches will not be reported
>> End of run:   1-FEB-2024  18:31:56
Job completed
