Siesta Version  : v4.1.5-1-g384057250
Architecture    : gcc
Compiler version: GNU Fortran (Debian 12.2.0-14) 12.2.0
Compiler flags  : mpifort -O2 -fPIC -ftree-vectorize -fallow-argument-mismatch
PP flags        : -DFC_HAVE_ABORT -DMPI -DSIESTA__FLOOK -DSIESTA__METIS -DSIESTA__MUMPS -DCDF -DNCDF -DNCDF_4 -DNCDF_PARALLEL -DSIESTA__MRRR -DSIESTA__ELPA
Libraries       : libncdf.a libfdict.a  -lflookall -ldl -lnetcdff -lnetcdf -lz -lscalapack-openmpi -lopenblas -lmetis -lzmumps -lcmumps -ldmumps -lmumps_common -lpord -lsmumps -lesmumps -lscotch -lscotcherr -fopenmp -lelpa
PARALLEL version
NetCDF support
NetCDF-4 support
NetCDF-4 MPI-IO support
METIS ordering support
Lua support

* Running on 32 nodes in parallel
>> Start of run:  16-OCT-2023  20:21:50

                           ***********************       
                           *  WELCOME TO SIESTA  *       
                           ***********************       

reinit: Reading from standard input
reinit: Dumped input in INPUT_TMP.25006
************************** Dump of input data file ****************************
# mpirun -np 4 siesta-4.1.5 < AT.fdf > AT.out &
SystemLabel      AT
NumberOfAtoms    30
NumberOfSpecies  4
%block ChemicalSpeciesLabel
    1    1  H
    2    7  N
    3   14  Si
    4    8  O
%endblock ChemicalSpeciesLabel
############################################
# This overrides Defaults.fdf configuration
############################################
MD.TypeOfRun                Verlet # CG, Verlet
MD.Steps                    0
MaxSCFIterations            300
AtomicCoordinatesFormat NotScaledCartesianAng
%block AtomicCoordinatesAndAtomicSpecies
    2.28494382 -5.19529124 0.0  1  1  H
    1.37433094 -4.6647107 0.0  2  2  N
    -0.21830245 -5.49458215 0.0  3  3  Si
    -0.17484108 -6.98516892 0.0  1  4  H
    -1.66171682 -4.58600741 0.0  2  5  N
    -1.09026419 -2.87456374 0.0  3  6  Si
    -1.53038332 -0.70765692 0.0  3  7  Si
    -3.14415959 -0.09186471 0.0  2  8  N
    -3.40268075 0.95848335 0.0  1  9  H
    -3.95073599 -0.76720972 0.0  1  10  H
    -0.17836637 0.41349951 0.0  2  11  N
    1.49520211 -0.0473996 0.0  3  12  Si
    2.45603905 1.10727302 0.0  1  13  H
    2.30451743 -1.58574382 0.0  2  14  N
    1.10725559 -2.84610319 0.0  3  15  Si
    0.5427658904461208 7.74387472355084 0.0  1  16  H
    -0.2659447895538792 7.051668843550839 0.0  2  17  N
    -1.9225346295538792 7.7647889435508395 0.0  3  18  Si
    -1.8256694595538792 9.275514153550839 0.0  1  19  H
    -3.648690979553879 6.421740813550839 0.0  3  20  Si
    -6.003145229553879 6.413753883550839 0.0  3  21  Si
    -6.565563349553879 7.148243533550839 -1.20183078  1  22  H
    -6.302958979553879 4.934662753550839 -0.08618332  1  23  H
    -6.565675809553879 6.978586343550839 1.28814761  1  24  H
    -2.7193003395538793 4.351169583550839 0.0  3  25  Si
    -3.6687686995538793 3.062633453550839 0.0  4  26  O
    -0.9283554695538792 4.17743411355084 0.0  2  27  N
    -0.5973641095538791 3.1450771335508394 0.0  1  28  H
    0.3801027504461208 5.371980533550839 0.0  3  29  Si
    1.9460396804461206 5.1047336835508395 0.0  4  30  O
%endblock AtomicCoordinatesAndAtomicSpecies
%include ../../../../Defaults.fdf
************************** End of input data file *****************************

reinit: -----------------------------------------------------------------------
reinit: System Name: 
reinit: -----------------------------------------------------------------------
reinit: System Label: AT
reinit: -----------------------------------------------------------------------

initatom: Reading input for the pseudopotentials and atomic orbitals ----------
Species number:   1 Atomic number:    1 Label: H
Species number:   2 Atomic number:    7 Label: N
Species number:   3 Atomic number:   14 Label: Si
Species number:   4 Atomic number:    8 Label: O

Ground state valence configuration:   1s01
Reading pseudopotential information in formatted form from H.psf

Pseudopotential generated from a relativistic atomic calculation

Valence configuration for pseudopotential generation:
1s( 1.00) rc: 0.01
2p( 0.00) rc: 0.60
3d( 0.00) rc: 1.99
4f( 0.00) rc: 2.49
Ground state valence configuration:   2s02  2p03
Reading pseudopotential information in formatted form from N.psf

Pseudopotential generated from a relativistic atomic calculation

Valence configuration for pseudopotential generation:
2s( 2.00) rc: 0.94
2p( 3.00) rc: 0.59
3d( 0.00) rc: 3.46
4f( 0.00) rc: 2.47
Ground state valence configuration:   3s02  3p02
Reading pseudopotential information in formatted form from Si.psf

Pseudopotential generated from a relativistic atomic calculation

Valence configuration for pseudopotential generation:
3s( 2.00) rc: 1.67
3p( 2.00) rc: 2.04
3d( 0.00) rc: 2.89
4f( 0.00) rc: 2.49
Ground state valence configuration:   2s02  2p04
Reading pseudopotential information in formatted form from O.psf

Pseudopotential generated from a relativistic atomic calculation

Valence configuration for pseudopotential generation:
2s( 2.00) rc: 0.45
2p( 4.00) rc: 0.92
3d( 0.00) rc: 2.24
4f( 0.00) rc: 0.25
For H, standard SIESTA heuristics set lmxkb to 2
 (one more than the basis l, including polarization orbitals).
Use PS.lmax or PS.KBprojectors blocks to override.
For N, standard SIESTA heuristics set lmxkb to 3
 (one more than the basis l, including polarization orbitals).
Use PS.lmax or PS.KBprojectors blocks to override.
For Si, standard SIESTA heuristics set lmxkb to 3
 (one more than the basis l, including polarization orbitals).
Use PS.lmax or PS.KBprojectors blocks to override.
For O, standard SIESTA heuristics set lmxkb to 3
 (one more than the basis l, including polarization orbitals).
Use PS.lmax or PS.KBprojectors blocks to override.

<basis_specs>
===============================================================================
H                    Z=   1    Mass=  1.0100        Charge= 0.17977+309
Lmxo=0 Lmxkb= 2    BasisType=split      Semic=F
L=0  Nsemic=0  Cnfigmx=1
          i=1  nzeta=2  polorb=1  (1s)
            splnorm:   0.62000    
               vcte:    0.0000    
               rinn:    0.0000    
               qcoe:    0.0000    
               qyuk:    0.0000    
               qwid:   0.10000E-01
                rcs:    0.0000      0.0000    
            lambdas:    1.0000      1.0000    
-------------------------------------------------------------------------------
L=0  Nkbl=1  erefs: 0.17977+309
L=1  Nkbl=1  erefs: 0.17977+309
L=2  Nkbl=1  erefs: 0.17977+309
===============================================================================
</basis_specs>

atom: Called for H                     (Z =   1)

read_vps: Pseudopotential generation method:
read_vps: ATM4.2.7  Troullier-Martins                       
Valence charge for ps generation:    1.00000

xc_check: Exchange-correlation functional:
xc_check: GGA Perdew, Burke & Ernzerhof 1996
V l=0 = -2*Zval/r beyond r=  0.0098
V l=1 = -2*Zval/r beyond r=  0.5817
V l=2 = -2*Zval/r beyond r=  1.9372
All V_l potentials equal beyond r=  1.9372
This should be close to max(r_c) in ps generation
All pots = -2*Zval/r beyond r=  1.9372

VLOCAL1: 99.0% of the norm of Vloc inside     11.567 Ry
VLOCAL1: 99.9% of the norm of Vloc inside     26.362 Ry
atom: Maximum radius for 4*pi*r*r*local-pseudopot. charge    2.25106
atom: Maximum radius for r*vlocal+2*Zval:    1.91306
GHOST: No ghost state for L =  0
GHOST: No ghost state for L =  1
GHOST: No ghost state for L =  2

KBgen: Kleinman-Bylander projectors: 
   l= 0   rc=  2.036604   el= -0.477180   Ekb= -6.081590   kbcos= -0.277285
   l= 1   rc=  2.195416   el=  0.001076   Ekb= -0.926943   kbcos= -0.034643
   l= 2   rc=  2.251056   el=  0.002010   Ekb= -0.130941   kbcos= -0.009788

KBgen: Total number of Kleinman-Bylander projectors:    9
atom: -------------------------------------------------------------------------

atom: SANKEY-TYPE ORBITALS:
atom: Selected multiple-zeta basis: split     

SPLIT: Orbitals with angular momentum L= 0

SPLIT: Basis orbitals for state 1s

SPLIT: PAO cut-off radius determined from an
SPLIT: energy shift=  0.002000 Ry

   izeta = 1
                 lambda =    1.000000
                     rc =    6.518340
                 energy =   -0.475305
                kinetic =    0.912139
    potential(screened) =   -1.387444
       potential(ionic) =   -1.907295

   izeta = 2
                 rmatch =    2.141150
              splitnorm =    0.620000
                 energy =    0.566467
                kinetic =    3.772856
    potential(screened) =   -3.206389
       potential(ionic) =   -3.759093

POLgen: Perturbative polarization orbital with L=  1

POLgen: Polarization orbital for state 1s

   izeta = 1
                     rc =    6.518340
                 energy =    0.533861
                kinetic =    1.121086
    potential(screened) =   -0.587225
       potential(ionic) =   -1.053027
atom: Total number of Sankey-type orbitals:  5

atm_pop: Valence configuration (for local Pseudopot. screening):
 1s( 1.00)                                                            
Vna: chval, zval:    1.00000   1.00000

Vna:  Cut-off radius for the neutral-atom potential:   6.518340

atom: _________________________________________________________________________

<basis_specs>
===============================================================================
N                    Z=   7    Mass=  14.010        Charge= 0.17977+309
Lmxo=1 Lmxkb= 3    BasisType=split      Semic=F
L=0  Nsemic=0  Cnfigmx=2
          i=1  nzeta=2  polorb=0  (2s)
            splnorm:   0.28000    
               vcte:    0.0000    
               rinn:    0.0000    
               qcoe:    0.0000    
               qyuk:    0.0000    
               qwid:   0.10000E-01
                rcs:    0.0000      0.0000    
            lambdas:    1.0000      1.0000    
L=1  Nsemic=0  Cnfigmx=2
          i=1  nzeta=2  polorb=1  (2p)
            splnorm:   0.28000    
               vcte:    0.0000    
               rinn:    0.0000    
               qcoe:    0.0000    
               qyuk:    0.0000    
               qwid:   0.10000E-01
                rcs:    0.0000      0.0000    
            lambdas:    1.0000      1.0000    
-------------------------------------------------------------------------------
L=0  Nkbl=1  erefs: 0.17977+309
L=1  Nkbl=1  erefs: 0.17977+309
L=2  Nkbl=1  erefs: 0.17977+309
L=3  Nkbl=1  erefs: 0.17977+309
===============================================================================
</basis_specs>

atom: Called for N                     (Z =   7)

read_vps: Pseudopotential generation method:
read_vps: ATM4.2.7  Troullier-Martins                       
Valence charge for ps generation:    5.00000

xc_check: Exchange-correlation functional:
xc_check: GGA Perdew, Burke & Ernzerhof 1996
V l=0 = -2*Zval/r beyond r=  1.2889
V l=1 = -2*Zval/r beyond r=  1.2889
V l=2 = -2*Zval/r beyond r=  3.4178
V l=3 = -2*Zval/r beyond r=  2.4084
All V_l potentials equal beyond r=  3.3753
This should be close to max(r_c) in ps generation
All pots = -2*Zval/r beyond r=  3.4178

VLOCAL1: 99.0% of the norm of Vloc inside      3.810 Ry
VLOCAL1: 99.9% of the norm of Vloc inside      8.683 Ry
atom: Maximum radius for 4*pi*r*r*local-pseudopot. charge    4.02088
atom: Maximum radius for r*vlocal+2*Zval:    3.54838
GHOST: No ghost state for L =  0
GHOST: No ghost state for L =  1
GHOST: No ghost state for L =  2
GHOST: No ghost state for L =  3

KBgen: Kleinman-Bylander projectors: 
   l= 0   rc=  3.417763   el= -1.365098   Ekb= -4.433130   kbcos= -0.707855
   l= 1   rc=  3.375302   el= -0.521201   Ekb=-13.264039   kbcos= -0.535594
   l= 2   rc=  3.872880   el=  0.001991   Ekb= -0.641094   kbcos= -0.062456
   l= 3   rc=  3.970931   el=  0.003093   Ekb= -0.474517   kbcos= -0.018236

KBgen: Total number of Kleinman-Bylander projectors:   16
atom: -------------------------------------------------------------------------

atom: SANKEY-TYPE ORBITALS:
atom: Selected multiple-zeta basis: split     

SPLIT: Orbitals with angular momentum L= 0

SPLIT: Basis orbitals for state 2s

SPLIT: PAO cut-off radius determined from an
SPLIT: energy shift=  0.002000 Ry

   izeta = 1
                 lambda =    1.000000
                     rc =    4.730425
                 energy =   -1.363399
                kinetic =    1.245246
    potential(screened) =   -2.608645
       potential(ionic) =   -8.121105

   izeta = 2
                 rmatch =    2.531849
              splitnorm =    0.280000
                 energy =   -0.959908
                kinetic =    2.409435
    potential(screened) =   -3.369343
       potential(ionic) =   -9.427975

SPLIT: Orbitals with angular momentum L= 1

SPLIT: Basis orbitals for state 2p

SPLIT: PAO cut-off radius determined from an
SPLIT: energy shift=  0.002000 Ry

   izeta = 1
                 lambda =    1.000000
                     rc =    5.924108
                 energy =   -0.519262
                kinetic =    3.672940
    potential(screened) =   -4.192202
       potential(ionic) =   -9.518354

   izeta = 2
                 rmatch =    2.531849
              splitnorm =    0.280000
                 energy =   -0.104258
                kinetic =    6.807538
    potential(screened) =   -6.911796
       potential(ionic) =  -13.149920

POLgen: Perturbative polarization orbital with L=  2

POLgen: Polarization orbital for state 2p

   izeta = 1
                     rc =    5.924108
                 energy =    1.427508
                kinetic =    2.872379
    potential(screened) =   -1.444871
       potential(ionic) =   -5.563644
atom: Total number of Sankey-type orbitals: 13

atm_pop: Valence configuration (for local Pseudopot. screening):
 2s( 2.00)                                                            
 2p( 3.00)                                                            
Vna: chval, zval:    5.00000   5.00000

Vna:  Cut-off radius for the neutral-atom potential:   5.924108

atom: _________________________________________________________________________

<basis_specs>
===============================================================================
Si                   Z=  14    Mass=  28.090        Charge= 0.17977+309
Lmxo=1 Lmxkb= 3    BasisType=split      Semic=F
L=0  Nsemic=0  Cnfigmx=3
          i=1  nzeta=2  polorb=0  (3s)
            splnorm:   0.28000    
               vcte:    0.0000    
               rinn:    0.0000    
               qcoe:    0.0000    
               qyuk:    0.0000    
               qwid:   0.10000E-01
                rcs:    0.0000      0.0000    
            lambdas:    1.0000      1.0000    
L=1  Nsemic=0  Cnfigmx=3
          i=1  nzeta=2  polorb=1  (3p)
            splnorm:   0.28000    
               vcte:    0.0000    
               rinn:    0.0000    
               qcoe:    0.0000    
               qyuk:    0.0000    
               qwid:   0.10000E-01
                rcs:    0.0000      0.0000    
            lambdas:    1.0000      1.0000    
-------------------------------------------------------------------------------
L=0  Nkbl=1  erefs: 0.17977+309
L=1  Nkbl=1  erefs: 0.17977+309
L=2  Nkbl=1  erefs: 0.17977+309
L=3  Nkbl=1  erefs: 0.17977+309
===============================================================================
</basis_specs>

atom: Called for Si                    (Z =  14)

read_vps: Pseudopotential generation method:
read_vps: ATM4.2.7  Troullier-Martins                       
Valence charge for ps generation:    4.00000

xc_check: Exchange-correlation functional:
xc_check: GGA Perdew, Burke & Ernzerhof 1996
V l=0 = -2*Zval/r beyond r=  2.7826
V l=1 = -2*Zval/r beyond r=  2.7826
V l=2 = -2*Zval/r beyond r=  2.9253
V l=3 = -2*Zval/r beyond r=  2.7826
All V_l potentials equal beyond r=  2.8530
This should be close to max(r_c) in ps generation
All pots = -2*Zval/r beyond r=  2.9253

VLOCAL1: 99.0% of the norm of Vloc inside      5.333 Ry
VLOCAL1: 99.9% of the norm of Vloc inside     12.154 Ry
atom: Maximum radius for 4*pi*r*r*local-pseudopot. charge    3.39869
atom: Maximum radius for r*vlocal+2*Zval:    2.96205
GHOST: No ghost state for L =  0
GHOST: No ghost state for L =  1
GHOST: No ghost state for L =  2
GHOST: No ghost state for L =  3

KBgen: Kleinman-Bylander projectors: 
   l= 0   rc=  3.075247   el= -0.794092   Ekb=  5.879390   kbcos=  0.167461
   l= 1   rc=  3.153101   el= -0.300068   Ekb=  2.642817   kbcos=  0.058301
   l= 2   rc=  3.273594   el=  0.001958   Ekb= -1.185135   kbcos= -0.104411
   l= 3   rc=  3.232927   el=  0.003046   Ekb= -0.497174   kbcos= -0.015889

KBgen: Total number of Kleinman-Bylander projectors:   16
atom: -------------------------------------------------------------------------

atom: SANKEY-TYPE ORBITALS:
atom: Selected multiple-zeta basis: split     

SPLIT: Orbitals with angular momentum L= 0

SPLIT: Basis orbitals for state 3s

SPLIT: PAO cut-off radius determined from an
SPLIT: energy shift=  0.002000 Ry

   izeta = 1
                 lambda =    1.000000
                     rc =    6.429618
                 energy =   -0.792283
                kinetic =    0.525293
    potential(screened) =   -1.317576
       potential(ionic) =   -3.744923

   izeta = 2
                 rmatch =    3.998416
              splitnorm =    0.280000
                 energy =   -0.583081
                kinetic =    1.069570
    potential(screened) =   -1.652651
       potential(ionic) =   -4.235185

SPLIT: Orbitals with angular momentum L= 1

SPLIT: Basis orbitals for state 3p

SPLIT: PAO cut-off radius determined from an
SPLIT: energy shift=  0.002000 Ry

   izeta = 1
                 lambda =    1.000000
                     rc =    8.464845
                 energy =   -0.298236
                kinetic =    0.785360
    potential(screened) =   -1.083596
       potential(ionic) =   -3.273779

   izeta = 2
                 rmatch =    4.587816
              splitnorm =    0.280000
                 energy =   -0.131871
                kinetic =    1.403687
    potential(screened) =   -1.535557
       potential(ionic) =   -4.015310

POLgen: Perturbative polarization orbital with L=  2

POLgen: Polarization orbital for state 3p

   izeta = 1
                     rc =    8.464845
                 energy =    0.321949
                kinetic =    1.055677
    potential(screened) =   -0.733728
       potential(ionic) =   -2.672950
atom: Total number of Sankey-type orbitals: 13

atm_pop: Valence configuration (for local Pseudopot. screening):
 3s( 2.00)                                                            
 3p( 2.00)                                                            
Vna: chval, zval:    4.00000   4.00000

Vna:  Cut-off radius for the neutral-atom potential:   8.464845

atom: _________________________________________________________________________

<basis_specs>
===============================================================================
O                    Z=   8    Mass=  16.000        Charge= 0.17977+309
Lmxo=1 Lmxkb= 3    BasisType=split      Semic=F
L=0  Nsemic=0  Cnfigmx=2
          i=1  nzeta=2  polorb=0  (2s)
            splnorm:   0.28000    
               vcte:    0.0000    
               rinn:    0.0000    
               qcoe:    0.0000    
               qyuk:    0.0000    
               qwid:   0.10000E-01
                rcs:    0.0000      0.0000    
            lambdas:    1.0000      1.0000    
L=1  Nsemic=0  Cnfigmx=2
          i=1  nzeta=2  polorb=1  (2p)
            splnorm:   0.28000    
               vcte:    0.0000    
               rinn:    0.0000    
               qcoe:    0.0000    
               qyuk:    0.0000    
               qwid:   0.10000E-01
                rcs:    0.0000      0.0000    
            lambdas:    1.0000      1.0000    
-------------------------------------------------------------------------------
L=0  Nkbl=1  erefs: 0.17977+309
L=1  Nkbl=1  erefs: 0.17977+309
L=2  Nkbl=1  erefs: 0.17977+309
L=3  Nkbl=1  erefs: 0.17977+309
===============================================================================
</basis_specs>

atom: Called for O                     (Z =   8)

read_vps: Pseudopotential generation method:
read_vps: ATM4.2.7  Troullier-Martins                       
Valence charge for ps generation:    6.00000

xc_check: Exchange-correlation functional:
xc_check: GGA Perdew, Burke & Ernzerhof 1996
V l=0 = -2*Zval/r beyond r=  1.1000
V l=1 = -2*Zval/r beyond r=  1.1000
V l=2 = -2*Zval/r beyond r=  2.2154
V l=3 = -2*Zval/r beyond r=  1.1000
All V_l potentials equal beyond r=  2.2154
This should be close to max(r_c) in ps generation
All pots = -2*Zval/r beyond r=  2.2154

VLOCAL1: 99.0% of the norm of Vloc inside      8.845 Ry
VLOCAL1: 99.9% of the norm of Vloc inside     20.157 Ry
atom: Maximum radius for 4*pi*r*r*local-pseudopot. charge    2.67231
atom: Maximum radius for r*vlocal+2*Zval:    2.32897
GHOST: No ghost state for L =  0
GHOST: No ghost state for L =  1
GHOST: No ghost state for L =  2
GHOST: No ghost state for L =  3

KBgen: Kleinman-Bylander projectors: 
   l= 0   rc=  2.243238   el= -1.759686   Ekb=**********   kbcos= -0.171774
   l= 1   rc=  2.328968   el= -0.663873   Ekb=-14.506792   kbcos= -0.519897
   l= 2   rc=  2.573941   el=  0.002031   Ekb= -1.137373   kbcos= -0.019581
   l= 3   rc=  2.606321   el=  0.003153   Ekb= -1.013546   kbcos= -0.003122

KBgen: Total number of Kleinman-Bylander projectors:   16
atom: -------------------------------------------------------------------------

atom: SANKEY-TYPE ORBITALS:
atom: Selected multiple-zeta basis: split     

SPLIT: Orbitals with angular momentum L= 0

SPLIT: Basis orbitals for state 2s

SPLIT: PAO cut-off radius determined from an
SPLIT: energy shift=  0.002000 Ry

   izeta = 1
                 lambda =    1.000000
                     rc =    4.243912
                 energy =   -1.758270
                kinetic =    3.286084
    potential(screened) =   -5.044353
       potential(ionic) =  -12.921184

   izeta = 2
                 rmatch =    2.187845
              splitnorm =    0.280000
                 energy =   -0.885018
                kinetic =    8.134434
    potential(screened) =   -9.019452
       potential(ionic) =  -17.710645

SPLIT: Orbitals with angular momentum L= 1

SPLIT: Basis orbitals for state 2p

SPLIT: PAO cut-off radius determined from an
SPLIT: energy shift=  0.002000 Ry

   izeta = 1
                 lambda =    1.000000
                     rc =    5.314825
                 energy =   -0.661986
                kinetic =    4.917472
    potential(screened) =   -5.579458
       potential(ionic) =  -13.236259

   izeta = 2
                 rmatch =    2.160663
              splitnorm =    0.280000
                 energy =   -0.068760
                kinetic =    9.183374
    potential(screened) =   -9.252135
       potential(ionic) =  -18.274251

POLgen: Perturbative polarization orbital with L=  2

POLgen: Polarization orbital for state 2p

   izeta = 1
                     rc =    5.314825
                 energy =    1.970580
                kinetic =    3.886128
    potential(screened) =   -1.915547
       potential(ionic) =   -7.749584
atom: Total number of Sankey-type orbitals: 13

atm_pop: Valence configuration (for local Pseudopot. screening):
 2s( 2.00)                                                            
 2p( 4.00)                                                            
Vna: chval, zval:    6.00000   6.00000

Vna:  Cut-off radius for the neutral-atom potential:   5.314825

atom: _________________________________________________________________________

prinput: Basis input ----------------------------------------------------------

PAO.BasisType split     

%block ChemicalSpeciesLabel
    1    1 H                       # Species index, atomic number, species label
    2    7 N                       # Species index, atomic number, species label
    3   14 Si                      # Species index, atomic number, species label
    4    8 O                       # Species index, atomic number, species label
%endblock ChemicalSpeciesLabel

%block PAO.Basis                 # Define Basis set
H                     1                    # Species label, number of l-shells
 n=1   0   2 P   1                   # n, l, Nzeta, Polarization, NzetaPol
   6.518      2.141   
   1.000      1.000   
N                     2                    # Species label, number of l-shells
 n=2   0   2                         # n, l, Nzeta 
   4.730      2.532   
   1.000      1.000   
 n=2   1   2 P   1                   # n, l, Nzeta, Polarization, NzetaPol
   5.924      2.532   
   1.000      1.000   
Si                    2                    # Species label, number of l-shells
 n=3   0   2                         # n, l, Nzeta 
   6.430      3.998   
   1.000      1.000   
 n=3   1   2 P   1                   # n, l, Nzeta, Polarization, NzetaPol
   8.465      4.588   
   1.000      1.000   
O                     2                    # Species label, number of l-shells
 n=2   0   2                         # n, l, Nzeta 
   4.244      2.188   
   1.000      1.000   
 n=2   1   2 P   1                   # n, l, Nzeta, Polarization, NzetaPol
   5.315      2.161   
   1.000      1.000   
%endblock PAO.Basis

prinput: ----------------------------------------------------------------------

Dumping basis to NetCDF file H.ion.nc
Dumping basis to NetCDF file N.ion.nc
Dumping basis to NetCDF file Si.ion.nc
Dumping basis to NetCDF file O.ion.nc
coor:   Atomic-coordinates input format  =     Cartesian coordinates
coor:                                          (in Angstroms)

siesta: Atomic coordinates (Bohr) and species
siesta:      4.31792  -9.81768   0.00000  1        1
siesta:      2.59711  -8.81503   0.00000  2        2
siesta:     -0.41253 -10.38326   0.00000  3        3
siesta:     -0.33040 -13.20006   0.00000  1        4
siesta:     -3.14019  -8.66630   0.00000  2        5
siesta:     -2.06030  -5.43214   0.00000  3        6
siesta:     -2.89201  -1.33728   0.00000  3        7
siesta:     -5.94160  -0.17360   0.00000  2        8
siesta:     -6.43014   1.81127   0.00000  1        9
siesta:     -7.46581  -1.44982   0.00000  1       10
siesta:     -0.33706   0.78140   0.00000  2       11
siesta:      2.82552  -0.08957   0.00000  3       12
siesta:      4.64124   2.09244   0.00000  1       13
siesta:      4.35491  -2.99662   0.00000  2       14
siesta:      2.09241  -5.37836   0.00000  3       15
siesta:      1.02568  14.63381   0.00000  1       16
siesta:     -0.50256  13.32573   0.00000  2       17
siesta:     -3.63307  14.67333   0.00000  3       18
siesta:     -3.45002  17.52819   0.00000  1       19
siesta:     -6.89503  12.13534   0.00000  3       20
siesta:    -11.34430  12.12024   0.00000  3       21
siesta:    -12.40712  13.50823  -2.27113  1       22
siesta:    -11.91087   9.32516  -0.16286  1       23
siesta:    -12.40733  13.18762   2.43425  1       24
siesta:     -5.13873   8.22252   0.00000  3       25
siesta:     -6.93297   5.78754   0.00000  4       26
siesta:     -1.75434   7.89421   0.00000  2       27
siesta:     -1.12886   5.94334   0.00000  1       28
siesta:      0.71829  10.15158   0.00000  3       29
siesta:      3.67748   9.64655   0.00000  4       30

siesta: Automatic unit cell vectors (Ang):
siesta:   18.102865    0.000000    0.000000
siesta:    0.000000   25.475334    0.000000
siesta:    0.000000    0.000000   10.327559

siesta: System type = molecule  

initatomlists: Number of atoms, orbitals, and projectors:     30   302   403

siesta: ******************** Simulation parameters ****************************
siesta:
siesta: The following are some of the parameters of the simulation.
siesta: A complete list of the parameters used, including default values,
siesta: can be found in file out.fdf
siesta:
redata: Spin configuration                          = spin-orbit
redata: Number of spin components                   = 8
redata: Time-Reversal Symmetry                      = F
redata: Spin spiral                                 = F
############################################################
This spin-orbit implementation uses a local approximation.
From 4.2 and onwards the full non-local approximation is implemented
You are strongly advised to use >=4.2 versions!
############################################################
redata: Long output                                 =   F
redata: Number of Atomic Species                    =        4
redata: Charge density info will appear in .RHO file
redata: Write Mulliken Pop.                         = NO
redata: Matel table size (NRTAB)                    =     1024
redata: Mesh Cutoff                                 =   340.0000 Ry
redata: Net charge of the system                    =     0.0000 |e|
redata: Min. number of SCF Iter                     =        1
redata: Max. number of SCF Iter                     =      300
redata: SCF convergence failure will abort job
redata: SCF mix quantity                            = Hamiltonian
redata: Mix DM or H after convergence               =   F
redata: Recompute H after scf cycle                 =   F
redata: Mix DM in first SCF step                    =   T
redata: Write Pulay info on disk                    =   F
redata: New DM Occupancy tolerance                  = 0.000000000001
redata: No kicks to SCF
redata: DM Mixing Weight for Kicks                  =     0.5000
redata: Require Harris convergence for SCF          =   F
redata: Harris energy tolerance for SCF             =     0.000100 eV
redata: Require DM convergence for SCF              =   T
redata: DM tolerance for SCF                        =     0.000008
redata: Require EDM convergence for SCF             =   F
redata: EDM tolerance for SCF                       =     0.001000 eV
redata: Require H convergence for SCF               =   T
redata: Hamiltonian tolerance for SCF               =     0.000001 eV
redata: Require (free) Energy convergence for SCF   =   F
redata: (free) Energy tolerance for SCF             =     0.000100 eV
redata: Using Saved Data (generic)                  =   F
redata: Use continuation files for DM               =   T
redata: Neglect nonoverlap interactions             =   F
redata: Method of Calculation                       = Diagonalization
redata: Electronic Temperature                      =   299.9978 K
redata: Fix the spin of the system                  =   F
redata: Dynamics option                             = Verlet MD run
redata: Initial MD time step                        =        1
redata:   Final MD time step                        =        1
redata: Length of MD time step                      =     0.5000 fs
redata: Initial Temperature of MD run               =     0.0000 K
redata: Perform a MD quench                         =   F
mix.SCF: Pulay mixing                            = Pulay
mix.SCF:    Variant                              = stable
mix.SCF:    History steps                        = 6
mix.SCF:    Linear mixing weight                 =     0.250000
mix.SCF:    Mixing weight                        =     0.250000
mix.SCF:    SVD condition                        = 0.1000E-07
mix.SCF:    Restart steps                        = 24
mix.SCF:    Restart save steps                   = 3
mix.SCF: Spin-component mixing                   all
redata: Save all siesta data in one NC              =   F
redata: ***********************************************************************

%block SCF.Mixers
  Pulay
%endblock SCF.Mixers

%block SCF.Mixer.Pulay
  # Mixing method
  method pulay
  variant stable

  # Mixing options
  weight 0.2500
  weight.linear 0.2500
  history 6
  restart 24
  restart.save 3
%endblock SCF.Mixer.Pulay

Size of DM history Fstack: 3
Total number of electrons:    98.000000
Total ionic charge:    98.000000

* ProcessorY, Blocksize:    4   9


* Orbital distribution balance (max,min):    18     9


Time-reversal symmetry not used.

siesta: k-grid: Number of k-points =     1
siesta: k-grid: Cutoff (effective) =     5.164 Ang
siesta: k-grid: Supercell and displacements
siesta: k-grid:    1   0   0      0.000
siesta: k-grid:    0   1   0      0.000
siesta: k-grid:    0   0   1      0.000

diag: Algorithm                                     = ELPA-1stage
diag: Parallel over k                               =   F
diag: Use parallel 2D distribution                  =   T
diag: Parallel block-size                           = 9
diag: Parallel distribution                         =     4 x     8
diag: Used triangular part                          = Lower
diag: Absolute tolerance                            =  0.100E-15
diag: Orthogonalization factor                      =  0.100E-05
diag: Memory factor                                 =  1.0000


ts: **************************************************************
ts: Save H and S matrices                           =    F
ts: Save DM and EDM matrices                        =    F
ts: Only save the overlap matrix S                  =    F
ts: **************************************************************

************************ Begin: TS CHECKS AND WARNINGS ************************
************************ End: TS CHECKS AND WARNINGS **************************


                     ====================================
                        Begin MD step =      1
                     ====================================

outcoor: Atomic coordinates (Ang):                          
    2.28494382   -5.19529124    0.00000000   1       1  H
    1.37433094   -4.66471070    0.00000000   2       2  N
   -0.21830245   -5.49458215    0.00000000   3       3  Si
   -0.17484108   -6.98516892    0.00000000   1       4  H
   -1.66171682   -4.58600741    0.00000000   2       5  N
   -1.09026419   -2.87456374    0.00000000   3       6  Si
   -1.53038332   -0.70765692    0.00000000   3       7  Si
   -3.14415959   -0.09186471    0.00000000   2       8  N
   -3.40268075    0.95848335    0.00000000   1       9  H
   -3.95073599   -0.76720972    0.00000000   1      10  H
   -0.17836637    0.41349951    0.00000000   2      11  N
    1.49520211   -0.04739960    0.00000000   3      12  Si
    2.45603905    1.10727302    0.00000000   1      13  H
    2.30451743   -1.58574382    0.00000000   2      14  N
    1.10725559   -2.84610319    0.00000000   3      15  Si
    0.54276589    7.74387472    0.00000000   1      16  H
   -0.26594479    7.05166884    0.00000000   2      17  N
   -1.92253463    7.76478894    0.00000000   3      18  Si
   -1.82566946    9.27551415    0.00000000   1      19  H
   -3.64869098    6.42174081    0.00000000   3      20  Si
   -6.00314523    6.41375388    0.00000000   3      21  Si
   -6.56556335    7.14824353   -1.20183078   1      22  H
   -6.30295898    4.93466275   -0.08618332   1      23  H
   -6.56567581    6.97858634    1.28814761   1      24  H
   -2.71930034    4.35116958    0.00000000   3      25  Si
   -3.66876870    3.06263345    0.00000000   4      26  O
   -0.92835547    4.17743411    0.00000000   2      27  N
   -0.59736411    3.14507713    0.00000000   1      28  H
    0.38010275    5.37198053    0.00000000   3      29  Si
    1.94603968    5.10473368    0.00000000   4      30  O

outcell: Unit cell vectors (Ang):
       18.102865    0.000000    0.000000
        0.000000   25.475334    0.000000
        0.000000    0.000000   10.327559

outcell: Cell vector modules (Ang)   :   18.102865   25.475334   10.327559
outcell: Cell angles (23,13,12) (deg):     90.0000     90.0000     90.0000
outcell: Cell volume (Ang**3)        :   4762.8280
<dSpData1D:S at geom step 1
  <sparsity:sparsity for geom step 1
    nrows_g=302 nrows=18 sparsity=.0335 nnzs=3058, refcount: 8>
  <dData1D:(new from dSpData1D) n=3058, refcount: 1>
refcount: 1>
new_DM -- step:     1
Initializing Density Matrix...

Attempting to read DM from file... Failed...
DM filled with atomic data:
<dSpData2D:DM initialized from atoms
  <sparsity:sparsity for geom step 1
    nrows_g=302 nrows=18 sparsity=.0335 nnzs=3058, refcount: 9>
  <dData2D:DM n=3058 m=8, refcount: 1>
refcount: 1>
     spin moment: S , {S} =   56.00000   0.00000   0.00000  56.00000
No. of atoms with KB's overlaping orbs in proc 0. Max # of overlaps:      23     172

Initializing spin-orbit part of the Hamiltonian
  Adding spin-orbit effects for H 
  Adding spin-orbit effects for N 
  Adding spin-orbit effects for Si
  Adding spin-orbit effects for O 


New grid distribution:   1
           1       1:  108    1:   36    1:    8
           2       1:  108    1:   36    9:   16
           3       1:  108    1:   36   17:   24
           4       1:  108    1:   36   25:   32
           5       1:  108    1:   36   33:   39
           6       1:  108    1:   36   40:   46
           7       1:  108    1:   36   47:   53
           8       1:  108    1:   36   54:   60
           9       1:  108   37:   72    1:    8
          10       1:  108   37:   72    9:   16
          11       1:  108   37:   72   17:   24
          12       1:  108   37:   72   25:   32
          13       1:  108   37:   72   33:   39
          14       1:  108   37:   72   40:   46
          15       1:  108   37:   72   47:   53
          16       1:  108   37:   72   54:   60
          17       1:  108   73:  108    1:    8
          18       1:  108   73:  108    9:   16
          19       1:  108   73:  108   17:   24
          20       1:  108   73:  108   25:   32
          21       1:  108   73:  108   33:   39
          22       1:  108   73:  108   40:   46
          23       1:  108   73:  108   47:   53
          24       1:  108   73:  108   54:   60
          25       1:  108  109:  144    1:    8
          26       1:  108  109:  144    9:   16
          27       1:  108  109:  144   17:   24
          28       1:  108  109:  144   25:   32
          29       1:  108  109:  144   33:   39
          30       1:  108  109:  144   40:   46
          31       1:  108  109:  144   47:   53
          32       1:  108  109:  144   54:   60

InitMesh: MESH =   216 x   288 x   120 =     7464960
InitMesh: (bp) =   108 x   144 x    60 =      933120
InitMesh: Mesh cutoff (required, used) =   340.000   353.221 Ry
ExtMesh (bp) on 0 =   216 x   140 x   116 =     3507840
New grid distribution:   2
           1       1:   67   26:   42    1:   21
           2       1:   14    1:   25    1:   18
           3      88:   98    1:   23   18:   60
           4      15:   87    1:   25   19:   60
           5       1:   68   26:   42   22:   60
           6      99:  108   43:  123    1:   20
           7      69:   87   26:   42   22:   60
           8      98:  108   24:   42    1:   21
           9      11:   81   43:  125    1:   20
          10       1:   10   43:  125    1:   20
          11      99:  108    1:   23   18:   60
          12      88:   98    1:   23    1:   17
          13       1:   10   43:  125   21:   60
          14       1:   14    1:   25   19:   60
          15      98:  108   24:   42   22:   60
          16      88:   97   24:   42    1:   21
          17      82:   98   43:  123    1:   20
          18      88:   97   24:   42   22:   60
          19      99:  108    1:   23    1:   17
          20      11:   81   43:  125   21:   60
          21      82:   98   43:  123   21:   60
          22      99:  108   43:  123   21:   60
          23      68:   87   26:   42    1:   21
          24       1:    9  126:  144    1:   20
          25      10:   81  126:  144    1:   20
          26      82:   99  124:  144    1:   20
          27     100:  108  124:  144    1:   20
          28      10:   81  126:  144   21:   60
          29      15:   87    1:   25    1:   18
          30      82:   99  124:  144   21:   60
          31     100:  108  124:  144   21:   60
          32       1:    9  126:  144   21:   60
New grid distribution:   3
           1      25:   69   28:   49    1:   25
           2       1:   17    1:   27   26:   60
           3      70:   90    1:   26    1:   25
           4      18:   69    1:   27   26:   60
           5      17:   75  118:  144    1:   25
           6      70:   90    1:   26   26:   60
           7      91:  108    1:   26   26:   60
           8      70:   89   27:   49    1:   26
           9      14:   75   50:  117    1:   24
          10       1:   16  118:  144   26:   60
          11       1:   24   28:   49    1:   25
          12      97:  108   50:  113   25:   60
          13      18:   69    1:   27    1:   25
          14       1:   24   28:   49   26:   60
          15      89:  108   27:   49   27:   60
          16      91:  108    1:   26    1:   25
          17      76:   96   50:  113    1:   24
          18      97:  108   50:  113    1:   24
          19       1:   17    1:   27    1:   25
          20      14:   75   50:  117   25:   60
          21      76:   96   50:  113   25:   60
          22       1:   13   50:  117   25:   60
          23      70:   88   27:   49   27:   60
          24      90:  108   27:   49    1:   26
          25       1:   13   50:  117    1:   24
          26      76:   94  114:  144    1:   25
          27      95:  108  114:  144    1:   25
          28      17:   75  118:  144   26:   60
          29      25:   69   28:   49   26:   60
          30      76:   94  114:  144   26:   60
          31      95:  108  114:  144   26:   60
          32       1:   16  118:  144    1:   25
Setting up quadratic distribution...
ExtMesh (bp) on 0 =   175 x   121 x   129 =     2731575
PhiOnMesh: Number of (b)points on node 0 =                23919
PhiOnMesh: nlist on node 0 =               387019

stepf: Fermi-Dirac step function

siesta: Program's energy decomposition (eV):
siesta: Ebs     =      -638.716786
siesta: Eions   =      3553.971015
siesta: Ena     =       374.891816
siesta: Ekin    =      3166.837708
siesta: Enl     =     -2980.938370
siesta: Eso     =        -0.003903
siesta: Edftu   =         0.000000
siesta: DEna    =       129.651189
siesta: DUscf   =        73.934475
siesta: DUext   =         0.000000
siesta: Exc     =     -1167.765965
siesta: eta*DQ  =         0.000000
siesta: Emadel  =         0.000000
siesta: Emeta   =         0.000000
siesta: Emolmec =         0.000000
siesta: Ekinion =         0.000000
siesta: Eharris =     -3888.995541
siesta: Etot    =     -3957.364065
siesta: FreeEng =     -3957.367379

        iscf     Eharris(eV)        E_KS(eV)     FreeEng(eV)     dDmax    Ef(eV) dHmax(eV)
   scf:    1    -3888.995541    -3957.364065    -3957.367379  0.969363 -4.936319 20.662097
     spin moment: S , {S} =    2.02359  -0.00000  -0.00000   2.02359
timer: Routine,Calls,Time,% = IterSCF        1       4.019   9.83
   scf:    2    -3999.543891    -3990.523903    -3990.523911  0.464004 -4.283108 10.194526
     spin moment: S , {S} =    2.00008   0.00000  -0.00000   2.00008
   scf:    3    -3985.600380    -3993.705830    -3993.743884  0.422947 -4.166826  7.474640
     spin moment: S , {S} =    0.79109  -0.00000  -0.00000   0.79109
   scf:    4    -4000.781275    -3997.924810    -3997.924810  0.108341 -3.904031  4.304026
     spin moment: S , {S} =    0.00010  -0.00000   0.00000   0.00010
   scf:    5    -3999.361161    -3998.696802    -3998.696802  0.033666 -3.819619  2.293773
     spin moment: S , {S} =    0.00005  -0.00000   0.00000   0.00005
   scf:    6    -3999.311618    -3999.008524    -3999.008524  0.023615 -3.833301  1.225807
     spin moment: S , {S} =    0.00003  -0.00000   0.00000   0.00003
   scf:    7    -3999.329160    -3999.162663    -3999.162663  0.021342 -3.884488  0.614194
     spin moment: S , {S} =    0.00001  -0.00000   0.00000   0.00001
   scf:    8    -3999.258159    -3999.208561    -3999.208562  0.010404 -3.915140  0.326709
     spin moment: S , {S} =    0.00000  -0.00000   0.00000   0.00000
   scf:    9    -3999.251040    -3999.228720    -3999.228721  0.007066 -3.929623  0.207251
     spin moment: S , {S} =    0.00000  -0.00000   0.00000  -0.00000
   scf:   10    -3999.264206    -3999.244041    -3999.244047  0.012285 -3.939099  0.096019
     spin moment: S , {S} =    0.00001  -0.00000  -0.00000  -0.00001
   scf:   11    -3999.248423    -3999.246085    -3999.246092  0.004590 -3.934407  0.041411
     spin moment: S , {S} =    0.00000  -0.00000  -0.00000  -0.00000
   scf:   12    -3999.247479    -3999.246748    -3999.246755  0.002240 -3.933548  0.032222
     spin moment: S , {S} =    0.00000  -0.00000  -0.00000  -0.00000
   scf:   13    -3999.247580    -3999.247140    -3999.247147  0.001856 -3.932690  0.028047
     spin moment: S , {S} =    0.00000  -0.00000  -0.00000  -0.00000
   scf:   14    -3999.248121    -3999.247565    -3999.247572  0.003025 -3.932019  0.016337
     spin moment: S , {S} =    0.00000  -0.00000  -0.00000  -0.00000
   scf:   15    -3999.247914    -3999.247709    -3999.247715  0.002177 -3.931674  0.008728
     spin moment: S , {S} =    0.00000  -0.00000  -0.00000  -0.00000
   scf:   16    -3999.247777    -3999.247737    -3999.247744  0.000984 -3.931729  0.004444
     spin moment: S , {S} =    0.00000  -0.00000  -0.00000  -0.00000
   scf:   17    -3999.247752    -3999.247743    -3999.247750  0.000469 -3.931843  0.003045
     spin moment: S , {S} =    0.00000  -0.00000  -0.00000  -0.00000
   scf:   18    -3999.247750    -3999.247746    -3999.247753  0.000309 -3.931973  0.001670
     spin moment: S , {S} =    0.00000  -0.00000  -0.00000  -0.00000
   scf:   19    -3999.247748    -3999.247747    -3999.247754  0.000154 -3.931999  0.000983
     spin moment: S , {S} =    0.00000  -0.00000  -0.00000   0.00000
   scf:   20    -3999.247748    -3999.247748    -3999.247754  0.000113 -3.932006  0.000492
     spin moment: S , {S} =    0.00000  -0.00000  -0.00000   0.00000
   scf:   21    -3999.247748    -3999.247748    -3999.247755  0.000067 -3.931994  0.000259
     spin moment: S , {S} =    0.00000  -0.00000  -0.00000  -0.00000
   scf:   22    -3999.247748    -3999.247748    -3999.247755  0.000051 -3.931996  0.000166
     spin moment: S , {S} =    0.00000  -0.00000  -0.00000  -0.00000
   scf:   23    -3999.247748    -3999.247748    -3999.247755  0.000007 -3.931997  0.000124
     spin moment: S , {S} =    0.00000  -0.00000  -0.00000  -0.00000
   scf:   24    -3999.247748    -3999.247748    -3999.247755  0.000009 -3.931998  0.000082
     spin moment: S , {S} =    0.00000  -0.00000  -0.00000  -0.00000
mix: Pulay -- resetting history
   scf:   25    -3999.247748    -3999.247748    -3999.247755  0.000011 -3.931997  0.000034
     spin moment: S , {S} =    0.00000   0.00000  -0.00000  -0.00000
   scf:   26    -3999.247748    -3999.247748    -3999.247755  0.000004 -3.931996  0.000013
     spin moment: S , {S} =    0.00000   0.00000  -0.00000  -0.00000
   scf:   27    -3999.247748    -3999.247748    -3999.247755  0.000001 -3.931995  0.000006
     spin moment: S , {S} =    0.00000   0.00000  -0.00000  -0.00000
   scf:   28    -3999.247748    -3999.247748    -3999.247755  0.000000 -3.931996  0.000005
     spin moment: S , {S} =    0.00000  -0.00000  -0.00000  -0.00000
   scf:   29    -3999.247748    -3999.247748    -3999.247755  0.000000 -3.931996  0.000003
     spin moment: S , {S} =    0.00000  -0.00000  -0.00000  -0.00000
   scf:   30    -3999.247748    -3999.247748    -3999.247755  0.000000 -3.931996  0.000002
     spin moment: S , {S} =    0.00000   0.00000  -0.00000   0.00000
   scf:   31    -3999.247748    -3999.247748    -3999.247755  0.000000 -3.931996  0.000001
     spin moment: S , {S} =    0.00000  -0.00000  -0.00000   0.00000
   scf:   32    -3999.247748    -3999.247748    -3999.247755  0.000000 -3.931996  0.000001
     spin moment: S , {S} =    0.00000  -0.00000  -0.00000   0.00000
   scf:   33    -3999.247748    -3999.247748    -3999.247755  0.000000 -3.931996  0.000001
     spin moment: S , {S} =    0.00000  -0.00000  -0.00000   0.00000

SCF Convergence by DM+H criterion
max |DM_out - DM_in|         :     0.0000001238
max |H_out - H_in|      (eV) :     0.0000006883
SCF cycle converged after 33 iterations

Using DM_out to compute the final energy and forces
No. of atoms with KB's overlaping orbs in proc 0. Max # of overlaps:      23     172

siesta: E_KS(eV) =            -3999.2477

siesta: E_KS - E_eggbox =     -3999.2477
     spin moment: S , {S} =    0.00000  -0.00000  -0.00000   0.00000

siesta: Atomic forces (eV/Ang):
     1    0.117802   -0.049564   -0.000000
     2   -0.021680    0.020214   -0.000001
     3   -0.014263   -0.004017   -0.000000
     4    0.212371   -0.163689    0.000000
     5   -0.005737   -0.016901   -0.000000
     6   -0.087427    0.009889   -0.000001
     7    0.484178    0.036218   -0.000006
     8   -0.372250    1.052142    0.000021
     9    0.072329   -0.435882   -0.000045
    10   -0.052600    0.019193    0.000001
    11   -0.074501   -0.120519    0.000005
    12   -0.138310    0.021071    0.000001
    13   -0.142017   -0.006642    0.000000
    14    0.005625   -0.058558   -0.000001
    15    0.049151    0.053100    0.000003
    16   -0.094741   -0.046098   -0.000943
    17    0.017389   -0.039278   -0.000815
    18   -0.062189    0.013284    0.005373
    19   -0.031484   -0.066856   -0.001518
    20    0.051302    0.038168   -0.001029
    21    0.020857   -0.009307   -0.006059
    22    0.118382    0.035412    0.101757
    23    0.085432    0.127452   -0.016593
    24    0.124493    0.071275   -0.079651
    25   -0.292074   -0.238875    0.000982
    26   -2.980932    1.615128    0.000457
    27    0.175766   -0.290884   -0.000548
    28   -0.081615    0.407757   -0.000085
    29    0.085703    0.062522   -0.000191
    30   -2.816170    3.011667    0.000240
----------------------------------------
   Tot   -5.647212    5.047423    0.001353
----------------------------------------
   Max    3.011667
   Res    0.585821    sqrt( Sum f_i^2 / 3N )
----------------------------------------
   Max    3.011667    constrained

Stress tensor Voigt[x,y,z,yz,xz,xy] (kbar):        0.36        1.11       -0.05       -0.02        0.00        0.24
(Free)E + p*V (eV/cell)    -4000.6579
Target enthalpy (eV/cell)    -3999.2478

siesta: Stress tensor (static) (eV/Ang**3):
         0.000225    0.000150    0.000001
         0.000150    0.000694   -0.000011
         0.000001   -0.000011   -0.000031

siesta: Pressure (static):         -0.47437003  kBar

siesta: Stress tensor (total) (eV/Ang**3):
         0.000225    0.000150    0.000001
         0.000150    0.000694   -0.000011
         0.000001   -0.000011   -0.000031

siesta: Pressure (total):         -0.47437003  kBar

siesta: Temp_ion =       0.000 K

siesta: Eigenvalues (eV):
ik =     1
  -22.9211  -22.9211  -22.6715  -22.6715  -21.8153  -21.8153  -21.2977  -21.2977  -21.0854  -21.0854
  -20.6064  -20.6064  -19.4866  -19.4866  -19.3042  -19.3042  -18.7197  -18.7197  -15.1475  -15.1475
  -14.2093  -14.2093  -13.6810  -13.6810  -13.6024  -13.6024  -13.1873  -13.1873  -12.9472  -12.9472
  -12.5083  -12.5083  -11.9900  -11.9900  -11.9695  -11.9695  -11.5190  -11.5190  -11.5024  -11.5024
  -10.9165  -10.9165  -10.7097  -10.7097  -10.2579  -10.2579   -9.7241   -9.7241   -9.4068   -9.4068
   -9.2666   -9.2666   -9.1749   -9.1749   -9.0903   -9.0903   -8.8744   -8.8744   -8.6924   -8.6924
   -8.4971   -8.4971   -8.3101   -8.3101   -8.1960   -8.1960   -8.1036   -8.1036   -8.0618   -8.0618
   -7.9140   -7.9140   -7.4172   -7.4172   -7.3931   -7.3931   -7.3891   -7.3891   -6.9409   -6.9409
   -6.8919   -6.8919   -6.7977   -6.7977   -6.6137   -6.6137   -6.4193   -6.4193   -6.3195   -6.3195
   -5.8516   -5.8516   -5.8339   -5.8339   -5.6422   -5.6422   -4.2476   -4.2476   -3.6164   -3.6164
   -2.8092   -2.8092   -2.3450   -2.3450   -2.2489   -2.2489   -2.2282   -2.2282   -2.1111   -2.1111
   -2.0061   -2.0061   -1.7913   -1.7913   -1.7330   -1.7330   -1.6233   -1.6233   -1.4624   -1.4624
   -1.2286   -1.2286   -0.5328   -0.5328   -0.3822   -0.3822   -0.2757   -0.2757   -0.2515   -0.2515
   -0.0992   -0.0992   -0.0528   -0.0528    0.1461    0.1461    0.5340    0.5340    0.5518    0.5518
    0.5923    0.5923    0.7534    0.7534    1.2133    1.2133    1.2550    1.2550    1.3426    1.3426
    1.4579    1.4579    1.5834    1.5834    1.7181    1.7181    2.0609    2.0609    2.2023    2.2023
    2.4142    2.4142    2.6682    2.6682    2.7985    2.7985    2.9046    2.9046    2.9773    2.9773
    3.0250    3.0250    3.0993    3.0993    3.1606    3.1606    3.2447    3.2447    3.5497    3.5497
    3.8127    3.8127    4.0060    4.0060    4.1626    4.1626    4.2113    4.2113    4.2764    4.2764
    4.3549    4.3549    4.6199    4.6199    4.7461    4.7461    4.9902    4.9902    5.0546    5.0546
    5.0930    5.0930    5.4236    5.4236    5.5640    5.5640    5.5916    5.5916    5.7996    5.7996
    5.8205    5.8205    6.0848    6.0848    6.1254    6.1254    6.3290    6.3290    6.3788    6.3788
    6.5825    6.5825    6.7266    6.7266    6.8491    6.8491    7.0770    7.0770    7.2029    7.2029
    7.3249    7.3249    7.4720    7.4720    7.6779    7.6779    7.7468    7.7468    7.9384    7.9384
    8.1841    8.1841    8.3338    8.3338    8.3785    8.3785    8.6180    8.6180    8.6510    8.6510
    8.8372    8.8372    9.0780    9.0780    9.0951    9.0951    9.2977    9.2977    9.6047    9.6047
    9.7048    9.7048    9.7554    9.7554    9.8189    9.8189    9.9606    9.9606   10.0910   10.0910
   10.5821   10.5821   10.6697   10.6697   10.8545   10.8545   10.9936   10.9936   11.1689   11.1689
   11.2617   11.2617   11.5494   11.5494   11.6448   11.6448   11.7996   11.7996   11.8971   11.8971
   12.1593   12.1593   12.2795   12.2795   12.4642   12.4642   12.5779   12.5779   12.7151   12.7151
   12.8597   12.8597   12.9546   12.9546   13.2977   13.2977   13.5344   13.5344   13.5967   13.5967
   13.7825   13.7825   13.9841   13.9841   14.4739   14.4739   14.8713   14.8713   14.9459   14.9459
   15.0495   15.0495   15.1221   15.1221   15.3340   15.3340   15.9989   15.9989   16.4715   16.4715
   16.8418   16.8418   16.9003   16.9003   17.0445   17.0445   17.2105   17.2105   17.6183   17.6183
   18.1460   18.1460   18.4166   18.4166   18.6130   18.6130   18.7488   18.7488   18.7849   18.7849
   18.8351   18.8351   19.3555   19.3555   19.6184   19.6184   19.9522   19.9522   20.6370   20.6370
   20.7893   20.7893   21.4914   21.4914   21.6440   21.6440   22.0421   22.0421   22.3036   22.3036
   22.3275   22.3275   23.0213   23.0213   23.2119   23.2119   23.2458   23.2458   24.2780   24.2780
   24.6502   24.6502   24.8836   24.8836   24.9966   24.9966   25.8483   25.8483   26.0084   26.0084
   26.5013   26.5013   26.5893   26.5893   26.7696   26.7696   27.7197   27.7197   27.9801   27.9801
   28.5672   28.5672   29.0846   29.0846   29.5412   29.5412   30.6833   30.6833   30.7890   30.7890
   30.8609   30.8609   31.1998   31.1998   31.3186   31.3186   31.3676   31.3676   31.8667   31.8667
   31.8740   31.8740   32.2997   32.2997   33.2029   33.2029   33.4200   33.4200   33.9371   33.9371
   34.0500   34.0500   34.4949   34.4949   34.6943   34.6943   35.4272   35.4272   36.0036   36.0036
   36.1737   36.1737   36.7053   36.7053   37.1411   37.1411   37.7841   37.7841   38.1075   38.1075
   38.3183   38.3183   38.8798   38.8798   39.0288   39.0288   39.4819   39.4819   40.2378   40.2378
   40.5459   40.5459   40.8379   40.8379   41.1004   41.1004   41.5827   41.5827   41.9493   41.9493
   42.6169   42.6169   43.0844   43.0844   43.2734   43.2734   43.6914   43.6914   43.9263   43.9263
   44.7350   44.7350   45.2228   45.2228   45.2663   45.2663   45.8276   45.8276   45.9712   45.9712
   46.4158   46.4158   46.7235   46.7235   47.1933   47.1933   47.8317   47.8317   48.1980   48.1980
   48.6050   48.6050   48.7209   48.7209   49.3166   49.3166   49.8572   49.8572   50.0419   50.0419
   50.2568   50.2568   50.4668   50.4668   50.5772   50.5772   51.8792   51.8792   51.9745   51.9745
   52.3882   52.3882   54.0294   54.0294   54.1399   54.1399   54.8502   54.8502   54.8590   54.8590
   56.1858   56.1858   56.2882   56.2882   56.5415   56.5415   56.7368   56.7368   57.0716   57.0716
   58.0313   58.0313   58.9861   58.9861   59.2746   59.2746   61.0468   61.0468   61.2039   61.2039
   61.6105   61.6105   62.9339   62.9339   63.4390   63.4390   64.4091   64.4091   65.0448   65.0448
   65.7360   65.7360   66.5013   66.5013   67.2127   67.2127   67.8565   67.8565   68.7240   68.7240
   71.1324   71.1324   72.0269   72.0269   73.1783   73.1783   81.2072   81.2072   88.7196   88.7196
   93.1239   93.1239   93.8328   93.8328   95.5452   95.5452   97.0646   97.0646  100.1943  100.1943
  102.2861  102.2861  102.6665  102.6665  117.2627  117.2627  120.4652  120.4652  123.8444  123.8444
  135.0688  135.0688  144.0255  144.0255
siesta: Fermi energy =      -3.931996 eV

siesta: Program's energy decomposition (eV):
siesta: Ebs     =     -1118.252073
siesta: Eions   =      3553.971015
siesta: Ena     =       374.891816
siesta: Ekin    =      2743.583588
siesta: Enl     =     -2523.484412
siesta: Eso     =        -0.004681
siesta: Edftu   =         0.000000
siesta: DEna    =        37.147817
siesta: DUscf   =        13.691484
siesta: DUext   =         0.000000
siesta: Exc     =     -1091.102346
siesta: eta*DQ  =         0.000000
siesta: Emadel  =         0.000000
siesta: Emeta   =         0.000000
siesta: Emolmec =         0.000000
siesta: Ekinion =         0.000000
siesta: Eharris =     -3999.247748
siesta: Etot    =     -3999.247748
siesta: FreeEng =     -3999.247755

siesta: Final energy (eV):
siesta:  Band Struct. =   -1118.252073
siesta:       Kinetic =    2743.583588
siesta:       Hartree =    7994.826551
siesta:       Edftu   =       0.000000
siesta:       Eso     =      -0.004681
siesta:    Ext. field =       0.000000
siesta:   Exch.-corr. =   -1091.102346
siesta:  Ion-electron =  -18435.428498
siesta:       Ion-ion =    4788.877639
siesta:       Ekinion =       0.000000
siesta:         Total =   -3999.247748
siesta:         Fermi =      -3.931996

siesta: Atomic forces (eV/Ang):
siesta:      1    0.117802   -0.049564   -0.000000
siesta:      2   -0.021680    0.020214   -0.000001
siesta:      3   -0.014263   -0.004017   -0.000000
siesta:      4    0.212371   -0.163689    0.000000
siesta:      5   -0.005737   -0.016901   -0.000000
siesta:      6   -0.087427    0.009889   -0.000001
siesta:      7    0.484178    0.036218   -0.000006
siesta:      8   -0.372250    1.052142    0.000021
siesta:      9    0.072329   -0.435882   -0.000045
siesta:     10   -0.052600    0.019193    0.000001
siesta:     11   -0.074501   -0.120519    0.000005
siesta:     12   -0.138310    0.021071    0.000001
siesta:     13   -0.142017   -0.006642    0.000000
siesta:     14    0.005625   -0.058558   -0.000001
siesta:     15    0.049151    0.053100    0.000003
siesta:     16   -0.094741   -0.046098   -0.000943
siesta:     17    0.017389   -0.039278   -0.000815
siesta:     18   -0.062189    0.013284    0.005373
siesta:     19   -0.031484   -0.066856   -0.001518
siesta:     20    0.051302    0.038168   -0.001029
siesta:     21    0.020857   -0.009307   -0.006059
siesta:     22    0.118382    0.035412    0.101757
siesta:     23    0.085432    0.127452   -0.016593
siesta:     24    0.124493    0.071275   -0.079651
siesta:     25   -0.292074   -0.238875    0.000982
siesta:     26   -2.980932    1.615128    0.000457
siesta:     27    0.175766   -0.290884   -0.000548
siesta:     28   -0.081615    0.407757   -0.000085
siesta:     29    0.085703    0.062522   -0.000191
siesta:     30   -2.816170    3.011667    0.000240
siesta: ----------------------------------------
siesta:    Tot   -5.647212    5.047423    0.001353

siesta: Stress tensor (static) (eV/Ang**3):
siesta:     0.000225    0.000150    0.000001
siesta:     0.000150    0.000694   -0.000011
siesta:     0.000001   -0.000011   -0.000031

siesta: Cell volume =       4762.827970 Ang**3

siesta: Pressure (static):
siesta:                Solid            Molecule  Units
siesta:          -0.00000322         -0.00000879  Ry/Bohr**3
siesta:          -0.00029608         -0.00080732  eV/Ang**3
siesta:          -0.47437003         -1.29348960  kBar
(Free)E+ p_basis*V_orbitals  =       -3978.119670
(Free)Eharris+ p_basis*V_orbitals  =       -3978.119670
     spin moment: S , {S} =    0.00000  -0.00000  -0.00000   0.00000

siesta: Electric dipole (a.u.)  =   -1.297619    1.981870   -0.001736
siesta: Electric dipole (Debye) =   -3.298220    5.037415   -0.004412

cite: Please see "AT.bib" for an exhaustive BiBTeX file.
cite: Please clearly indicate Siesta version in published work: v4.1.5-1-g384057250
cite: This calculation has made use of the following articles
cite: which are encouraged to be cited in a published work.
        Primary SIESTA paper
          DOI: www.doi.org/10.1088/0953-8984/14/11/302
        Spin-orbit coupling (on-site approximation)
          DOI: www.doi.org/10.1088/0953-8984/19/19/489001


WARNING: alloc-realloc-dealloc name mismatch
         Name: atomlist isa
         Size:              -120. Bytes
         Node:     0
         Subsequent mismatches will not be reported
>> End of run:  16-OCT-2023  20:23:53
Job completed
