Siesta Version  : v4.1.5-1-g384057250
Architecture    : gcc
Compiler version: GNU Fortran (Debian 10.2.1-6) 10.2.1 20210110
Compiler flags  : mpifort -O2 -fPIC -ftree-vectorize -fallow-argument-mismatch
PP flags        : -DFC_HAVE_ABORT -DMPI -DSIESTA__FLOOK -DSIESTA__METIS -DSIESTA__MUMPS -DCDF -DNCDF -DNCDF_4 -DNCDF_PARALLEL -DSIESTA__MRRR -DSIESTA__ELPA
Libraries       : libncdf.a libfdict.a  -lflookall -ldl -lnetcdff -lnetcdf -lhdf5_hl -lhdf5 -lhdf5_fortran -lz -lscalapack-openmpi -lopenblas -lmetis -lzmumps -lcmumps -ldmumps -lmumps_common -lpord -lsmumps -lesmumps -lscotch -lscotcherr -fopenmp -lelpa
PARALLEL version
NetCDF support
NetCDF-4 support
NetCDF-4 MPI-IO support
METIS ordering support
Lua support

* Running on 6 nodes in parallel
>> Start of run:  22-MAY-2023  10:26:35

                           ***********************       
                           *  WELCOME TO SIESTA  *       
                           ***********************       

reinit: Reading from standard input
reinit: Dumped input in INPUT_TMP.98729
************************** Dump of input data file ****************************
SystemLabel      AT
NumberOfAtoms    30
NumberOfSpecies  4
%block ChemicalSpeciesLabel
    1    1  H
    2    7  N
    3   14  Si
    4    8  O
%endblock ChemicalSpeciesLabel
# Single point calculation
MD.TypeOfRun                CG
MD.Steps                    0
SCF.MustConverge            F # In case it does not. There can be 2 very close atoms
AtomicCoordinatesFormat NotScaledCartesianAng
%block AtomicCoordinatesAndAtomicSpecies
2.582377650    -5.776830440   0.000000000       1
1.654759240    -5.269361980   0.000000000       2
0.063128840    -6.101704590   0.000000000       3
0.119223240    -7.596849500   0.000000000       1
-1.376892050   -5.182603740   0.000000000       2
-0.824371900   -3.460866440   0.000000000       3
-1.170571480   -1.270002100   0.000000000       3
-2.706933680   -0.417515780   0.000000000       2
-2.754569660   0.634858620    0.000000000       1
-3.637675640   -0.909967860   0.000000000       1
0.218091790    -0.234193970   0.000000000       2
1.872004100    -0.697162300   0.000000000       3
2.828001130    0.461464770    0.000000000       1
2.648150080    -2.255024470   0.000000000       2
1.391921380    -3.454727220   0.000000000       3
1.847653784    7.785609020    0.000000000       2
0.520282264    8.995813320    0.000000000       3
1.160283534    10.357131560   0.000000000       1
-1.565463676   8.325281970    0.000000000       3
-3.595026276   9.455398160    0.000000000       3
-3.440790506   10.615628370   0.940305280       1
-4.580960996   8.433477540    0.512613700       1
-4.011241236   9.931624010    -1.366678340      1
-1.498968256   6.051305350    0.000000000       3
-2.538016986   4.858245850    0.000000000       4
0.158023324    5.417330160    0.000000000       2
0.140005954    4.354885330    0.000000000       1
1.781626394    6.014400370    0.000000000       3
2.976642564    4.999975170    0.000000000       4
2.847691154    8.131116120    0.000000000       1
%endblock AtomicCoordinatesAndAtomicSpecies
%include ../../../Defaults.fdf
************************** End of input data file *****************************

reinit: -----------------------------------------------------------------------
reinit: System Name: 
reinit: -----------------------------------------------------------------------
reinit: System Label: AT
reinit: -----------------------------------------------------------------------

initatom: Reading input for the pseudopotentials and atomic orbitals ----------
Species number:   1 Atomic number:    1 Label: H
Species number:   2 Atomic number:    7 Label: N
Species number:   3 Atomic number:   14 Label: Si
Species number:   4 Atomic number:    8 Label: O

Ground state valence configuration:   1s01
Reading pseudopotential information in formatted form from H.psf

Pseudopotential generated from a relativistic atomic calculation

Valence configuration for pseudopotential generation:
1s( 1.00) rc: 0.01
2p( 0.00) rc: 0.60
3d( 0.00) rc: 1.99
4f( 0.00) rc: 2.49
Ground state valence configuration:   2s02  2p03
Reading pseudopotential information in formatted form from N.psf

Pseudopotential generated from a relativistic atomic calculation

Valence configuration for pseudopotential generation:
2s( 2.00) rc: 0.94
2p( 3.00) rc: 0.59
3d( 0.00) rc: 3.46
4f( 0.00) rc: 2.47
Ground state valence configuration:   3s02  3p02
Reading pseudopotential information in formatted form from Si.psf

Pseudopotential generated from a relativistic atomic calculation

Valence configuration for pseudopotential generation:
3s( 2.00) rc: 1.67
3p( 2.00) rc: 2.04
3d( 0.00) rc: 2.89
4f( 0.00) rc: 2.49
Ground state valence configuration:   2s02  2p04
Reading pseudopotential information in formatted form from O.psf

Pseudopotential generated from a relativistic atomic calculation

Valence configuration for pseudopotential generation:
2s( 2.00) rc: 0.45
2p( 4.00) rc: 0.92
3d( 0.00) rc: 2.24
4f( 0.00) rc: 0.25
For H, standard SIESTA heuristics set lmxkb to 2
 (one more than the basis l, including polarization orbitals).
Use PS.lmax or PS.KBprojectors blocks to override.
For N, standard SIESTA heuristics set lmxkb to 3
 (one more than the basis l, including polarization orbitals).
Use PS.lmax or PS.KBprojectors blocks to override.
For Si, standard SIESTA heuristics set lmxkb to 3
 (one more than the basis l, including polarization orbitals).
Use PS.lmax or PS.KBprojectors blocks to override.
For O, standard SIESTA heuristics set lmxkb to 3
 (one more than the basis l, including polarization orbitals).
Use PS.lmax or PS.KBprojectors blocks to override.

<basis_specs>
===============================================================================
H                    Z=   1    Mass=  1.0100        Charge= 0.17977+309
Lmxo=0 Lmxkb= 2    BasisType=split      Semic=F
L=0  Nsemic=0  Cnfigmx=1
          i=1  nzeta=2  polorb=1  (1s)
            splnorm:   0.62000    
               vcte:    0.0000    
               rinn:    0.0000    
               qcoe:    0.0000    
               qyuk:    0.0000    
               qwid:   0.10000E-01
                rcs:    0.0000      0.0000    
            lambdas:    1.0000      1.0000    
-------------------------------------------------------------------------------
L=0  Nkbl=1  erefs: 0.17977+309
L=1  Nkbl=1  erefs: 0.17977+309
L=2  Nkbl=1  erefs: 0.17977+309
===============================================================================
</basis_specs>

atom: Called for H                     (Z =   1)

read_vps: Pseudopotential generation method:
read_vps: ATM4.2.7  Troullier-Martins                       
Valence charge for ps generation:    1.00000

xc_check: Exchange-correlation functional:
xc_check: GGA Perdew, Burke & Ernzerhof 1996
V l=0 = -2*Zval/r beyond r=  0.0098
V l=1 = -2*Zval/r beyond r=  0.5817
V l=2 = -2*Zval/r beyond r=  1.9372
All V_l potentials equal beyond r=  1.9372
This should be close to max(r_c) in ps generation
All pots = -2*Zval/r beyond r=  1.9372

VLOCAL1: 99.0% of the norm of Vloc inside     11.567 Ry
VLOCAL1: 99.9% of the norm of Vloc inside     26.362 Ry
atom: Maximum radius for 4*pi*r*r*local-pseudopot. charge    2.25106
atom: Maximum radius for r*vlocal+2*Zval:    1.91306
GHOST: No ghost state for L =  0
GHOST: No ghost state for L =  1
GHOST: No ghost state for L =  2

KBgen: Kleinman-Bylander projectors: 
   l= 0   rc=  2.036604   el= -0.477180   Ekb= -6.081590   kbcos= -0.277285
   l= 1   rc=  2.195416   el=  0.001076   Ekb= -0.926943   kbcos= -0.034643
   l= 2   rc=  2.251056   el=  0.002010   Ekb= -0.130941   kbcos= -0.009788

KBgen: Total number of Kleinman-Bylander projectors:    9
atom: -------------------------------------------------------------------------

atom: SANKEY-TYPE ORBITALS:
atom: Selected multiple-zeta basis: split     

SPLIT: Orbitals with angular momentum L= 0

SPLIT: Basis orbitals for state 1s

SPLIT: PAO cut-off radius determined from an
SPLIT: energy shift=  0.002000 Ry

   izeta = 1
                 lambda =    1.000000
                     rc =    6.518340
                 energy =   -0.475305
                kinetic =    0.912139
    potential(screened) =   -1.387444
       potential(ionic) =   -1.907295

   izeta = 2
                 rmatch =    2.141150
              splitnorm =    0.620000
                 energy =    0.566467
                kinetic =    3.772856
    potential(screened) =   -3.206389
       potential(ionic) =   -3.759093

POLgen: Perturbative polarization orbital with L=  1

POLgen: Polarization orbital for state 1s

   izeta = 1
                     rc =    6.518340
                 energy =    0.533861
                kinetic =    1.121086
    potential(screened) =   -0.587225
       potential(ionic) =   -1.053027
atom: Total number of Sankey-type orbitals:  5

atm_pop: Valence configuration (for local Pseudopot. screening):
 1s( 1.00)                                                            
Vna: chval, zval:    1.00000   1.00000

Vna:  Cut-off radius for the neutral-atom potential:   6.518340

atom: _________________________________________________________________________

<basis_specs>
===============================================================================
N                    Z=   7    Mass=  14.010        Charge= 0.17977+309
Lmxo=1 Lmxkb= 3    BasisType=split      Semic=F
L=0  Nsemic=0  Cnfigmx=2
          i=1  nzeta=2  polorb=0  (2s)
            splnorm:   0.28000    
               vcte:    0.0000    
               rinn:    0.0000    
               qcoe:    0.0000    
               qyuk:    0.0000    
               qwid:   0.10000E-01
                rcs:    0.0000      0.0000    
            lambdas:    1.0000      1.0000    
L=1  Nsemic=0  Cnfigmx=2
          i=1  nzeta=2  polorb=1  (2p)
            splnorm:   0.28000    
               vcte:    0.0000    
               rinn:    0.0000    
               qcoe:    0.0000    
               qyuk:    0.0000    
               qwid:   0.10000E-01
                rcs:    0.0000      0.0000    
            lambdas:    1.0000      1.0000    
-------------------------------------------------------------------------------
L=0  Nkbl=1  erefs: 0.17977+309
L=1  Nkbl=1  erefs: 0.17977+309
L=2  Nkbl=1  erefs: 0.17977+309
L=3  Nkbl=1  erefs: 0.17977+309
===============================================================================
</basis_specs>

atom: Called for N                     (Z =   7)

read_vps: Pseudopotential generation method:
read_vps: ATM4.2.7  Troullier-Martins                       
Valence charge for ps generation:    5.00000

xc_check: Exchange-correlation functional:
xc_check: GGA Perdew, Burke & Ernzerhof 1996
V l=0 = -2*Zval/r beyond r=  1.2889
V l=1 = -2*Zval/r beyond r=  1.2889
V l=2 = -2*Zval/r beyond r=  3.4178
V l=3 = -2*Zval/r beyond r=  2.4084
All V_l potentials equal beyond r=  3.3753
This should be close to max(r_c) in ps generation
All pots = -2*Zval/r beyond r=  3.4178

VLOCAL1: 99.0% of the norm of Vloc inside      3.810 Ry
VLOCAL1: 99.9% of the norm of Vloc inside      8.683 Ry
atom: Maximum radius for 4*pi*r*r*local-pseudopot. charge    4.02088
atom: Maximum radius for r*vlocal+2*Zval:    3.54838
GHOST: No ghost state for L =  0
GHOST: No ghost state for L =  1
GHOST: No ghost state for L =  2
GHOST: No ghost state for L =  3

KBgen: Kleinman-Bylander projectors: 
   l= 0   rc=  3.417763   el= -1.365098   Ekb= -4.433130   kbcos= -0.707855
   l= 1   rc=  3.375302   el= -0.521201   Ekb=-13.264039   kbcos= -0.535594
   l= 2   rc=  3.872880   el=  0.001991   Ekb= -0.641094   kbcos= -0.062456
   l= 3   rc=  3.970931   el=  0.003093   Ekb= -0.474517   kbcos= -0.018236

KBgen: Total number of Kleinman-Bylander projectors:   16
atom: -------------------------------------------------------------------------

atom: SANKEY-TYPE ORBITALS:
atom: Selected multiple-zeta basis: split     

SPLIT: Orbitals with angular momentum L= 0

SPLIT: Basis orbitals for state 2s

SPLIT: PAO cut-off radius determined from an
SPLIT: energy shift=  0.002000 Ry

   izeta = 1
                 lambda =    1.000000
                     rc =    4.730425
                 energy =   -1.363399
                kinetic =    1.245246
    potential(screened) =   -2.608645
       potential(ionic) =   -8.121105

   izeta = 2
                 rmatch =    2.531849
              splitnorm =    0.280000
                 energy =   -0.959908
                kinetic =    2.409435
    potential(screened) =   -3.369343
       potential(ionic) =   -9.427975

SPLIT: Orbitals with angular momentum L= 1

SPLIT: Basis orbitals for state 2p

SPLIT: PAO cut-off radius determined from an
SPLIT: energy shift=  0.002000 Ry

   izeta = 1
                 lambda =    1.000000
                     rc =    5.924108
                 energy =   -0.519262
                kinetic =    3.672940
    potential(screened) =   -4.192202
       potential(ionic) =   -9.518354

   izeta = 2
                 rmatch =    2.531849
              splitnorm =    0.280000
                 energy =   -0.104258
                kinetic =    6.807538
    potential(screened) =   -6.911796
       potential(ionic) =  -13.149920

POLgen: Perturbative polarization orbital with L=  2

POLgen: Polarization orbital for state 2p

   izeta = 1
                     rc =    5.924108
                 energy =    1.427508
                kinetic =    2.872379
    potential(screened) =   -1.444871
       potential(ionic) =   -5.563644
atom: Total number of Sankey-type orbitals: 13

atm_pop: Valence configuration (for local Pseudopot. screening):
 2s( 2.00)                                                            
 2p( 3.00)                                                            
Vna: chval, zval:    5.00000   5.00000

Vna:  Cut-off radius for the neutral-atom potential:   5.924108

atom: _________________________________________________________________________

<basis_specs>
===============================================================================
Si                   Z=  14    Mass=  28.090        Charge= 0.17977+309
Lmxo=1 Lmxkb= 3    BasisType=split      Semic=F
L=0  Nsemic=0  Cnfigmx=3
          i=1  nzeta=2  polorb=0  (3s)
            splnorm:   0.28000    
               vcte:    0.0000    
               rinn:    0.0000    
               qcoe:    0.0000    
               qyuk:    0.0000    
               qwid:   0.10000E-01
                rcs:    0.0000      0.0000    
            lambdas:    1.0000      1.0000    
L=1  Nsemic=0  Cnfigmx=3
          i=1  nzeta=2  polorb=1  (3p)
            splnorm:   0.28000    
               vcte:    0.0000    
               rinn:    0.0000    
               qcoe:    0.0000    
               qyuk:    0.0000    
               qwid:   0.10000E-01
                rcs:    0.0000      0.0000    
            lambdas:    1.0000      1.0000    
-------------------------------------------------------------------------------
L=0  Nkbl=1  erefs: 0.17977+309
L=1  Nkbl=1  erefs: 0.17977+309
L=2  Nkbl=1  erefs: 0.17977+309
L=3  Nkbl=1  erefs: 0.17977+309
===============================================================================
</basis_specs>

atom: Called for Si                    (Z =  14)

read_vps: Pseudopotential generation method:
read_vps: ATM4.2.7  Troullier-Martins                       
Valence charge for ps generation:    4.00000

xc_check: Exchange-correlation functional:
xc_check: GGA Perdew, Burke & Ernzerhof 1996
V l=0 = -2*Zval/r beyond r=  2.7826
V l=1 = -2*Zval/r beyond r=  2.7826
V l=2 = -2*Zval/r beyond r=  2.9253
V l=3 = -2*Zval/r beyond r=  2.7826
All V_l potentials equal beyond r=  2.8530
This should be close to max(r_c) in ps generation
All pots = -2*Zval/r beyond r=  2.9253

VLOCAL1: 99.0% of the norm of Vloc inside      5.333 Ry
VLOCAL1: 99.9% of the norm of Vloc inside     12.154 Ry
atom: Maximum radius for 4*pi*r*r*local-pseudopot. charge    3.39869
atom: Maximum radius for r*vlocal+2*Zval:    2.96205
GHOST: No ghost state for L =  0
GHOST: No ghost state for L =  1
GHOST: No ghost state for L =  2
GHOST: No ghost state for L =  3

KBgen: Kleinman-Bylander projectors: 
   l= 0   rc=  3.075247   el= -0.794092   Ekb=  5.879390   kbcos=  0.167461
   l= 1   rc=  3.153101   el= -0.300068   Ekb=  2.642817   kbcos=  0.058301
   l= 2   rc=  3.273594   el=  0.001958   Ekb= -1.185135   kbcos= -0.104411
   l= 3   rc=  3.232927   el=  0.003046   Ekb= -0.497174   kbcos= -0.015889

KBgen: Total number of Kleinman-Bylander projectors:   16
atom: -------------------------------------------------------------------------

atom: SANKEY-TYPE ORBITALS:
atom: Selected multiple-zeta basis: split     

SPLIT: Orbitals with angular momentum L= 0

SPLIT: Basis orbitals for state 3s

SPLIT: PAO cut-off radius determined from an
SPLIT: energy shift=  0.002000 Ry

   izeta = 1
                 lambda =    1.000000
                     rc =    6.429618
                 energy =   -0.792283
                kinetic =    0.525293
    potential(screened) =   -1.317576
       potential(ionic) =   -3.744923

   izeta = 2
                 rmatch =    3.998416
              splitnorm =    0.280000
                 energy =   -0.583081
                kinetic =    1.069570
    potential(screened) =   -1.652651
       potential(ionic) =   -4.235185

SPLIT: Orbitals with angular momentum L= 1

SPLIT: Basis orbitals for state 3p

SPLIT: PAO cut-off radius determined from an
SPLIT: energy shift=  0.002000 Ry

   izeta = 1
                 lambda =    1.000000
                     rc =    8.464845
                 energy =   -0.298236
                kinetic =    0.785360
    potential(screened) =   -1.083596
       potential(ionic) =   -3.273779

   izeta = 2
                 rmatch =    4.587816
              splitnorm =    0.280000
                 energy =   -0.131871
                kinetic =    1.403687
    potential(screened) =   -1.535557
       potential(ionic) =   -4.015310

POLgen: Perturbative polarization orbital with L=  2

POLgen: Polarization orbital for state 3p

   izeta = 1
                     rc =    8.464845
                 energy =    0.321949
                kinetic =    1.055677
    potential(screened) =   -0.733728
       potential(ionic) =   -2.672950
atom: Total number of Sankey-type orbitals: 13

atm_pop: Valence configuration (for local Pseudopot. screening):
 3s( 2.00)                                                            
 3p( 2.00)                                                            
Vna: chval, zval:    4.00000   4.00000

Vna:  Cut-off radius for the neutral-atom potential:   8.464845

atom: _________________________________________________________________________

<basis_specs>
===============================================================================
O                    Z=   8    Mass=  16.000        Charge= 0.17977+309
Lmxo=1 Lmxkb= 3    BasisType=split      Semic=F
L=0  Nsemic=0  Cnfigmx=2
          i=1  nzeta=2  polorb=0  (2s)
            splnorm:   0.28000    
               vcte:    0.0000    
               rinn:    0.0000    
               qcoe:    0.0000    
               qyuk:    0.0000    
               qwid:   0.10000E-01
                rcs:    0.0000      0.0000    
            lambdas:    1.0000      1.0000    
L=1  Nsemic=0  Cnfigmx=2
          i=1  nzeta=2  polorb=1  (2p)
            splnorm:   0.28000    
               vcte:    0.0000    
               rinn:    0.0000    
               qcoe:    0.0000    
               qyuk:    0.0000    
               qwid:   0.10000E-01
                rcs:    0.0000      0.0000    
            lambdas:    1.0000      1.0000    
-------------------------------------------------------------------------------
L=0  Nkbl=1  erefs: 0.17977+309
L=1  Nkbl=1  erefs: 0.17977+309
L=2  Nkbl=1  erefs: 0.17977+309
L=3  Nkbl=1  erefs: 0.17977+309
===============================================================================
</basis_specs>

atom: Called for O                     (Z =   8)

read_vps: Pseudopotential generation method:
read_vps: ATM4.2.7  Troullier-Martins                       
Valence charge for ps generation:    6.00000

xc_check: Exchange-correlation functional:
xc_check: GGA Perdew, Burke & Ernzerhof 1996
V l=0 = -2*Zval/r beyond r=  1.1000
V l=1 = -2*Zval/r beyond r=  1.1000
V l=2 = -2*Zval/r beyond r=  2.2154
V l=3 = -2*Zval/r beyond r=  1.1000
All V_l potentials equal beyond r=  2.2154
This should be close to max(r_c) in ps generation
All pots = -2*Zval/r beyond r=  2.2154

VLOCAL1: 99.0% of the norm of Vloc inside      8.845 Ry
VLOCAL1: 99.9% of the norm of Vloc inside     20.157 Ry
atom: Maximum radius for 4*pi*r*r*local-pseudopot. charge    2.67231
atom: Maximum radius for r*vlocal+2*Zval:    2.32897
GHOST: No ghost state for L =  0
GHOST: No ghost state for L =  1
GHOST: No ghost state for L =  2
GHOST: No ghost state for L =  3

KBgen: Kleinman-Bylander projectors: 
   l= 0   rc=  2.243238   el= -1.759686   Ekb=**********   kbcos= -0.171774
   l= 1   rc=  2.328968   el= -0.663873   Ekb=-14.506792   kbcos= -0.519897
   l= 2   rc=  2.573941   el=  0.002031   Ekb= -1.137373   kbcos= -0.019581
   l= 3   rc=  2.606321   el=  0.003153   Ekb= -1.013546   kbcos= -0.003122

KBgen: Total number of Kleinman-Bylander projectors:   16
atom: -------------------------------------------------------------------------

atom: SANKEY-TYPE ORBITALS:
atom: Selected multiple-zeta basis: split     

SPLIT: Orbitals with angular momentum L= 0

SPLIT: Basis orbitals for state 2s

SPLIT: PAO cut-off radius determined from an
SPLIT: energy shift=  0.002000 Ry

   izeta = 1
                 lambda =    1.000000
                     rc =    4.243912
                 energy =   -1.758270
                kinetic =    3.286084
    potential(screened) =   -5.044353
       potential(ionic) =  -12.921184

   izeta = 2
                 rmatch =    2.187845
              splitnorm =    0.280000
                 energy =   -0.885018
                kinetic =    8.134434
    potential(screened) =   -9.019452
       potential(ionic) =  -17.710645

SPLIT: Orbitals with angular momentum L= 1

SPLIT: Basis orbitals for state 2p

SPLIT: PAO cut-off radius determined from an
SPLIT: energy shift=  0.002000 Ry

   izeta = 1
                 lambda =    1.000000
                     rc =    5.314825
                 energy =   -0.661986
                kinetic =    4.917472
    potential(screened) =   -5.579458
       potential(ionic) =  -13.236259

   izeta = 2
                 rmatch =    2.160663
              splitnorm =    0.280000
                 energy =   -0.068760
                kinetic =    9.183374
    potential(screened) =   -9.252135
       potential(ionic) =  -18.274251

POLgen: Perturbative polarization orbital with L=  2

POLgen: Polarization orbital for state 2p

   izeta = 1
                     rc =    5.314825
                 energy =    1.970580
                kinetic =    3.886128
    potential(screened) =   -1.915547
       potential(ionic) =   -7.749584
atom: Total number of Sankey-type orbitals: 13

atm_pop: Valence configuration (for local Pseudopot. screening):
 2s( 2.00)                                                            
 2p( 4.00)                                                            
Vna: chval, zval:    6.00000   6.00000

Vna:  Cut-off radius for the neutral-atom potential:   5.314825

atom: _________________________________________________________________________

prinput: Basis input ----------------------------------------------------------

PAO.BasisType split     

%block ChemicalSpeciesLabel
    1    1 H                       # Species index, atomic number, species label
    2    7 N                       # Species index, atomic number, species label
    3   14 Si                      # Species index, atomic number, species label
    4    8 O                       # Species index, atomic number, species label
%endblock ChemicalSpeciesLabel

%block PAO.Basis                 # Define Basis set
H                     1                    # Species label, number of l-shells
 n=1   0   2 P   1                   # n, l, Nzeta, Polarization, NzetaPol
   6.518      2.141   
   1.000      1.000   
N                     2                    # Species label, number of l-shells
 n=2   0   2                         # n, l, Nzeta 
   4.730      2.532   
   1.000      1.000   
 n=2   1   2 P   1                   # n, l, Nzeta, Polarization, NzetaPol
   5.924      2.532   
   1.000      1.000   
Si                    2                    # Species label, number of l-shells
 n=3   0   2                         # n, l, Nzeta 
   6.430      3.998   
   1.000      1.000   
 n=3   1   2 P   1                   # n, l, Nzeta, Polarization, NzetaPol
   8.465      4.588   
   1.000      1.000   
O                     2                    # Species label, number of l-shells
 n=2   0   2                         # n, l, Nzeta 
   4.244      2.188   
   1.000      1.000   
 n=2   1   2 P   1                   # n, l, Nzeta, Polarization, NzetaPol
   5.315      2.161   
   1.000      1.000   
%endblock PAO.Basis

prinput: ----------------------------------------------------------------------

Dumping basis to NetCDF file H.ion.nc
Dumping basis to NetCDF file N.ion.nc
Dumping basis to NetCDF file Si.ion.nc
Dumping basis to NetCDF file O.ion.nc
coor:   Atomic-coordinates input format  =     Cartesian coordinates
coor:                                          (in Angstroms)

siesta: Atomic coordinates (Bohr) and species
siesta:      4.87999 -10.91663   0.00000  1        1
siesta:      3.12704  -9.95765   0.00000  2        2
siesta:      0.11930 -11.53056   0.00000  3        3
siesta:      0.22530 -14.35597   0.00000  1        4
siesta:     -2.60195  -9.79371   0.00000  2        5
siesta:     -1.55784  -6.54009   0.00000  3        6
siesta:     -2.21206  -2.39996   0.00000  3        7
siesta:     -5.11537  -0.78899   0.00000  2        8
siesta:     -5.20538   1.19971   0.00000  1        9
siesta:     -6.87421  -1.71959   0.00000  1       10
siesta:      0.41213  -0.44256   0.00000  2       11
siesta:      3.53758  -1.31745   0.00000  3       12
siesta:      5.34415   0.87204   0.00000  1       13
siesta:      5.00428  -4.26138   0.00000  2       14
siesta:      2.63035  -6.52849   0.00000  3       15
siesta:      3.49156  14.71267   0.00000  2       16
siesta:      0.98319  16.99963   0.00000  3       17
siesta:      2.19262  19.57215   0.00000  1       18
siesta:     -2.95830  15.73251   0.00000  3       19
siesta:     -6.79362  17.86812   0.00000  3       20
siesta:     -6.50215  20.06064   1.77692  1       21
siesta:     -8.65677  15.93697   0.96870  1       22
siesta:     -7.58015  18.76806  -2.58265  1       23
siesta:     -2.83264  11.43531   0.00000  3       24
siesta:     -4.79616   9.18076   0.00000  4       25
siesta:      0.29862  10.23727   0.00000  2       26
siesta:      0.26457   8.22954   0.00000  1       27
siesta:      3.36679  11.36557   0.00000  3       28
siesta:      5.62504   9.44859   0.00000  4       29
siesta:      5.38136  15.36559   0.00000  1       30

siesta: Automatic unit cell vectors (Ang):
siesta:   15.868417    0.000000    0.000000
siesta:    0.000000   27.622308    0.000000
siesta:    0.000000    0.000000   10.224979

siesta: System type = molecule  

initatomlists: Number of atoms, orbitals, and projectors:     30   302   403

siesta: ******************** Simulation parameters ****************************
siesta:
siesta: The following are some of the parameters of the simulation.
siesta: A complete list of the parameters used, including default values,
siesta: can be found in file out.fdf
siesta:
redata: Spin configuration                          = spin-orbit
redata: Number of spin components                   = 8
redata: Time-Reversal Symmetry                      = F
redata: Spin spiral                                 = F
############################################################
This spin-orbit implementation uses a local approximation.
From 4.2 and onwards the full non-local approximation is implemented
You are strongly advised to use >=4.2 versions!
############################################################
redata: Long output                                 =   F
redata: Number of Atomic Species                    =        4
redata: Charge density info will appear in .RHO file
redata: Write Mulliken Pop.                         = Atomic and Orbital charges
redata: Matel table size (NRTAB)                    =     1024
redata: Mesh Cutoff                                 =   340.0000 Ry
redata: Net charge of the system                    =     0.0000 |e|
redata: Min. number of SCF Iter                     =        1
redata: Max. number of SCF Iter                     =      200
redata: SCF mix quantity                            = Hamiltonian
redata: Mix DM or H after convergence               =   F
redata: Recompute H after scf cycle                 =   F
redata: Mix DM in first SCF step                    =   T
redata: Write Pulay info on disk                    =   F
redata: New DM Occupancy tolerance                  = 0.000000000001
redata: No kicks to SCF
redata: DM Mixing Weight for Kicks                  =     0.5000
redata: Require Harris convergence for SCF          =   F
redata: Harris energy tolerance for SCF             =     0.000100 eV
redata: Require DM convergence for SCF              =   T
redata: DM tolerance for SCF                        =     0.000008
redata: Require EDM convergence for SCF             =   F
redata: EDM tolerance for SCF                       =     0.001000 eV
redata: Require H convergence for SCF               =   T
redata: Hamiltonian tolerance for SCF               =     0.000001 eV
redata: Require (free) Energy convergence for SCF   =   F
redata: (free) Energy tolerance for SCF             =     0.000100 eV
redata: Using Saved Data (generic)                  =   F
redata: Use continuation files for DM               =   F
redata: Neglect nonoverlap interactions             =   F
redata: Method of Calculation                       = Diagonalization
redata: Electronic Temperature                      =   299.9978 K
redata: Fix the spin of the system                  =   F
redata: Dynamics option                             = Single-point calculation
mix.SCF: Pulay mixing                            = Pulay
mix.SCF:    Variant                              = stable
mix.SCF:    History steps                        = 6
mix.SCF:    Linear mixing weight                 =     0.250000
mix.SCF:    Mixing weight                        =     0.250000
mix.SCF:    SVD condition                        = 0.1000E-07
mix.SCF:    Restart steps                        = 24
mix.SCF:    Restart save steps                   = 3
mix.SCF: Spin-component mixing                   all
redata: Save all siesta data in one NC              =   F
redata: ***********************************************************************

%block SCF.Mixers
  Pulay
%endblock SCF.Mixers

%block SCF.Mixer.Pulay
  # Mixing method
  method pulay
  variant stable

  # Mixing options
  weight 0.2500
  weight.linear 0.2500
  history 6
  restart 24
  restart.save 3
%endblock SCF.Mixer.Pulay

DM_history_depth set to one: no extrapolation allowed by default for geometry relaxation
Size of DM history Fstack: 1
Total number of electrons:    98.000000
Total ionic charge:    98.000000

* ProcessorY, Blocksize:    2  24


* Orbital distribution balance (max,min):    62    48


Time-reversal symmetry not used.

siesta: k-grid: Number of k-points =     1
siesta: k-grid: Cutoff (effective) =     5.112 Ang
siesta: k-grid: Supercell and displacements
siesta: k-grid:    1   0   0      0.000
siesta: k-grid:    0   1   0      0.000
siesta: k-grid:    0   0   1      0.000

diag: Algorithm                                     = ELPA-1stage
diag: Parallel over k                               =   F
diag: Use parallel 2D distribution                  =   T
diag: Parallel block-size                           = 24
diag: Parallel distribution                         =     2 x     3
diag: Used triangular part                          = Lower
diag: Absolute tolerance                            =  0.100E-15
diag: Orthogonalization factor                      =  0.100E-05
diag: Memory factor                                 =  1.0000


ts: **************************************************************
ts: Save H and S matrices                           =    F
ts: Save DM and EDM matrices                        =    F
ts: Only save the overlap matrix S                  =    F
ts: **************************************************************

************************ Begin: TS CHECKS AND WARNINGS ************************
************************ End: TS CHECKS AND WARNINGS **************************


                     ====================================
                        Single-point calculation
                     ====================================

outcoor: Atomic coordinates (Ang):                          
    2.58237765   -5.77683044    0.00000000   1       1  H
    1.65475924   -5.26936198    0.00000000   2       2  N
    0.06312884   -6.10170459    0.00000000   3       3  Si
    0.11922324   -7.59684950    0.00000000   1       4  H
   -1.37689205   -5.18260374    0.00000000   2       5  N
   -0.82437190   -3.46086644    0.00000000   3       6  Si
   -1.17057148   -1.27000210    0.00000000   3       7  Si
   -2.70693368   -0.41751578    0.00000000   2       8  N
   -2.75456966    0.63485862    0.00000000   1       9  H
   -3.63767564   -0.90996786    0.00000000   1      10  H
    0.21809179   -0.23419397    0.00000000   2      11  N
    1.87200410   -0.69716230    0.00000000   3      12  Si
    2.82800113    0.46146477    0.00000000   1      13  H
    2.64815008   -2.25502447    0.00000000   2      14  N
    1.39192138   -3.45472722    0.00000000   3      15  Si
    1.84765378    7.78560902    0.00000000   2      16  N
    0.52028226    8.99581332    0.00000000   3      17  Si
    1.16028353   10.35713156    0.00000000   1      18  H
   -1.56546368    8.32528197    0.00000000   3      19  Si
   -3.59502628    9.45539816    0.00000000   3      20  Si
   -3.44079051   10.61562837    0.94030528   1      21  H
   -4.58096100    8.43347754    0.51261370   1      22  H
   -4.01124124    9.93162401   -1.36667834   1      23  H
   -1.49896826    6.05130535    0.00000000   3      24  Si
   -2.53801699    4.85824585    0.00000000   4      25  O
    0.15802332    5.41733016    0.00000000   2      26  N
    0.14000595    4.35488533    0.00000000   1      27  H
    1.78162639    6.01440037    0.00000000   3      28  Si
    2.97664256    4.99997517    0.00000000   4      29  O
    2.84769115    8.13111612    0.00000000   1      30  H

outcell: Unit cell vectors (Ang):
       15.868417    0.000000    0.000000
        0.000000   27.622308    0.000000
        0.000000    0.000000   10.224979

outcell: Cell vector modules (Ang)   :   15.868417   27.622308   10.224979
outcell: Cell angles (23,13,12) (deg):     90.0000     90.0000     90.0000
outcell: Cell volume (Ang**3)        :   4481.8364
<dSpData1D:S at geom step 0
  <sparsity:sparsity for geom step 0
    nrows_g=302 nrows=62 sparsity=.1078 nnzs=9828, refcount: 8>
  <dData1D:(new from dSpData1D) n=9828, refcount: 1>
refcount: 1>
new_DM -- step:     1
Initializing Density Matrix...
DM filled with atomic data:
<dSpData2D:DM initialized from atoms
  <sparsity:sparsity for geom step 0
    nrows_g=302 nrows=62 sparsity=.1078 nnzs=9828, refcount: 9>
  <dData2D:DM n=9828 m=8, refcount: 1>
refcount: 1>
     spin moment: S , {S} =   56.00000   0.00000   0.00000  56.00000
No. of atoms with KB's overlaping orbs in proc 0. Max # of overlaps:      24     149

Initializing spin-orbit part of the Hamiltonian
  Adding spin-orbit effects for H 
  Adding spin-orbit effects for N 
  Adding spin-orbit effects for Si
  Adding spin-orbit effects for O 


New grid distribution:   1
           1       1:   90    1:   80    1:   20
           2       1:   90    1:   80   21:   40
           3       1:   90    1:   80   41:   60
           4       1:   90   81:  160    1:   20
           5       1:   90   81:  160   21:   40
           6       1:   90   81:  160   41:   60

InitMesh: MESH =   180 x   320 x   120 =     6912000
InitMesh: (bp) =    90 x   160 x    60 =      864000
InitMesh: Mesh cutoff (required, used) =   340.000   355.615 Ry
ExtMesh (bp) on 0 =   194 x   184 x   128 =     4569088
New grid distribution:   2
           1      14:   90   40:   59    1:   60
           2       1:   11   60:  160    1:   60
           3       1:   13    1:   59    1:   60
           4      12:   90   60:  140    1:   60
           5      14:   90    1:   39    1:   60
           6      12:   90  141:  160    1:   60
New grid distribution:   3
           1       1:   19   63:  160    1:   60
           2      22:   90   37:   62    1:   60
           3       1:   21    1:   62    1:   60
           4      20:   90   63:  130    1:   60
           5      22:   90    1:   36    1:   60
           6      20:   90  131:  160    1:   60
Setting up quadratic distribution...
ExtMesh (bp) on 0 =   181 x   124 x   168 =     3770592
PhiOnMesh: Number of (b)points on node 0 =                92400
PhiOnMesh: nlist on node 0 =              1720273

stepf: Fermi-Dirac step function

siesta: Program's energy decomposition (eV):
siesta: Ebs     =      -629.789705
siesta: Eions   =      3553.971015
siesta: Ena     =       377.805206
siesta: Ekin    =      3184.004870
siesta: Enl     =     -2998.861820
siesta: Eso     =        -0.003899
siesta: Edftu   =         0.000000
siesta: DEna    =       130.478041
siesta: DUscf   =        76.820384
siesta: DUext   =         0.000000
siesta: Exc     =     -1171.567188
siesta: eta*DQ  =         0.000000
siesta: Emadel  =         0.000000
siesta: Emeta   =         0.000000
siesta: Emolmec =         0.000000
siesta: Ekinion =         0.000000
siesta: Eharris =     -3882.219171
siesta: Etot    =     -3955.295420
siesta: FreeEng =     -3955.299629

        iscf     Eharris(eV)        E_KS(eV)     FreeEng(eV)     dDmax    Ef(eV) dHmax(eV)
   scf:    1    -3882.219171    -3955.295420    -3955.299629  0.971468 -4.940786 21.530811
     spin moment: S , {S} =    2.03178   0.00003   0.00001   2.03178
timer: Routine,Calls,Time,% = IterSCF        1       5.669  21.97
   scf:    2    -3998.193850    -3989.412061    -3989.412063  0.457152 -4.359548 10.742204
     spin moment: S , {S} =    2.00011  -0.00000   0.00004   2.00011
   scf:    3    -3979.593790    -3991.633693    -3991.670816  0.415662 -4.261820  9.351975
     spin moment: S , {S} =    1.05637   0.00002   0.00000   1.05637
   scf:    4    -4000.879256    -3997.468461    -3997.468462  0.175064 -3.958308  6.634907
     spin moment: S , {S} =    0.00010   0.00001  -0.00000   0.00010
   scf:    5    -3998.827305    -3998.223098    -3998.223098  0.037174 -3.887176  3.882800
     spin moment: S , {S} =    0.00005   0.00000  -0.00000   0.00005
   scf:    6    -3998.866749    -3998.555242    -3998.555242  0.022926 -3.891514  2.103248
     spin moment: S , {S} =    0.00003   0.00000  -0.00000   0.00003
   scf:    7    -3998.924093    -3998.732271    -3998.732271  0.023259 -3.944182  0.711704
     spin moment: S , {S} =    0.00001   0.00000  -0.00000   0.00001
   scf:    8    -3998.835642    -3998.782016    -3998.782016  0.010865 -3.981198  0.400626
     spin moment: S , {S} =    0.00000   0.00000  -0.00000   0.00000
   scf:    9    -3998.824139    -3998.802089    -3998.802090  0.006936 -3.996592  0.287738
     spin moment: S , {S} =    0.00000   0.00000  -0.00000   0.00000
   scf:   10    -3998.848467    -3998.820488    -3998.820508  0.017289 -4.015243  0.161589
     spin moment: S , {S} =    0.00004   0.00000   0.00000  -0.00004
   scf:   11    -3998.823516    -3998.821995    -3998.822020  0.004268 -4.005921  0.035691
     spin moment: S , {S} =    0.00000   0.00000   0.00000  -0.00000
   scf:   12    -3998.822584    -3998.822286    -3998.822314  0.001468 -4.004653  0.025801
     spin moment: S , {S} =    0.00000   0.00000   0.00000   0.00000
   scf:   13    -3998.822638    -3998.822456    -3998.822484  0.001254 -4.003287  0.019306
     spin moment: S , {S} =    0.00000   0.00000   0.00000   0.00000
   scf:   14    -3998.822738    -3998.822587    -3998.822617  0.001414 -4.002555  0.015128
     spin moment: S , {S} =    0.00000   0.00000   0.00000   0.00000
   scf:   15    -3998.822762    -3998.822666    -3998.822696  0.001323 -4.002161  0.010179
     spin moment: S , {S} =    0.00000   0.00000   0.00000  -0.00000
   scf:   16    -3998.822754    -3998.822705    -3998.822734  0.001000 -4.002160  0.006174
     spin moment: S , {S} =    0.00000   0.00000   0.00000  -0.00000
   scf:   17    -3998.822750    -3998.822724    -3998.822753  0.000900 -4.002241  0.003638
     spin moment: S , {S} =    0.00000   0.00000   0.00000  -0.00000
   scf:   18    -3998.822733    -3998.822728    -3998.822757  0.000424 -4.002325  0.001852
     spin moment: S , {S} =    0.00000   0.00000   0.00000  -0.00000
   scf:   19    -3998.822730    -3998.822729    -3998.822758  0.000250 -4.002322  0.000827
     spin moment: S , {S} =    0.00000   0.00000   0.00000  -0.00000
   scf:   20    -3998.822729    -3998.822729    -3998.822758  0.000064 -4.002325  0.000568
     spin moment: S , {S} =    0.00000   0.00000   0.00000  -0.00000
   scf:   21    -3998.822729    -3998.822729    -3998.822758  0.000059 -4.002327  0.000270
     spin moment: S , {S} =    0.00000   0.00000   0.00000  -0.00000
   scf:   22    -3998.822729    -3998.822729    -3998.822758  0.000042 -4.002338  0.000163
     spin moment: S , {S} =    0.00000   0.00000   0.00000  -0.00000
   scf:   23    -3998.822729    -3998.822729    -3998.822758  0.000010 -4.002344  0.000123
     spin moment: S , {S} =    0.00000   0.00000   0.00000  -0.00000
   scf:   24    -3998.822729    -3998.822729    -3998.822758  0.000006 -4.002346  0.000099
     spin moment: S , {S} =    0.00000   0.00000   0.00000  -0.00000
mix: Pulay -- resetting history
   scf:   25    -3998.822729    -3998.822729    -3998.822758  0.000010 -4.002345  0.000049
     spin moment: S , {S} =    0.00000   0.00000   0.00000  -0.00000
   scf:   26    -3998.822729    -3998.822729    -3998.822758  0.000005 -4.002343  0.000017
     spin moment: S , {S} =    0.00000   0.00000   0.00000  -0.00000
   scf:   27    -3998.822729    -3998.822729    -3998.822758  0.000002 -4.002343  0.000008
     spin moment: S , {S} =    0.00000   0.00000   0.00000  -0.00000
   scf:   28    -3998.822729    -3998.822729    -3998.822758  0.000001 -4.002343  0.000005
     spin moment: S , {S} =    0.00000   0.00000   0.00000  -0.00000
   scf:   29    -3998.822729    -3998.822729    -3998.822758  0.000001 -4.002343  0.000003
     spin moment: S , {S} =    0.00000   0.00000   0.00000   0.00000
   scf:   30    -3998.822729    -3998.822729    -3998.822758  0.000000 -4.002343  0.000002
     spin moment: S , {S} =    0.00000  -0.00000  -0.00000   0.00000
   scf:   31    -3998.822729    -3998.822729    -3998.822758  0.000000 -4.002343  0.000002
     spin moment: S , {S} =    0.00000  -0.00000  -0.00000   0.00000
   scf:   32    -3998.822729    -3998.822729    -3998.822758  0.000000 -4.002343  0.000001
     spin moment: S , {S} =    0.00000  -0.00000  -0.00000   0.00000

SCF Convergence by DM+H criterion
max |DM_out - DM_in|         :     0.0000001816
max |H_out - H_in|      (eV) :     0.0000008215
SCF cycle converged after 32 iterations

Using DM_out to compute the final energy and forces
No. of atoms with KB's overlaping orbs in proc 0. Max # of overlaps:      24     149

siesta: E_KS(eV) =            -3998.8227

siesta: E_KS - E_eggbox =     -3998.8227
     spin moment: S , {S} =    0.00000  -0.00000  -0.00000   0.00000

siesta: Atomic forces (eV/Ang):
     1   -0.075681    0.000706    0.000002
     2   -0.014165   -0.049611   -0.000002
     3   -0.002665    0.041606    0.000004
     4   -0.057749   -0.011990    0.000001
     5    0.016119   -0.038377   -0.000003
     6    0.027129    0.004978   -0.000000
     7   -0.086974    0.113471    0.000008
     8    0.060951   -0.054024   -0.000030
     9    0.021326   -0.034136    0.000045
    10    0.089096    0.044162    0.000006
    11   -0.034359   -0.023857   -0.000010
    12    0.055299    0.066211    0.000000
    13   -0.084495   -0.125248   -0.000000
    14   -0.021243   -0.119745    0.000000
    15   -0.000416    0.065829   -0.000000
    16   -0.003566    0.110783    0.008011
    17   -0.004929   -0.046374   -0.039766
    18   -0.218077    0.079182    0.008251
    19    0.002158    0.028372   -0.041170
    20    0.043253   -0.051596    0.027697
    21    0.017025    0.230678   -0.065542
    22   -0.029505    0.135947    0.025149
    23    0.017592    0.025256   -0.052898
    24    0.053085   -0.115169   -0.026637
    25   -4.080104   -2.771380    0.003017
    26   -0.044792    0.068022    0.006538
    27    0.024118   -0.105346    0.002791
    28   -0.006091   -0.123468   -0.000873
    29    3.606236    1.426379   -0.001104
    30   -0.016231    0.115595    0.008275
----------------------------------------
   Tot   -0.747655   -1.113140   -0.138240
----------------------------------------
   Max    4.080104
   Res    0.664133    sqrt( Sum f_i^2 / 3N )
----------------------------------------
   Max    4.080104    constrained

Stress tensor Voigt[x,y,z,yz,xz,xy] (kbar):       -1.72       -0.46       -0.22       -0.04        0.05        0.30
(Free)E + p*V (eV/cell)    -3996.5781
Target enthalpy (eV/cell)    -3998.8228

mulliken: Atomic and Orbital Populations:

Species: H                   

Atom      Orb        Charge      Spin       Svec
----------------------------------------------------------------
    1  1 1s         0.50879   0.00000     -0.000  -0.000  -0.000
    1  2 1s         0.18808   0.00000     -0.000  -0.000   0.000
    1  3 2Ppy       0.02793   0.00000     -0.000  -0.000  -0.000
    1  4 2Ppz       0.03997   0.00000     -0.000  -0.000  -0.000
    1  5 2Ppx       0.02506   0.00000      0.000   0.000   0.000
    1     Total     0.78983   0.00000     -0.000  -0.000  -0.000

    4  1 1s         1.02395   0.00000     -0.000   0.000  -0.000
    4  2 1s         0.09513   0.00000      0.000  -0.000   0.000
    4  3 2Ppy       0.03904   0.00000      0.000  -0.000   0.000
    4  4 2Ppz       0.01990   0.00000      0.000   0.000   0.000
    4  5 2Ppx       0.01356   0.00000     -0.000  -0.000  -0.000
    4     Total     1.19158   0.00000     -0.000   0.000  -0.000

    9  1 1s         0.47653   0.00000      0.000   0.000  -0.000
    9  2 1s         0.19557   0.00000     -0.000  -0.000   0.000
    9  3 2Ppy       0.02337   0.00000      0.000   0.000  -0.000
    9  4 2Ppz       0.04842   0.00000     -0.000  -0.000  -0.000
    9  5 2Ppx       0.01215   0.00000      0.000  -0.000  -0.000
    9     Total     0.75604   0.00000      0.000   0.000  -0.000

   10  1 1s         0.48196   0.00000     -0.000   0.000  -0.000
   10  2 1s         0.19603   0.00000      0.000  -0.000  -0.000
   10  3 2Ppy       0.00688   0.00000      0.000  -0.000   0.000
   10  4 2Ppz       0.05298   0.00000     -0.000  -0.000   0.000
   10  5 2Ppx       0.02899   0.00000     -0.000   0.000  -0.000
   10     Total     0.76684   0.00000     -0.000  -0.000  -0.000

   13  1 1s         1.01133   0.00000      0.000   0.000  -0.000
   13  2 1s         0.09956   0.00000     -0.000  -0.000   0.000
   13  3 2Ppy       0.02505   0.00000     -0.000  -0.000   0.000
   13  4 2Ppz       0.01435   0.00000      0.000  -0.000  -0.000
   13  5 2Ppx       0.01757   0.00000     -0.000  -0.000   0.000
   13     Total     1.16787   0.00000      0.000   0.000  -0.000

   18  1 1s         1.05005   0.00000     -0.000  -0.000  -0.000
   18  2 1s         0.08402   0.00000      0.000   0.000   0.000
   18  3 2Ppy       0.02779   0.00000     -0.000   0.000   0.000
   18  4 2Ppz       0.01891   0.00000     -0.000  -0.000  -0.000
   18  5 2Ppx       0.01767   0.00000     -0.000  -0.000   0.000
   18     Total     1.19844   0.00000     -0.000  -0.000  -0.000

   21  1 1s         1.06626   0.00000     -0.000  -0.000  -0.000
   21  2 1s         0.08299   0.00000     -0.000   0.000   0.000
   21  3 2Ppy       0.02228   0.00000     -0.000   0.000   0.000
   21  4 2Ppz       0.02108   0.00000     -0.000   0.000   0.000
   21  5 2Ppx       0.01159   0.00000     -0.000   0.000  -0.000
   21     Total     1.20420   0.00000     -0.000  -0.000  -0.000

   22  1 1s         1.05227   0.00000     -0.000  -0.000  -0.000
   22  2 1s         0.08350   0.00000      0.000   0.000   0.000
   22  3 2Ppy       0.02012   0.00000      0.000   0.000   0.000
   22  4 2Ppz       0.01768   0.00000      0.000  -0.000  -0.000
   22  5 2Ppx       0.01709   0.00000     -0.000  -0.000   0.000
   22     Total     1.19066   0.00000     -0.000  -0.000  -0.000

   23  1 1s         1.06500   0.00000      0.000  -0.000  -0.000
   23  2 1s         0.08209   0.00000     -0.000   0.000   0.000
   23  3 2Ppy       0.01684   0.00000     -0.000   0.000  -0.000
   23  4 2Ppz       0.02462   0.00000     -0.000  -0.000   0.000
   23  5 2Ppx       0.01349   0.00000     -0.000  -0.000  -0.000
   23     Total     1.20204   0.00000      0.000  -0.000  -0.000

   27  1 1s         0.46300   0.00000     -0.000   0.000  -0.000
   27  2 1s         0.19058   0.00000      0.000  -0.000  -0.000
   27  3 2Ppy       0.02053   0.00000     -0.000  -0.000  -0.000
   27  4 2Ppz       0.02534   0.00000      0.000  -0.000   0.000
   27  5 2Ppx       0.02917   0.00000      0.000  -0.000   0.000
   27     Total     0.72862   0.00000     -0.000   0.000  -0.000

   30  1 1s         0.48354   0.00000     -0.000  -0.000  -0.000
   30  2 1s         0.18899   0.00000      0.000   0.000   0.000
   30  3 2Ppy       0.02653   0.00000      0.000  -0.000  -0.000
   30  4 2Ppz       0.03451   0.00000      0.000  -0.000   0.000
   30  5 2Ppx       0.02315   0.00000      0.000   0.000   0.000
   30     Total     0.75673   0.00000     -0.000  -0.000  -0.000

----------------------------------------------------------------
Total              10.95285   0.00000     -0.000  -0.000  -0.000


Species: N                   

Atom      Orb        Charge      Spin       Svec
----------------------------------------------------------------
    2  1 2s         1.38099   0.00000      0.000   0.000  -0.000
    2  2 2s         0.12664   0.00000     -0.000  -0.000   0.000
    2  3 2py        1.06829   0.00000      0.000  -0.000  -0.000
    2  4 2pz        1.49537   0.00000      0.000  -0.000  -0.000
    2  5 2px        1.01713   0.00000     -0.000  -0.000  -0.000
    2  6 2py        0.19600   0.00000     -0.000   0.000   0.000
    2  7 2pz        0.01428   0.00000     -0.000   0.000   0.000
    2  8 2px        0.21009   0.00000      0.000   0.000   0.000
    2  9 3Pdxy      0.00673   0.00000      0.000  -0.000   0.000
    2 10 3Pdyz      0.00607   0.00000     -0.000  -0.000   0.000
    2 11 3Pdz2      0.00151   0.00000     -0.000   0.000   0.000
    2 12 3Pdxz      0.00304   0.00000     -0.000  -0.000   0.000
    2 13 3Pdx2-y2   0.00297   0.00000     -0.000  -0.000  -0.000
    2     Total     5.52911   0.00000      0.000  -0.000  -0.000

    5  1 2s         1.55816   0.00000     -0.000   0.000  -0.000
    5  2 2s         0.08112   0.00000      0.000  -0.000  -0.000
    5  3 2py        0.90458   0.00000     -0.000  -0.000  -0.000
    5  4 2pz        1.22243   0.00000      0.000   0.000  -0.000
    5  5 2px        1.14197   0.00000      0.000   0.000  -0.000
    5  6 2py        0.23014   0.00000      0.000   0.000   0.000
    5  7 2pz        0.05521   0.00000     -0.000  -0.000   0.000
    5  8 2px        0.14624   0.00000     -0.000   0.000   0.000
    5  9 3Pdxy      0.00854   0.00000      0.000   0.000  -0.000
    5 10 3Pdyz      0.00701   0.00000      0.000  -0.000   0.000
    5 11 3Pdz2      0.00189   0.00000      0.000   0.000   0.000
    5 12 3Pdxz      0.01129   0.00000      0.000   0.000   0.000
    5 13 3Pdx2-y2   0.00920   0.00000     -0.000  -0.000   0.000
    5     Total     5.37777   0.00000      0.000   0.000  -0.000

    8  1 2s         1.28495   0.00000     -0.000   0.000  -0.000
    8  2 2s         0.17151   0.00000      0.000  -0.000   0.000
    8  3 2py        1.06399   0.00000      0.000   0.000  -0.000
    8  4 2pz        1.57073   0.00000      0.000  -0.000  -0.000
    8  5 2px        1.00428   0.00000      0.000   0.000  -0.000
    8  6 2py        0.19444   0.00000     -0.000   0.000   0.000
    8  7 2pz        0.02730   0.00000     -0.000   0.000  -0.000
    8  8 2px        0.22861   0.00000     -0.000  -0.000   0.000
    8  9 3Pdxy      0.00271   0.00000      0.000  -0.000  -0.000
    8 10 3Pdyz      0.00083   0.00000      0.000   0.000  -0.000
    8 11 3Pdz2      0.00272   0.00000     -0.000   0.000   0.000
    8 12 3Pdxz      0.00243   0.00000      0.000  -0.000  -0.000
    8 13 3Pdx2-y2   0.00432   0.00000     -0.000   0.000  -0.000
    8     Total     5.55882   0.00000      0.000  -0.000  -0.000

   11  1 2s         1.45819   0.00000      0.000  -0.000   0.000
   11  2 2s         0.11417   0.00000     -0.000   0.000   0.000
   11  3 2py        1.22491   0.00000      0.000   0.000   0.000
   11  4 2pz        1.28855   0.00000     -0.000  -0.000   0.000
   11  5 2px        0.80002   0.00000     -0.000  -0.000   0.000
   11  6 2py        0.11088   0.00000     -0.000  -0.000  -0.000
   11  7 2pz        0.04597   0.00000      0.000   0.000  -0.000
   11  8 2px        0.31743   0.00000      0.000   0.000  -0.000
   11  9 3Pdxy      0.00736   0.00000      0.000   0.000   0.000
   11 10 3Pdyz      0.00605   0.00000      0.000  -0.000   0.000
   11 11 3Pdz2      0.00054   0.00000     -0.000  -0.000  -0.000
   11 12 3Pdxz      0.00496   0.00000      0.000   0.000  -0.000
   11 13 3Pdx2-y2   0.00520   0.00000     -0.000   0.000   0.000
   11     Total     5.38424   0.00000      0.000  -0.000   0.000

   14  1 2s         1.50650   0.00000      0.000   0.000   0.000
   14  2 2s         0.10229   0.00000     -0.000  -0.000   0.000
   14  3 2py        0.84433   0.00000      0.000  -0.000   0.000
   14  4 2pz        1.23728   0.00000      0.000   0.000   0.000
   14  5 2px        1.17701   0.00000     -0.000   0.000  -0.000
   14  6 2py        0.27737   0.00000      0.000   0.000  -0.000
   14  7 2pz        0.05438   0.00000     -0.000  -0.000   0.000
   14  8 2px        0.13207   0.00000      0.000   0.000   0.000
   14  9 3Pdxy      0.00949   0.00000     -0.000  -0.000   0.000
   14 10 3Pdyz      0.00490   0.00000      0.000   0.000  -0.000
   14 11 3Pdz2      0.00147   0.00000      0.000   0.000   0.000
   14 12 3Pdxz      0.01066   0.00000     -0.000  -0.000  -0.000
   14 13 3Pdx2-y2   0.00791   0.00000     -0.000  -0.000   0.000
   14     Total     5.36568   0.00000      0.000   0.000   0.000

   16  1 2s         1.37889   0.00000     -0.000  -0.000  -0.000
   16  2 2s         0.12577   0.00000      0.000  -0.000   0.000
   16  3 2py        0.99152   0.00000      0.000  -0.000  -0.000
   16  4 2pz        1.54745   0.00000     -0.000  -0.000  -0.000
   16  5 2px        1.08030   0.00000      0.000   0.000  -0.000
   16  6 2py        0.23939   0.00000     -0.000  -0.000  -0.000
   16  7 2pz        0.00322   0.00000      0.000  -0.000  -0.000
   16  8 2px        0.18048   0.00000      0.000  -0.000   0.000
   16  9 3Pdxy      0.00153   0.00000     -0.000  -0.000   0.000
   16 10 3Pdyz      0.00476   0.00000      0.000   0.000  -0.000
   16 11 3Pdz2      0.00088   0.00000     -0.000  -0.000   0.000
   16 12 3Pdxz      0.00237   0.00000      0.000   0.000  -0.000
   16 13 3Pdx2-y2   0.00610   0.00000      0.000   0.000  -0.000
   16     Total     5.56267   0.00000      0.000  -0.000  -0.000

   26  1 2s         1.37305   0.00000      0.000  -0.000  -0.000
   26  2 2s         0.12540   0.00000     -0.000   0.000  -0.000
   26  3 2py        1.11363   0.00000     -0.000  -0.000  -0.000
   26  4 2pz        1.53032   0.00000      0.000  -0.000  -0.000
   26  5 2px        0.94614   0.00000      0.000   0.000  -0.000
   26  6 2py        0.16907   0.00000      0.000   0.000   0.000
   26  7 2pz        0.00498   0.00000     -0.000  -0.000  -0.000
   26  8 2px        0.26518   0.00000     -0.000   0.000  -0.000
   26  9 3Pdxy      0.00064   0.00000     -0.000  -0.000  -0.000
   26 10 3Pdyz      0.00080   0.00000     -0.000  -0.000   0.000
   26 11 3Pdz2     -0.00128   0.00000     -0.000  -0.000  -0.000
   26 12 3Pdxz      0.00469   0.00000      0.000   0.000  -0.000
   26 13 3Pdx2-y2   0.00217   0.00000      0.000  -0.000   0.000
   26     Total     5.53479   0.00000      0.000  -0.000  -0.000

----------------------------------------------------------------
Total              49.26590   0.00000      0.000  -0.000  -0.000


Species: Si                  

Atom      Orb        Charge      Spin       Svec
----------------------------------------------------------------
    3  1 3s         0.55107   0.00000     -0.000   0.000   0.000
    3  2 3s         0.38745   0.00000      0.000  -0.000   0.000
    3  3 3py        0.08198   0.00000      0.000  -0.000   0.000
    3  4 3pz        0.53602   0.00000     -0.000  -0.000   0.000
    3  5 3px        0.36836   0.00000      0.000   0.000   0.000
    3  6 3py        0.49891   0.00000     -0.000   0.000   0.000
    3  7 3pz        0.17592   0.00000     -0.000   0.000   0.000
    3  8 3px        0.23720   0.00000     -0.000  -0.000   0.000
    3  9 3Pdxy      0.10816   0.00000     -0.000  -0.000   0.000
    3 10 3Pdyz      0.05209   0.00000      0.000  -0.000   0.000
    3 11 3Pdz2      0.01015   0.00000     -0.000  -0.000   0.000
    3 12 3Pdxz      0.13299   0.00000      0.000  -0.000   0.000
    3 13 3Pdx2-y2   0.32441   0.00000     -0.000  -0.000   0.000
    3     Total     3.46469   0.00000      0.000  -0.000   0.000

    6  1 3s         0.66190   0.00000      0.000  -0.000   0.000
    6  2 3s         0.37035   0.00000     -0.000   0.000   0.000
    6  3 3py        0.13103   0.00000     -0.000   0.000  -0.000
    6  4 3pz        0.69503   0.00000      0.000   0.000   0.000
    6  5 3px        0.49070   0.00000      0.000  -0.000   0.000
    6  6 3py        0.46527   0.00000     -0.000   0.000   0.000
    6  7 3pz        0.24291   0.00000     -0.000  -0.000   0.000
    6  8 3px        0.24553   0.00000     -0.000   0.000  -0.000
    6  9 3Pdxy      0.18496   0.00000     -0.000   0.000   0.000
    6 10 3Pdyz      0.14716   0.00000     -0.000  -0.000  -0.000
    6 11 3Pdz2      0.01170   0.00000      0.000  -0.000   0.000
    6 12 3Pdxz      0.03653   0.00000      0.000  -0.000   0.000
    6 13 3Pdx2-y2   0.18869   0.00000     -0.000  -0.000   0.000
    6     Total     3.87175   0.00000      0.000   0.000   0.000

    7  1 3s         0.62630   0.00000      0.000   0.000   0.000
    7  2 3s         0.36978   0.00000     -0.000  -0.000  -0.000
    7  3 3py        0.37287   0.00000     -0.000   0.000   0.000
    7  4 3pz        0.49283   0.00000      0.000  -0.000  -0.000
    7  5 3px        0.08008   0.00000     -0.000  -0.000  -0.000
    7  6 3py        0.30321   0.00000      0.000  -0.000   0.000
    7  7 3pz        0.20842   0.00000     -0.000   0.000  -0.000
    7  8 3px        0.42178   0.00000      0.000   0.000  -0.000
    7  9 3Pdxy      0.20447   0.00000      0.000   0.000  -0.000
    7 10 3Pdyz      0.14276   0.00000      0.000   0.000  -0.000
    7 11 3Pdz2      0.01067   0.00000      0.000  -0.000  -0.000
    7 12 3Pdxz      0.15039   0.00000     -0.000   0.000  -0.000
    7 13 3Pdx2-y2   0.24186   0.00000     -0.000  -0.000  -0.000
    7     Total     3.62542   0.00000     -0.000   0.000  -0.000

   12  1 3s         0.52859   0.00000      0.000   0.000  -0.000
   12  2 3s         0.40176   0.00000     -0.000  -0.000   0.000
   12  3 3py        0.23078   0.00000     -0.000  -0.000  -0.000
   12  4 3pz        0.43812   0.00000      0.000  -0.000  -0.000
   12  5 3px        0.29011   0.00000      0.000  -0.000  -0.000
   12  6 3py        0.39451   0.00000      0.000   0.000   0.000
   12  7 3pz        0.17030   0.00000      0.000   0.000  -0.000
   12  8 3px        0.34395   0.00000     -0.000   0.000   0.000
   12  9 3Pdxy      0.38695   0.00000     -0.000  -0.000   0.000
   12 10 3Pdyz      0.08029   0.00000     -0.000   0.000  -0.000
   12 11 3Pdz2      0.01045   0.00000     -0.000  -0.000   0.000
   12 12 3Pdxz      0.09258   0.00000      0.000   0.000  -0.000
   12 13 3Pdx2-y2   0.16491   0.00000      0.000   0.000  -0.000
   12     Total     3.53330   0.00000      0.000  -0.000  -0.000

   15  1 3s         0.66108   0.00000      0.000   0.000   0.000
   15  2 3s         0.36709   0.00000     -0.000  -0.000   0.000
   15  3 3py       -0.03270   0.00000     -0.000   0.000   0.000
   15  4 3pz        0.51054   0.00000     -0.000  -0.000   0.000
   15  5 3px        0.38875   0.00000      0.000   0.000  -0.000
   15  6 3py        0.47441   0.00000      0.000  -0.000   0.000
   15  7 3pz        0.20025   0.00000      0.000   0.000   0.000
   15  8 3px        0.34016   0.00000     -0.000  -0.000   0.000
   15  9 3Pdxy      0.14149   0.00000      0.000  -0.000   0.000
   15 10 3Pdyz      0.12585   0.00000     -0.000  -0.000   0.000
   15 11 3Pdz2      0.01384   0.00000      0.000  -0.000   0.000
   15 12 3Pdxz      0.12460   0.00000     -0.000  -0.000   0.000
   15 13 3Pdx2-y2   0.30189   0.00000     -0.000  -0.000   0.000
   15     Total     3.61725   0.00000     -0.000   0.000   0.000

   17  1 3s         0.73173   0.00000     -0.000  -0.000   0.000
   17  2 3s         0.35632   0.00000      0.000   0.000   0.000
   17  3 3py        0.09603   0.00000      0.000   0.000   0.000
   17  4 3pz        0.62676   0.00000      0.000   0.000  -0.000
   17  5 3px        0.35549   0.00000     -0.000   0.000  -0.000
   17  6 3py        0.45298   0.00000     -0.000  -0.000   0.000
   17  7 3pz        0.15091   0.00000     -0.000   0.000   0.000
   17  8 3px        0.33536   0.00000      0.000  -0.000   0.000
   17  9 3Pdxy      0.15112   0.00000      0.000  -0.000   0.000
   17 10 3Pdyz      0.02343   0.00000     -0.000  -0.000  -0.000
   17 11 3Pdz2      0.00917   0.00000     -0.000   0.000  -0.000
   17 12 3Pdxz      0.12870   0.00000      0.000   0.000  -0.000
   17 13 3Pdx2-y2   0.12694   0.00000      0.000   0.000  -0.000
   17     Total     3.54495   0.00000      0.000   0.000  -0.000

   19  1 3s         0.86244   0.00000      0.000   0.000   0.000
   19  2 3s         0.31295   0.00000     -0.000  -0.000  -0.000
   19  3 3py        0.44676   0.00000      0.000   0.000   0.000
   19  4 3pz        0.66018   0.00000      0.000   0.000   0.000
   19  5 3px        0.35329   0.00000     -0.000  -0.000   0.000
   19  6 3py        0.32154   0.00000      0.000  -0.000   0.000
   19  7 3pz        0.26809   0.00000     -0.000  -0.000   0.000
   19  8 3px        0.35637   0.00000      0.000   0.000  -0.000
   19  9 3Pdxy      0.09345   0.00000     -0.000   0.000   0.000
   19 10 3Pdyz      0.02940   0.00000      0.000  -0.000  -0.000
   19 11 3Pdz2      0.01454   0.00000      0.000   0.000  -0.000
   19 12 3Pdxz      0.05650   0.00000     -0.000   0.000  -0.000
   19 13 3Pdx2-y2   0.13124   0.00000      0.000  -0.000   0.000
   19     Total     3.90675   0.00000      0.000  -0.000   0.000

   20  1 3s         0.54046   0.00000      0.000   0.000   0.000
   20  2 3s         0.44403   0.00000     -0.000  -0.000   0.000
   20  3 3py        0.31078   0.00000     -0.000   0.000   0.000
   20  4 3pz        0.25493   0.00000      0.000   0.000   0.000
   20  5 3px        0.45513   0.00000     -0.000   0.000   0.000
   20  6 3py        0.38730   0.00000      0.000  -0.000   0.000
   20  7 3pz        0.42306   0.00000     -0.000  -0.000   0.000
   20  8 3px        0.27760   0.00000      0.000  -0.000   0.000
   20  9 3Pdxy      0.06997   0.00000     -0.000  -0.000  -0.000
   20 10 3Pdyz      0.08424   0.00000     -0.000   0.000  -0.000
   20 11 3Pdz2      0.05093   0.00000     -0.000  -0.000  -0.000
   20 12 3Pdxz      0.07242   0.00000      0.000  -0.000   0.000
   20 13 3Pdx2-y2   0.04583   0.00000      0.000   0.000   0.000
   20     Total     3.41666   0.00000      0.000   0.000   0.000

   24  1 3s         0.60558   0.00000     -0.000  -0.000  -0.000
   24  2 3s         0.36935   0.00000     -0.000   0.000  -0.000
   24  3 3py        0.27082   0.00000     -0.000  -0.000  -0.000
   24  4 3pz        0.41027   0.00000     -0.000  -0.000  -0.000
   24  5 3px        0.16837   0.00000      0.000  -0.000   0.000
   24  6 3py        0.39802   0.00000      0.000   0.000  -0.000
   24  7 3pz        0.19288   0.00000      0.000  -0.000  -0.000
   24  8 3px        0.36000   0.00000     -0.000   0.000  -0.000
   24  9 3Pdxy      0.14229   0.00000      0.000   0.000   0.000
   24 10 3Pdyz      0.14032   0.00000      0.000  -0.000  -0.000
   24 11 3Pdz2      0.01529   0.00000     -0.000  -0.000  -0.000
   24 12 3Pdxz      0.12116   0.00000     -0.000   0.000  -0.000
   24 13 3Pdx2-y2   0.34920   0.00000     -0.000  -0.000  -0.000
   24     Total     3.54356   0.00000     -0.000  -0.000  -0.000

   28  1 3s         0.43382   0.00000      0.000  -0.000  -0.000
   28  2 3s         0.37765   0.00000     -0.000   0.000  -0.000
   28  3 3py        0.16148   0.00000     -0.000   0.000  -0.000
   28  4 3pz        0.39961   0.00000      0.000   0.000  -0.000
   28  5 3px        0.16710   0.00000      0.000   0.000  -0.000
   28  6 3py        0.36829   0.00000      0.000  -0.000   0.000
   28  7 3pz        0.20458   0.00000     -0.000   0.000  -0.000
   28  8 3px        0.38555   0.00000     -0.000  -0.000  -0.000
   28  9 3Pdxy      0.14397   0.00000     -0.000  -0.000  -0.000
   28 10 3Pdyz      0.12381   0.00000     -0.000  -0.000  -0.000
   28 11 3Pdz2      0.01563   0.00000      0.000   0.000  -0.000
   28 12 3Pdxz      0.15664   0.00000      0.000   0.000  -0.000
   28 13 3Pdx2-y2   0.35150   0.00000     -0.000  -0.000  -0.000
   28     Total     3.28963   0.00000     -0.000  -0.000  -0.000

----------------------------------------------------------------
Total              85.07988   0.00000      0.000  -0.000  -0.000


Species: O                   

Atom      Orb        Charge      Spin       Svec
----------------------------------------------------------------
   25  1 2s         1.73997   0.00000     -0.000  -0.000   0.000
   25  2 2s         0.06935   0.00000      0.000   0.000   0.000
   25  3 2py        1.46669   0.00000     -0.000   0.000   0.000
   25  4 2pz        1.51008   0.00000      0.000   0.000   0.000
   25  5 2px        1.59101   0.00000     -0.000   0.000   0.000
   25  6 2py        0.03421   0.00000      0.000  -0.000   0.000
   25  7 2pz       -0.00015   0.00000     -0.000  -0.000   0.000
   25  8 2px        0.02365   0.00000      0.000  -0.000   0.000
   25  9 3Pdxy      0.00723   0.00000     -0.000  -0.000   0.000
   25 10 3Pdyz      0.00619   0.00000      0.000  -0.000  -0.000
   25 11 3Pdz2      0.00136   0.00000     -0.000   0.000  -0.000
   25 12 3Pdxz      0.00441   0.00000     -0.000  -0.000  -0.000
   25 13 3Pdx2-y2   0.00740   0.00000     -0.000  -0.000  -0.000
   25     Total     6.46142   0.00000     -0.000   0.000   0.000

   29  1 2s         1.73449   0.00000     -0.000  -0.000   0.000
   29  2 2s         0.07370   0.00000      0.000   0.000   0.000
   29  3 2py        1.48308   0.00000      0.000   0.000   0.000
   29  4 2pz        1.52820   0.00000     -0.000   0.000   0.000
   29  5 2px        1.52495   0.00000      0.000   0.000   0.000
   29  6 2py        0.04197   0.00000     -0.000  -0.000  -0.000
   29  7 2pz        0.00570   0.00000      0.000  -0.000   0.000
   29  8 2px        0.03809   0.00000      0.000   0.000   0.000
   29  9 3Pdxy      0.00816   0.00000     -0.000  -0.000  -0.000
   29 10 3Pdyz      0.00485   0.00000      0.000  -0.000  -0.000
   29 11 3Pdz2      0.00139   0.00000      0.000   0.000   0.000
   29 12 3Pdxz      0.00626   0.00000     -0.000  -0.000  -0.000
   29 13 3Pdx2-y2   0.00785   0.00000      0.000   0.000   0.000
   29     Total     6.45870   0.00000      0.000   0.000   0.000

----------------------------------------------------------------
Total              98.00000   0.00000     -0.000  -0.000   0.000


siesta: Eigenvalues (eV):
ik =     1
  -22.9329  -22.9329  -22.5327  -22.5327  -21.9787  -21.9787  -21.2548  -21.2548  -21.0651  -21.0651
  -20.7868  -20.7868  -19.4723  -19.4723  -19.2853  -19.2853  -18.6802  -18.6802  -15.3135  -15.3135
  -14.3762  -14.3762  -13.6819  -13.6819  -13.6677  -13.6677  -13.3017  -13.3017  -12.9566  -12.9566
  -12.5440  -12.5440  -12.0474  -12.0474  -12.0298  -12.0298  -11.5776  -11.5776  -11.4969  -11.4969
  -10.9712  -10.9712  -10.7619  -10.7619  -10.2509  -10.2509   -9.8358   -9.8358   -9.5756   -9.5756
   -9.3364   -9.3364   -9.1816   -9.1816   -9.1748   -9.1748   -8.8811   -8.8811   -8.7252   -8.7252
   -8.3983   -8.3983   -8.2274   -8.2274   -8.1880   -8.1880   -8.1287   -8.1287   -7.9804   -7.9804
   -7.9272   -7.9272   -7.3863   -7.3863   -7.3839   -7.3839   -7.3169   -7.3169   -6.8271   -6.8271
   -6.7981   -6.7981   -6.6460   -6.6460   -6.4313   -6.4313   -6.3720   -6.3720   -6.1735   -6.1735
   -5.9464   -5.9464   -5.7948   -5.7948   -5.6032   -5.6032   -4.2772   -4.2772   -3.7275   -3.7275
   -2.8455   -2.8455   -2.4707   -2.4707   -2.2669   -2.2669   -2.1818   -2.1818   -2.0965   -2.0965
   -1.9634   -1.9634   -1.7068   -1.7068   -1.6284   -1.6284   -1.5915   -1.5915   -1.4043   -1.4043
   -1.0931   -1.0931   -0.6710   -0.6710   -0.3955   -0.3955   -0.2850   -0.2850   -0.2187   -0.2187
   -0.2061   -0.2061   -0.0704   -0.0704    0.2635    0.2635    0.4061    0.4061    0.5251    0.5251
    0.5694    0.5694    0.7260    0.7260    1.0617    1.0617    1.2418    1.2418    1.2776    1.2776
    1.3470    1.3470    1.5399    1.5399    1.8717    1.8717    2.0276    2.0276    2.1766    2.1766
    2.5050    2.5050    2.6203    2.6203    2.6930    2.6930    2.8279    2.8279    2.9743    2.9743
    2.9768    2.9768    3.0784    3.0784    3.1178    3.1178    3.2064    3.2064    3.5570    3.5570
    3.7386    3.7386    3.9144    3.9144    4.1568    4.1568    4.2799    4.2799    4.3896    4.3896
    4.4727    4.4727    4.6345    4.6345    4.6665    4.6665    4.7889    4.7889    4.9950    4.9950
    5.0807    5.0807    5.2451    5.2451    5.4323    5.4323    5.5851    5.5851    5.8410    5.8410
    5.8866    5.8866    6.0161    6.0161    6.0884    6.0884    6.3064    6.3064    6.3968    6.3968
    6.5262    6.5262    6.6572    6.6572    6.7916    6.7916    6.9793    6.9793    7.1134    7.1134
    7.1945    7.1945    7.5275    7.5275    7.7133    7.7133    7.7478    7.7478    7.8828    7.8828
    7.9663    7.9663    8.2833    8.2833    8.3113    8.3113    8.3622    8.3622    8.5013    8.5013
    8.5451    8.5451    8.9297    8.9297    8.9436    8.9436    9.3456    9.3456    9.6295    9.6295
    9.6687    9.6687    9.8623    9.8623    9.8912    9.8912    9.9114    9.9114    9.9758    9.9758
   10.0008   10.0008   10.4269   10.4269   10.6499   10.6499   10.9342   10.9342   11.1089   11.1089
   11.3527   11.3527   11.3666   11.3666   11.5188   11.5188   11.7392   11.7392   11.8280   11.8280
   11.9029   11.9029   12.3044   12.3044   12.4458   12.4458   12.6700   12.6700   12.7618   12.7618
   12.9035   12.9035   13.0846   13.0846   13.2638   13.2638   13.3021   13.3021   13.4372   13.4372
   13.6564   13.6564   13.9308   13.9308   14.3546   14.3546   14.5537   14.5537   14.7730   14.7730
   14.8005   14.8005   15.1361   15.1361   15.5543   15.5543   16.0804   16.0804   16.3067   16.3067
   16.4037   16.4037   16.8301   16.8301   16.8848   16.8848   17.2041   17.2041   17.3492   17.3492
   17.9209   17.9209   18.0407   18.0407   18.3580   18.3580   18.5985   18.5985   18.7387   18.7387
   18.7923   18.7923   19.7726   19.7726   19.9612   19.9612   20.3345   20.3345   20.5002   20.5002
   20.9046   20.9046   21.0778   21.0778   21.3006   21.3006   21.5683   21.5683   22.2416   22.2416
   22.4677   22.4677   22.8262   22.8262   22.9784   22.9784   23.0569   23.0569   23.0689   23.0689
   24.2601   24.2601   24.6602   24.6602   25.1150   25.1150   25.6151   25.6151   25.8828   25.8828
   26.1682   26.1682   26.6154   26.6154   27.0346   27.0346   27.9452   27.9452   28.1539   28.1539
   28.4912   28.4912   28.5562   28.5562   29.8317   29.8317   30.0623   30.0623   30.5460   30.5460
   30.7940   30.7940   30.8436   30.8436   31.3191   31.3191   31.4645   31.4645   31.6649   31.6649
   31.8104   31.8104   32.3946   32.3946   32.5353   32.5353   33.4579   33.4579   33.7010   33.7010
   34.0389   34.0389   34.2604   34.2604   34.4717   34.4717   34.9849   34.9849   35.4671   35.4671
   35.9020   35.9020   36.1637   36.1637   36.3900   36.3900   37.1980   37.1980   37.4829   37.4829
   37.7245   37.7245   37.8020   37.8020   38.5148   38.5148   38.8485   38.8485   38.9558   38.9558
   39.8682   39.8682   40.5261   40.5261   40.7870   40.7870   41.4269   41.4269   41.6251   41.6251
   41.7907   41.7907   41.8920   41.8920   42.1717   42.1717   42.9034   42.9034   43.3104   43.3104
   43.8942   43.8942   44.5378   44.5378   44.7617   44.7617   44.9519   44.9519   45.2687   45.2687
   45.2767   45.2767   45.8150   45.8150   46.4805   46.4805   46.5881   46.5881   47.1438   47.1438
   47.7393   47.7393   48.0157   48.0157   48.7612   48.7612   48.8370   48.8370   49.2117   49.2117
   49.9065   49.9065   50.1867   50.1867   50.4333   50.4333   50.6321   50.6321   50.8891   50.8891
   51.9812   51.9812   52.2585   52.2585   54.0124   54.0124   54.1619   54.1619   54.8420   54.8420
   55.3142   55.3142   55.4048   55.4048   56.2986   56.2986   56.4310   56.4310   56.7522   56.7522
   56.9114   56.9114   57.7133   57.7133   58.7103   58.7103   59.0182   59.0182   59.7028   59.7028
   60.3842   60.3842   61.3051   61.3051   61.6469   61.6469   62.2532   62.2532   62.8850   62.8850
   65.6460   65.6460   66.3482   66.3482   67.1215   67.1215   67.3713   67.3713   68.1554   68.1554
   68.9341   68.9341   71.4187   71.4187   73.6722   73.6722   79.0256   79.0256   91.5446   91.5446
   92.4715   92.4715   92.9636   92.9636   95.5988   95.5988   97.7008   97.7008  100.4481  100.4481
  100.7895  100.7895  103.0259  103.0259  113.4601  113.4601  120.4066  120.4066  123.0773  123.0773
  135.6772  135.6772  140.4931  140.4931
siesta: Fermi energy =      -4.002343 eV

siesta: Program's energy decomposition (eV):
siesta: Ebs     =     -1118.966058
siesta: Eions   =      3553.971015
siesta: Ena     =       377.805206
siesta: Ekin    =      2751.466890
siesta: Enl     =     -2532.276216
siesta: Eso     =        -0.004696
siesta: Edftu   =         0.000000
siesta: DEna    =        37.140666
siesta: DUscf   =        14.124309
siesta: DUext   =         0.000000
siesta: Exc     =     -1093.107874
siesta: eta*DQ  =         0.000000
siesta: Emadel  =         0.000000
siesta: Emeta   =         0.000000
siesta: Emolmec =         0.000000
siesta: Ekinion =         0.000000
siesta: Eharris =     -3998.822729
siesta: Etot    =     -3998.822729
siesta: FreeEng =     -3998.822758

siesta: Final energy (eV):
siesta:  Band Struct. =   -1118.966058
siesta:       Kinetic =    2751.466890
siesta:       Hartree =    7141.578192
siesta:       Edftu   =       0.000000
siesta:       Eso     =      -0.004696
siesta:    Ext. field =       0.000000
siesta:   Exch.-corr. =   -1093.107874
siesta:  Ion-electron =  -16734.915364
siesta:       Ion-ion =    3936.160123
siesta:       Ekinion =       0.000000
siesta:         Total =   -3998.822729
siesta:         Fermi =      -4.002343

siesta: Atomic forces (eV/Ang):
siesta:      1   -0.075681    0.000706    0.000002
siesta:      2   -0.014165   -0.049611   -0.000002
siesta:      3   -0.002665    0.041606    0.000004
siesta:      4   -0.057749   -0.011990    0.000001
siesta:      5    0.016119   -0.038377   -0.000003
siesta:      6    0.027129    0.004978   -0.000000
siesta:      7   -0.086974    0.113471    0.000008
siesta:      8    0.060951   -0.054024   -0.000030
siesta:      9    0.021326   -0.034136    0.000045
siesta:     10    0.089096    0.044162    0.000006
siesta:     11   -0.034359   -0.023857   -0.000010
siesta:     12    0.055299    0.066211    0.000000
siesta:     13   -0.084495   -0.125248   -0.000000
siesta:     14   -0.021243   -0.119745    0.000000
siesta:     15   -0.000416    0.065829   -0.000000
siesta:     16   -0.003566    0.110783    0.008011
siesta:     17   -0.004929   -0.046374   -0.039766
siesta:     18   -0.218077    0.079182    0.008251
siesta:     19    0.002158    0.028372   -0.041170
siesta:     20    0.043253   -0.051596    0.027697
siesta:     21    0.017025    0.230678   -0.065542
siesta:     22   -0.029505    0.135947    0.025149
siesta:     23    0.017592    0.025256   -0.052898
siesta:     24    0.053085   -0.115169   -0.026637
siesta:     25   -4.080104   -2.771380    0.003017
siesta:     26   -0.044792    0.068022    0.006538
siesta:     27    0.024118   -0.105346    0.002791
siesta:     28   -0.006091   -0.123468   -0.000873
siesta:     29    3.606236    1.426379   -0.001104
siesta:     30   -0.016231    0.115595    0.008275
siesta: ----------------------------------------
siesta:    Tot   -0.747655   -1.113140   -0.138240

siesta: Stress tensor (static) (eV/Ang**3):
siesta:    -0.001076    0.000186    0.000030
siesta:     0.000186   -0.000289   -0.000027
siesta:     0.000030   -0.000027   -0.000138

siesta: Cell volume =       4481.836413 Ang**3

siesta: Pressure (static):
siesta:                Solid            Molecule  Units
siesta:           0.00000545         -0.00001081  Ry/Bohr**3
siesta:           0.00050083         -0.00099218  eV/Ang**3
siesta:           0.80242527         -1.58966951  kBar
(Free)E+ p_basis*V_orbitals  =       -3977.694673
(Free)Eharris+ p_basis*V_orbitals  =       -3977.694673
     spin moment: S , {S} =    0.00000  -0.00000  -0.00000   0.00000

siesta: Electric dipole (a.u.)  =   -0.310687    2.568785   -0.013032
siesta: Electric dipole (Debye) =   -0.789687    6.529206   -0.033125

cite: Please see "AT.bib" for an exhaustive BiBTeX file.
cite: Please clearly indicate Siesta version in published work: v4.1.5-1-g384057250
cite: This calculation has made use of the following articles
cite: which are encouraged to be cited in a published work.
        Primary SIESTA paper
          DOI: www.doi.org/10.1088/0953-8984/14/11/302
        Spin-orbit coupling (on-site approximation)
          DOI: www.doi.org/10.1088/0953-8984/19/19/489001


WARNING: alloc-realloc-dealloc name mismatch
         Name: atomlist isa
         Size:              -120. Bytes
         Node:     0
         Subsequent mismatches will not be reported
>> End of run:  22-MAY-2023  10:28:38
Job completed
