Siesta Version  : v4.1.5-1-g384057250
Architecture    : gcc
Compiler version: GNU Fortran (Ubuntu 11.3.0-1ubuntu1~22.04) 11.3.0
Compiler flags  : mpifort -O2 -fPIC -ftree-vectorize -fallow-argument-mismatch
PP flags        : -DFC_HAVE_ABORT -DMPI -DSIESTA__FLOOK -DSIESTA__METIS -DSIESTA__MUMPS -DCDF -DNCDF -DNCDF_4 -DNCDF_PARALLEL -DSIESTA__MRRR -DSIESTA__ELPA
Libraries       : libncdf.a libfdict.a  -lflookall -ldl -lnetcdff -lnetcdf -lhdf5_hl -lhdf5 -lhdf5_fortran -lz -lscalapack-openmpi -lopenblas -lmetis -lzmumps -lcmumps -ldmumps -lmumps_common -lpord -lsmumps -lesmumps -lscotch -lscotcherr -fopenmp -lelpa
PARALLEL version
NetCDF support
NetCDF-4 support
NetCDF-4 MPI-IO support
METIS ordering support
Lua support

* Running on 4 nodes in parallel
>> Start of run:  28-JUN-2023  20:17:27

                           ***********************       
                           *  WELCOME TO SIESTA  *       
                           ***********************       

reinit: Reading from standard input
reinit: Dumped input in INPUT_TMP.05109
************************** Dump of input data file ****************************
SystemLabel      GC
NumberOfAtoms    29
NumberOfSpecies  4
%block ChemicalSpeciesLabel
    1    8  O
    2    7  N
    3   14  Si
    4    1  H
%endblock ChemicalSpeciesLabel
# Single point calculation
MD.TypeOfRun                CG
MD.Steps                    0
SCF.MustConverge            F # In case it does not. There can be 2 very close atoms
AtomicCoordinatesFormat NotScaledCartesianAng
%block AtomicCoordinatesAndAtomicSpecies
1.043624880    3.939228610    0.000000000       1
-3.040641290   1.071078170    0.000000000       2
2.054601450    1.213582070    0.000000000       2
0.999014100    -1.732643800   0.000000000       2
-2.132351640   -1.812968220   0.000000000       2
3.860190550    -1.112298180   0.000000000       2
-1.236183220   1.152964460    0.000000000       3
-0.532924260   -0.939006270   0.000000000       3
0.635660470    2.374516770    0.000000000       3
2.245170240    -0.549967100   0.000000000       3
-3.449816660   -0.583665030   0.000000000       3
2.963714090    1.790992630    0.000000000       4
-4.845591350   -1.123549660   0.000000000       4
4.007020910    -2.152308560   0.000000000       4
4.772194380    -0.502318160   0.000000000       4
-2.265399090   -2.864605110   0.000000000       4
7.287944731    6.505350686    0.000000000       3
9.192828701    7.711989626    0.000000000       3
8.697074561    3.739015716    0.000000000       3
10.774544851   6.208232876    0.000000000       3
7.347567401    4.787923116    0.000000000       2
5.748809671    7.259027996    0.000000000       2
10.349369821   4.468852936    0.000000000       2
9.384173501    9.204143376    0.000000000       4
12.258912831   6.426963696    0.000000000       4
5.637464391    8.308223106    0.000000000       4
4.816251961    6.634113816    0.000000000       4
8.686847731    2.130904596    0.000000000       1
11.124795701   3.742161376    0.000000000       4
%endblock AtomicCoordinatesAndAtomicSpecies
%include ../../../Defaults.fdf
************************** End of input data file *****************************

reinit: -----------------------------------------------------------------------
reinit: System Name: 
reinit: -----------------------------------------------------------------------
reinit: System Label: GC
reinit: -----------------------------------------------------------------------

initatom: Reading input for the pseudopotentials and atomic orbitals ----------
Species number:   1 Atomic number:    8 Label: O
Species number:   2 Atomic number:    7 Label: N
Species number:   3 Atomic number:   14 Label: Si
Species number:   4 Atomic number:    1 Label: H

Ground state valence configuration:   2s02  2p04
Reading pseudopotential information in formatted form from O.psf

Pseudopotential generated from a relativistic atomic calculation

Valence configuration for pseudopotential generation:
2s( 2.00) rc: 0.45
2p( 4.00) rc: 0.92
3d( 0.00) rc: 2.24
4f( 0.00) rc: 0.25
Ground state valence configuration:   2s02  2p03
Reading pseudopotential information in formatted form from N.psf

Pseudopotential generated from a relativistic atomic calculation

Valence configuration for pseudopotential generation:
2s( 2.00) rc: 0.94
2p( 3.00) rc: 0.59
3d( 0.00) rc: 3.46
4f( 0.00) rc: 2.47
Ground state valence configuration:   3s02  3p02
Reading pseudopotential information in formatted form from Si.psf

Pseudopotential generated from a relativistic atomic calculation

Valence configuration for pseudopotential generation:
3s( 2.00) rc: 1.67
3p( 2.00) rc: 2.04
3d( 0.00) rc: 2.89
4f( 0.00) rc: 2.49
Ground state valence configuration:   1s01
Reading pseudopotential information in formatted form from H.psf

Pseudopotential generated from a relativistic atomic calculation

Valence configuration for pseudopotential generation:
1s( 1.00) rc: 0.01
2p( 0.00) rc: 0.60
3d( 0.00) rc: 1.99
4f( 0.00) rc: 2.49
For O, standard SIESTA heuristics set lmxkb to 3
 (one more than the basis l, including polarization orbitals).
Use PS.lmax or PS.KBprojectors blocks to override.
For N, standard SIESTA heuristics set lmxkb to 3
 (one more than the basis l, including polarization orbitals).
Use PS.lmax or PS.KBprojectors blocks to override.
For Si, standard SIESTA heuristics set lmxkb to 3
 (one more than the basis l, including polarization orbitals).
Use PS.lmax or PS.KBprojectors blocks to override.
For H, standard SIESTA heuristics set lmxkb to 2
 (one more than the basis l, including polarization orbitals).
Use PS.lmax or PS.KBprojectors blocks to override.

<basis_specs>
===============================================================================
O                    Z=   8    Mass=  16.000        Charge= 0.17977+309
Lmxo=1 Lmxkb= 3    BasisType=split      Semic=F
L=0  Nsemic=0  Cnfigmx=2
          i=1  nzeta=2  polorb=0  (2s)
            splnorm:   0.28000    
               vcte:    0.0000    
               rinn:    0.0000    
               qcoe:    0.0000    
               qyuk:    0.0000    
               qwid:   0.10000E-01
                rcs:    0.0000      0.0000    
            lambdas:    1.0000      1.0000    
L=1  Nsemic=0  Cnfigmx=2
          i=1  nzeta=2  polorb=1  (2p)
            splnorm:   0.28000    
               vcte:    0.0000    
               rinn:    0.0000    
               qcoe:    0.0000    
               qyuk:    0.0000    
               qwid:   0.10000E-01
                rcs:    0.0000      0.0000    
            lambdas:    1.0000      1.0000    
-------------------------------------------------------------------------------
L=0  Nkbl=1  erefs: 0.17977+309
L=1  Nkbl=1  erefs: 0.17977+309
L=2  Nkbl=1  erefs: 0.17977+309
L=3  Nkbl=1  erefs: 0.17977+309
===============================================================================
</basis_specs>

atom: Called for O                     (Z =   8)

read_vps: Pseudopotential generation method:
read_vps: ATM4.2.7  Troullier-Martins                       
Valence charge for ps generation:    6.00000

xc_check: Exchange-correlation functional:
xc_check: GGA Perdew, Burke & Ernzerhof 1996
V l=0 = -2*Zval/r beyond r=  1.1000
V l=1 = -2*Zval/r beyond r=  1.1000
V l=2 = -2*Zval/r beyond r=  2.2154
V l=3 = -2*Zval/r beyond r=  1.1000
All V_l potentials equal beyond r=  2.2154
This should be close to max(r_c) in ps generation
All pots = -2*Zval/r beyond r=  2.2154

VLOCAL1: 99.0% of the norm of Vloc inside      8.845 Ry
VLOCAL1: 99.9% of the norm of Vloc inside     20.157 Ry
atom: Maximum radius for 4*pi*r*r*local-pseudopot. charge    2.67231
atom: Maximum radius for r*vlocal+2*Zval:    2.32897
GHOST: No ghost state for L =  0
GHOST: No ghost state for L =  1
GHOST: No ghost state for L =  2
GHOST: No ghost state for L =  3

KBgen: Kleinman-Bylander projectors: 
   l= 0   rc=  2.243238   el= -1.759686   Ekb=**********   kbcos= -0.171774
   l= 1   rc=  2.328968   el= -0.663873   Ekb=-14.506792   kbcos= -0.519897
   l= 2   rc=  2.573941   el=  0.002031   Ekb= -1.137373   kbcos= -0.019581
   l= 3   rc=  2.606321   el=  0.003153   Ekb= -1.013546   kbcos= -0.003122

KBgen: Total number of Kleinman-Bylander projectors:   16
atom: -------------------------------------------------------------------------

atom: SANKEY-TYPE ORBITALS:
atom: Selected multiple-zeta basis: split     

SPLIT: Orbitals with angular momentum L= 0

SPLIT: Basis orbitals for state 2s

SPLIT: PAO cut-off radius determined from an
SPLIT: energy shift=  0.002000 Ry

   izeta = 1
                 lambda =    1.000000
                     rc =    4.243912
                 energy =   -1.758270
                kinetic =    3.286084
    potential(screened) =   -5.044353
       potential(ionic) =  -12.921184

   izeta = 2
                 rmatch =    2.187845
              splitnorm =    0.280000
                 energy =   -0.885018
                kinetic =    8.134434
    potential(screened) =   -9.019452
       potential(ionic) =  -17.710645

SPLIT: Orbitals with angular momentum L= 1

SPLIT: Basis orbitals for state 2p

SPLIT: PAO cut-off radius determined from an
SPLIT: energy shift=  0.002000 Ry

   izeta = 1
                 lambda =    1.000000
                     rc =    5.314825
                 energy =   -0.661986
                kinetic =    4.917472
    potential(screened) =   -5.579458
       potential(ionic) =  -13.236259

   izeta = 2
                 rmatch =    2.160663
              splitnorm =    0.280000
                 energy =   -0.068760
                kinetic =    9.183374
    potential(screened) =   -9.252135
       potential(ionic) =  -18.274251

POLgen: Perturbative polarization orbital with L=  2

POLgen: Polarization orbital for state 2p

   izeta = 1
                     rc =    5.314825
                 energy =    1.970580
                kinetic =    3.886128
    potential(screened) =   -1.915547
       potential(ionic) =   -7.749584
atom: Total number of Sankey-type orbitals: 13

atm_pop: Valence configuration (for local Pseudopot. screening):
 2s( 2.00)                                                            
 2p( 4.00)                                                            
Vna: chval, zval:    6.00000   6.00000

Vna:  Cut-off radius for the neutral-atom potential:   5.314825

atom: _________________________________________________________________________

<basis_specs>
===============================================================================
N                    Z=   7    Mass=  14.010        Charge= 0.17977+309
Lmxo=1 Lmxkb= 3    BasisType=split      Semic=F
L=0  Nsemic=0  Cnfigmx=2
          i=1  nzeta=2  polorb=0  (2s)
            splnorm:   0.28000    
               vcte:    0.0000    
               rinn:    0.0000    
               qcoe:    0.0000    
               qyuk:    0.0000    
               qwid:   0.10000E-01
                rcs:    0.0000      0.0000    
            lambdas:    1.0000      1.0000    
L=1  Nsemic=0  Cnfigmx=2
          i=1  nzeta=2  polorb=1  (2p)
            splnorm:   0.28000    
               vcte:    0.0000    
               rinn:    0.0000    
               qcoe:    0.0000    
               qyuk:    0.0000    
               qwid:   0.10000E-01
                rcs:    0.0000      0.0000    
            lambdas:    1.0000      1.0000    
-------------------------------------------------------------------------------
L=0  Nkbl=1  erefs: 0.17977+309
L=1  Nkbl=1  erefs: 0.17977+309
L=2  Nkbl=1  erefs: 0.17977+309
L=3  Nkbl=1  erefs: 0.17977+309
===============================================================================
</basis_specs>

atom: Called for N                     (Z =   7)

read_vps: Pseudopotential generation method:
read_vps: ATM4.2.7  Troullier-Martins                       
Valence charge for ps generation:    5.00000

xc_check: Exchange-correlation functional:
xc_check: GGA Perdew, Burke & Ernzerhof 1996
V l=0 = -2*Zval/r beyond r=  1.2889
V l=1 = -2*Zval/r beyond r=  1.2889
V l=2 = -2*Zval/r beyond r=  3.4178
V l=3 = -2*Zval/r beyond r=  2.4084
All V_l potentials equal beyond r=  3.3753
This should be close to max(r_c) in ps generation
All pots = -2*Zval/r beyond r=  3.4178

VLOCAL1: 99.0% of the norm of Vloc inside      3.810 Ry
VLOCAL1: 99.9% of the norm of Vloc inside      8.683 Ry
atom: Maximum radius for 4*pi*r*r*local-pseudopot. charge    4.02088
atom: Maximum radius for r*vlocal+2*Zval:    3.54838
GHOST: No ghost state for L =  0
GHOST: No ghost state for L =  1
GHOST: No ghost state for L =  2
GHOST: No ghost state for L =  3

KBgen: Kleinman-Bylander projectors: 
   l= 0   rc=  3.417763   el= -1.365098   Ekb= -4.433130   kbcos= -0.707855
   l= 1   rc=  3.375302   el= -0.521201   Ekb=-13.264039   kbcos= -0.535594
   l= 2   rc=  3.872880   el=  0.001991   Ekb= -0.641094   kbcos= -0.062456
   l= 3   rc=  3.970931   el=  0.003093   Ekb= -0.474517   kbcos= -0.018236

KBgen: Total number of Kleinman-Bylander projectors:   16
atom: -------------------------------------------------------------------------

atom: SANKEY-TYPE ORBITALS:
atom: Selected multiple-zeta basis: split     

SPLIT: Orbitals with angular momentum L= 0

SPLIT: Basis orbitals for state 2s

SPLIT: PAO cut-off radius determined from an
SPLIT: energy shift=  0.002000 Ry

   izeta = 1
                 lambda =    1.000000
                     rc =    4.730425
                 energy =   -1.363399
                kinetic =    1.245246
    potential(screened) =   -2.608645
       potential(ionic) =   -8.121105

   izeta = 2
                 rmatch =    2.531849
              splitnorm =    0.280000
                 energy =   -0.959908
                kinetic =    2.409435
    potential(screened) =   -3.369343
       potential(ionic) =   -9.427975

SPLIT: Orbitals with angular momentum L= 1

SPLIT: Basis orbitals for state 2p

SPLIT: PAO cut-off radius determined from an
SPLIT: energy shift=  0.002000 Ry

   izeta = 1
                 lambda =    1.000000
                     rc =    5.924108
                 energy =   -0.519262
                kinetic =    3.672940
    potential(screened) =   -4.192202
       potential(ionic) =   -9.518354

   izeta = 2
                 rmatch =    2.531849
              splitnorm =    0.280000
                 energy =   -0.104258
                kinetic =    6.807538
    potential(screened) =   -6.911796
       potential(ionic) =  -13.149920

POLgen: Perturbative polarization orbital with L=  2

POLgen: Polarization orbital for state 2p

   izeta = 1
                     rc =    5.924108
                 energy =    1.427508
                kinetic =    2.872379
    potential(screened) =   -1.444871
       potential(ionic) =   -5.563644
atom: Total number of Sankey-type orbitals: 13

atm_pop: Valence configuration (for local Pseudopot. screening):
 2s( 2.00)                                                            
 2p( 3.00)                                                            
Vna: chval, zval:    5.00000   5.00000

Vna:  Cut-off radius for the neutral-atom potential:   5.924108

atom: _________________________________________________________________________

<basis_specs>
===============================================================================
Si                   Z=  14    Mass=  28.090        Charge= 0.17977+309
Lmxo=1 Lmxkb= 3    BasisType=split      Semic=F
L=0  Nsemic=0  Cnfigmx=3
          i=1  nzeta=2  polorb=0  (3s)
            splnorm:   0.28000    
               vcte:    0.0000    
               rinn:    0.0000    
               qcoe:    0.0000    
               qyuk:    0.0000    
               qwid:   0.10000E-01
                rcs:    0.0000      0.0000    
            lambdas:    1.0000      1.0000    
L=1  Nsemic=0  Cnfigmx=3
          i=1  nzeta=2  polorb=1  (3p)
            splnorm:   0.28000    
               vcte:    0.0000    
               rinn:    0.0000    
               qcoe:    0.0000    
               qyuk:    0.0000    
               qwid:   0.10000E-01
                rcs:    0.0000      0.0000    
            lambdas:    1.0000      1.0000    
-------------------------------------------------------------------------------
L=0  Nkbl=1  erefs: 0.17977+309
L=1  Nkbl=1  erefs: 0.17977+309
L=2  Nkbl=1  erefs: 0.17977+309
L=3  Nkbl=1  erefs: 0.17977+309
===============================================================================
</basis_specs>

atom: Called for Si                    (Z =  14)

read_vps: Pseudopotential generation method:
read_vps: ATM4.2.7  Troullier-Martins                       
Valence charge for ps generation:    4.00000

xc_check: Exchange-correlation functional:
xc_check: GGA Perdew, Burke & Ernzerhof 1996
V l=0 = -2*Zval/r beyond r=  2.7826
V l=1 = -2*Zval/r beyond r=  2.7826
V l=2 = -2*Zval/r beyond r=  2.9253
V l=3 = -2*Zval/r beyond r=  2.7826
All V_l potentials equal beyond r=  2.8530
This should be close to max(r_c) in ps generation
All pots = -2*Zval/r beyond r=  2.9253

VLOCAL1: 99.0% of the norm of Vloc inside      5.333 Ry
VLOCAL1: 99.9% of the norm of Vloc inside     12.154 Ry
atom: Maximum radius for 4*pi*r*r*local-pseudopot. charge    3.39869
atom: Maximum radius for r*vlocal+2*Zval:    2.96205
GHOST: No ghost state for L =  0
GHOST: No ghost state for L =  1
GHOST: No ghost state for L =  2
GHOST: No ghost state for L =  3

KBgen: Kleinman-Bylander projectors: 
   l= 0   rc=  3.075247   el= -0.794092   Ekb=  5.879390   kbcos=  0.167461
   l= 1   rc=  3.153101   el= -0.300068   Ekb=  2.642817   kbcos=  0.058301
   l= 2   rc=  3.273594   el=  0.001958   Ekb= -1.185135   kbcos= -0.104411
   l= 3   rc=  3.232927   el=  0.003046   Ekb= -0.497174   kbcos= -0.015889

KBgen: Total number of Kleinman-Bylander projectors:   16
atom: -------------------------------------------------------------------------

atom: SANKEY-TYPE ORBITALS:
atom: Selected multiple-zeta basis: split     

SPLIT: Orbitals with angular momentum L= 0

SPLIT: Basis orbitals for state 3s

SPLIT: PAO cut-off radius determined from an
SPLIT: energy shift=  0.002000 Ry

   izeta = 1
                 lambda =    1.000000
                     rc =    6.429618
                 energy =   -0.792283
                kinetic =    0.525293
    potential(screened) =   -1.317576
       potential(ionic) =   -3.744923

   izeta = 2
                 rmatch =    3.998416
              splitnorm =    0.280000
                 energy =   -0.583081
                kinetic =    1.069570
    potential(screened) =   -1.652651
       potential(ionic) =   -4.235185

SPLIT: Orbitals with angular momentum L= 1

SPLIT: Basis orbitals for state 3p

SPLIT: PAO cut-off radius determined from an
SPLIT: energy shift=  0.002000 Ry

   izeta = 1
                 lambda =    1.000000
                     rc =    8.464845
                 energy =   -0.298236
                kinetic =    0.785360
    potential(screened) =   -1.083596
       potential(ionic) =   -3.273779

   izeta = 2
                 rmatch =    4.587816
              splitnorm =    0.280000
                 energy =   -0.131871
                kinetic =    1.403687
    potential(screened) =   -1.535557
       potential(ionic) =   -4.015310

POLgen: Perturbative polarization orbital with L=  2

POLgen: Polarization orbital for state 3p

   izeta = 1
                     rc =    8.464845
                 energy =    0.321949
                kinetic =    1.055677
    potential(screened) =   -0.733728
       potential(ionic) =   -2.672950
atom: Total number of Sankey-type orbitals: 13

atm_pop: Valence configuration (for local Pseudopot. screening):
 3s( 2.00)                                                            
 3p( 2.00)                                                            
Vna: chval, zval:    4.00000   4.00000

Vna:  Cut-off radius for the neutral-atom potential:   8.464845

atom: _________________________________________________________________________

<basis_specs>
===============================================================================
H                    Z=   1    Mass=  1.0100        Charge= 0.17977+309
Lmxo=0 Lmxkb= 2    BasisType=split      Semic=F
L=0  Nsemic=0  Cnfigmx=1
          i=1  nzeta=2  polorb=1  (1s)
            splnorm:   0.62000    
               vcte:    0.0000    
               rinn:    0.0000    
               qcoe:    0.0000    
               qyuk:    0.0000    
               qwid:   0.10000E-01
                rcs:    0.0000      0.0000    
            lambdas:    1.0000      1.0000    
-------------------------------------------------------------------------------
L=0  Nkbl=1  erefs: 0.17977+309
L=1  Nkbl=1  erefs: 0.17977+309
L=2  Nkbl=1  erefs: 0.17977+309
===============================================================================
</basis_specs>

atom: Called for H                     (Z =   1)

read_vps: Pseudopotential generation method:
read_vps: ATM4.2.7  Troullier-Martins                       
Valence charge for ps generation:    1.00000

xc_check: Exchange-correlation functional:
xc_check: GGA Perdew, Burke & Ernzerhof 1996
V l=0 = -2*Zval/r beyond r=  0.0098
V l=1 = -2*Zval/r beyond r=  0.5817
V l=2 = -2*Zval/r beyond r=  1.9372
All V_l potentials equal beyond r=  1.9372
This should be close to max(r_c) in ps generation
All pots = -2*Zval/r beyond r=  1.9372

VLOCAL1: 99.0% of the norm of Vloc inside     11.567 Ry
VLOCAL1: 99.9% of the norm of Vloc inside     26.362 Ry
atom: Maximum radius for 4*pi*r*r*local-pseudopot. charge    2.25106
atom: Maximum radius for r*vlocal+2*Zval:    1.91306
GHOST: No ghost state for L =  0
GHOST: No ghost state for L =  1
GHOST: No ghost state for L =  2

KBgen: Kleinman-Bylander projectors: 
   l= 0   rc=  2.036604   el= -0.477180   Ekb= -6.081590   kbcos= -0.277285
   l= 1   rc=  2.195416   el=  0.001076   Ekb= -0.926943   kbcos= -0.034643
   l= 2   rc=  2.251056   el=  0.002010   Ekb= -0.130941   kbcos= -0.009788

KBgen: Total number of Kleinman-Bylander projectors:    9
atom: -------------------------------------------------------------------------

atom: SANKEY-TYPE ORBITALS:
atom: Selected multiple-zeta basis: split     

SPLIT: Orbitals with angular momentum L= 0

SPLIT: Basis orbitals for state 1s

SPLIT: PAO cut-off radius determined from an
SPLIT: energy shift=  0.002000 Ry

   izeta = 1
                 lambda =    1.000000
                     rc =    6.518340
                 energy =   -0.475305
                kinetic =    0.912139
    potential(screened) =   -1.387444
       potential(ionic) =   -1.907295

   izeta = 2
                 rmatch =    2.141150
              splitnorm =    0.620000
                 energy =    0.566467
                kinetic =    3.772856
    potential(screened) =   -3.206389
       potential(ionic) =   -3.759093

POLgen: Perturbative polarization orbital with L=  1

POLgen: Polarization orbital for state 1s

   izeta = 1
                     rc =    6.518340
                 energy =    0.533861
                kinetic =    1.121086
    potential(screened) =   -0.587225
       potential(ionic) =   -1.053027
atom: Total number of Sankey-type orbitals:  5

atm_pop: Valence configuration (for local Pseudopot. screening):
 1s( 1.00)                                                            
Vna: chval, zval:    1.00000   1.00000

Vna:  Cut-off radius for the neutral-atom potential:   6.518340

atom: _________________________________________________________________________

prinput: Basis input ----------------------------------------------------------

PAO.BasisType split     

%block ChemicalSpeciesLabel
    1    8 O                       # Species index, atomic number, species label
    2    7 N                       # Species index, atomic number, species label
    3   14 Si                      # Species index, atomic number, species label
    4    1 H                       # Species index, atomic number, species label
%endblock ChemicalSpeciesLabel

%block PAO.Basis                 # Define Basis set
O                     2                    # Species label, number of l-shells
 n=2   0   2                         # n, l, Nzeta 
   4.244      2.188   
   1.000      1.000   
 n=2   1   2 P   1                   # n, l, Nzeta, Polarization, NzetaPol
   5.315      2.161   
   1.000      1.000   
N                     2                    # Species label, number of l-shells
 n=2   0   2                         # n, l, Nzeta 
   4.730      2.532   
   1.000      1.000   
 n=2   1   2 P   1                   # n, l, Nzeta, Polarization, NzetaPol
   5.924      2.532   
   1.000      1.000   
Si                    2                    # Species label, number of l-shells
 n=3   0   2                         # n, l, Nzeta 
   6.430      3.998   
   1.000      1.000   
 n=3   1   2 P   1                   # n, l, Nzeta, Polarization, NzetaPol
   8.465      4.588   
   1.000      1.000   
H                     1                    # Species label, number of l-shells
 n=1   0   2 P   1                   # n, l, Nzeta, Polarization, NzetaPol
   6.518      2.141   
   1.000      1.000   
%endblock PAO.Basis

prinput: ----------------------------------------------------------------------

Dumping basis to NetCDF file O.ion.nc
Dumping basis to NetCDF file N.ion.nc
Dumping basis to NetCDF file Si.ion.nc
Dumping basis to NetCDF file H.ion.nc
coor:   Atomic-coordinates input format  =     Cartesian coordinates
coor:                                          (in Angstroms)

siesta: Atomic coordinates (Bohr) and species
siesta:      1.97217   7.44407   0.00000  1        1
siesta:     -5.74598   2.02405   0.00000  2        2
siesta:      3.88264   2.29334   0.00000  2        3
siesta:      1.88786  -3.27422   0.00000  2        4
siesta:     -4.02956  -3.42601   0.00000  2        5
siesta:      7.29471  -2.10194   0.00000  2        6
siesta:     -2.33605   2.17879   0.00000  3        7
siesta:     -1.00708  -1.77447   0.00000  3        8
siesta:      1.20122   4.48719   0.00000  3        9
siesta:      4.24276  -1.03929   0.00000  3       10
siesta:     -6.51921  -1.10297   0.00000  3       11
siesta:      5.60061   3.38449   0.00000  4       12
siesta:     -9.15684  -2.12320   0.00000  4       13
siesta:      7.57218  -4.06728   0.00000  4       14
siesta:      9.01814  -0.94924   0.00000  4       15
siesta:     -4.28099  -5.41332   0.00000  4       16
siesta:     13.77223  12.29334   0.00000  3       17
siesta:     17.37194  14.57355   0.00000  3       18
siesta:     16.43510   7.06572   0.00000  3       19
siesta:     20.36095  11.73186   0.00000  3       20
siesta:     13.88490   9.04787   0.00000  2       21
siesta:     10.86368  13.71758   0.00000  2       22
siesta:     19.55748   8.44491   0.00000  2       23
siesta:     17.73352  17.39332   0.00000  4       24
siesta:     23.16600  12.14521   0.00000  4       25
siesta:     10.65327  15.70027   0.00000  4       26
siesta:      9.10140  12.53666   0.00000  4       27
siesta:     16.41577   4.02683   0.00000  1       28
siesta:     21.02283   7.07166   0.00000  4       29

siesta: Automatic unit cell vectors (Ang):
siesta:   26.403537    0.000000    0.000000
siesta:    0.000000   20.864206    0.000000
siesta:    0.000000    0.000000    9.854683

siesta: System type = molecule  

initatomlists: Number of atoms, orbitals, and projectors:     29   297   394

siesta: ******************** Simulation parameters ****************************
siesta:
siesta: The following are some of the parameters of the simulation.
siesta: A complete list of the parameters used, including default values,
siesta: can be found in file out.fdf
siesta:
redata: Spin configuration                          = spin-orbit
redata: Number of spin components                   = 8
redata: Time-Reversal Symmetry                      = F
redata: Spin spiral                                 = F
############################################################
This spin-orbit implementation uses a local approximation.
From 4.2 and onwards the full non-local approximation is implemented
You are strongly advised to use >=4.2 versions!
############################################################
redata: Long output                                 =   F
redata: Number of Atomic Species                    =        4
redata: Charge density info will appear in .RHO file
redata: Write Mulliken Pop.                         = Atomic and Orbital charges
redata: Matel table size (NRTAB)                    =     1024
redata: Mesh Cutoff                                 =   340.0000 Ry
redata: Net charge of the system                    =     0.0000 |e|
redata: Min. number of SCF Iter                     =        1
redata: Max. number of SCF Iter                     =      200
redata: SCF mix quantity                            = Hamiltonian
redata: Mix DM or H after convergence               =   F
redata: Recompute H after scf cycle                 =   F
redata: Mix DM in first SCF step                    =   T
redata: Write Pulay info on disk                    =   F
redata: New DM Occupancy tolerance                  = 0.000000000001
redata: No kicks to SCF
redata: DM Mixing Weight for Kicks                  =     0.5000
redata: Require Harris convergence for SCF          =   F
redata: Harris energy tolerance for SCF             =     0.000100 eV
redata: Require DM convergence for SCF              =   T
redata: DM tolerance for SCF                        =     0.000008
redata: Require EDM convergence for SCF             =   F
redata: EDM tolerance for SCF                       =     0.001000 eV
redata: Require H convergence for SCF               =   T
redata: Hamiltonian tolerance for SCF               =     0.000001 eV
redata: Require (free) Energy convergence for SCF   =   F
redata: (free) Energy tolerance for SCF             =     0.000100 eV
redata: Using Saved Data (generic)                  =   F
redata: Use continuation files for DM               =   F
redata: Neglect nonoverlap interactions             =   F
redata: Method of Calculation                       = Diagonalization
redata: Electronic Temperature                      =   299.9978 K
redata: Fix the spin of the system                  =   F
redata: Dynamics option                             = Single-point calculation
mix.SCF: Pulay mixing                            = Pulay
mix.SCF:    Variant                              = stable
mix.SCF:    History steps                        = 6
mix.SCF:    Linear mixing weight                 =     0.250000
mix.SCF:    Mixing weight                        =     0.250000
mix.SCF:    SVD condition                        = 0.1000E-07
mix.SCF:    Restart steps                        = 24
mix.SCF:    Restart save steps                   = 3
mix.SCF: Spin-component mixing                   all
redata: Save all siesta data in one NC              =   F
redata: ***********************************************************************

%block SCF.Mixers
  Pulay
%endblock SCF.Mixers

%block SCF.Mixer.Pulay
  # Mixing method
  method pulay
  variant stable

  # Mixing options
  weight 0.2500
  weight.linear 0.2500
  history 6
  restart 24
  restart.save 3
%endblock SCF.Mixer.Pulay

DM_history_depth set to one: no extrapolation allowed by default for geometry relaxation
Size of DM history Fstack: 1
Total number of electrons:    98.000000
Total ionic charge:    98.000000

* ProcessorY, Blocksize:    2  24


* Orbital distribution balance (max,min):    81    72


Time-reversal symmetry not used.

siesta: k-grid: Number of k-points =     1
siesta: k-grid: Cutoff (effective) =     4.927 Ang
siesta: k-grid: Supercell and displacements
siesta: k-grid:    1   0   0      0.000
siesta: k-grid:    0   1   0      0.000
siesta: k-grid:    0   0   1      0.000

diag: Algorithm                                     = ELPA-1stage
diag: Parallel over k                               =   F
diag: Use parallel 2D distribution                  =   T
diag: Parallel block-size                           = 24
diag: Parallel distribution                         =     2 x     2
diag: Used triangular part                          = Lower
diag: Absolute tolerance                            =  0.100E-15
diag: Orthogonalization factor                      =  0.100E-05
diag: Memory factor                                 =  1.0000


ts: **************************************************************
ts: Save H and S matrices                           =    F
ts: Save DM and EDM matrices                        =    F
ts: Only save the overlap matrix S                  =    F
ts: **************************************************************

************************ Begin: TS CHECKS AND WARNINGS ************************
************************ End: TS CHECKS AND WARNINGS **************************


                     ====================================
                        Single-point calculation
                     ====================================

outcoor: Atomic coordinates (Ang):                          
    1.04362488    3.93922861    0.00000000   1       1  O
   -3.04064129    1.07107817    0.00000000   2       2  N
    2.05460145    1.21358207    0.00000000   2       3  N
    0.99901410   -1.73264380    0.00000000   2       4  N
   -2.13235164   -1.81296822    0.00000000   2       5  N
    3.86019055   -1.11229818    0.00000000   2       6  N
   -1.23618322    1.15296446    0.00000000   3       7  Si
   -0.53292426   -0.93900627    0.00000000   3       8  Si
    0.63566047    2.37451677    0.00000000   3       9  Si
    2.24517024   -0.54996710    0.00000000   3      10  Si
   -3.44981666   -0.58366503    0.00000000   3      11  Si
    2.96371409    1.79099263    0.00000000   4      12  H
   -4.84559135   -1.12354966    0.00000000   4      13  H
    4.00702091   -2.15230856    0.00000000   4      14  H
    4.77219438   -0.50231816    0.00000000   4      15  H
   -2.26539909   -2.86460511    0.00000000   4      16  H
    7.28794473    6.50535069    0.00000000   3      17  Si
    9.19282870    7.71198963    0.00000000   3      18  Si
    8.69707456    3.73901572    0.00000000   3      19  Si
   10.77454485    6.20823288    0.00000000   3      20  Si
    7.34756740    4.78792312    0.00000000   2      21  N
    5.74880967    7.25902800    0.00000000   2      22  N
   10.34936982    4.46885294    0.00000000   2      23  N
    9.38417350    9.20414338    0.00000000   4      24  H
   12.25891283    6.42696370    0.00000000   4      25  H
    5.63746439    8.30822311    0.00000000   4      26  H
    4.81625196    6.63411382    0.00000000   4      27  H
    8.68684773    2.13090460    0.00000000   1      28  O
   11.12479570    3.74216138    0.00000000   4      29  H

outcell: Unit cell vectors (Ang):
       26.403537    0.000000    0.000000
        0.000000   20.864206    0.000000
        0.000000    0.000000    9.854683

outcell: Cell vector modules (Ang)   :   26.403537   20.864206    9.854683
outcell: Cell angles (23,13,12) (deg):     90.0000     90.0000     90.0000
outcell: Cell volume (Ang**3)        :   5428.8351
<dSpData1D:S at geom step 0
  <sparsity:sparsity for geom step 0
    nrows_g=297 nrows=81 sparsity=.1498 nnzs=13218, refcount: 8>
  <dData1D:(new from dSpData1D) n=13218, refcount: 1>
refcount: 1>
new_DM -- step:     1
Initializing Density Matrix...
DM filled with atomic data:
<dSpData2D:DM initialized from atoms
  <sparsity:sparsity for geom step 0
    nrows_g=297 nrows=81 sparsity=.1498 nnzs=13218, refcount: 9>
  <dData2D:DM n=13218 m=8, refcount: 1>
refcount: 1>
     spin moment: S , {S} =   56.00000   0.00000   0.00000  56.00000
No. of atoms with KB's overlaping orbs in proc 0. Max # of overlaps:      29     142

Initializing spin-orbit part of the Hamiltonian
  Adding spin-orbit effects for O 
  Adding spin-orbit effects for N 
  Adding spin-orbit effects for Si
  Adding spin-orbit effects for H 


New grid distribution:   1
           1       1:  150    1:   60    1:   30
           2       1:  150    1:   60   31:   60
           3       1:  150   61:  120    1:   30
           4       1:  150   61:  120   31:   60

InitMesh: MESH =   300 x   240 x   120 =     8640000
InitMesh: (bp) =   150 x   120 x    60 =     1080000
InitMesh: Mesh cutoff (required, used) =   340.000   356.796 Ry
ExtMesh (bp) on 0 =   254 x   164 x   142 =     5915152
New grid distribution:   2
           1      50:  150    1:   33    1:   60
           2       1:   49    1:   34    1:   60
           3      50:  150   34:  120    1:   60
           4       1:   49   35:  120    1:   60
New grid distribution:   3
           1      53:  150    1:   37    1:   60
           2       1:   52    1:   39    1:   60
           3      53:  150   38:  120    1:   60
           4       1:   52   40:  120    1:   60
Setting up quadratic distribution...
ExtMesh (bp) on 0 =   205 x   137 x   172 =     4830620
PhiOnMesh: Number of (b)points on node 0 =               199980
PhiOnMesh: nlist on node 0 =              2502252

stepf: Fermi-Dirac step function

siesta: Program's energy decomposition (eV):
siesta: Ebs     =      -620.066136
siesta: Eions   =      3585.165840
siesta: Ena     =       382.019150
siesta: Ekin    =      3369.725325
siesta: Enl     =     -3298.289513
siesta: Eso     =        -0.003410
siesta: Edftu   =         0.000000
siesta: DEna    =       153.719852
siesta: DUscf   =        81.789683
siesta: DUext   =         0.000000
siesta: Exc     =     -1204.149232
siesta: eta*DQ  =         0.000000
siesta: Emadel  =         0.000000
siesta: Emeta   =         0.000000
siesta: Emolmec =         0.000000
siesta: Ekinion =         0.000000
siesta: Eharris =     -4020.598453
siesta: Etot    =     -4100.353984
siesta: FreeEng =     -4100.355407

        iscf     Eharris(eV)        E_KS(eV)     FreeEng(eV)     dDmax    Ef(eV) dHmax(eV)
   scf:    1    -4020.598453    -4100.353984    -4100.355407  0.965078 -4.904550 21.838320
     spin moment: S , {S} =    2.00728  -0.00000   0.00000   2.00728
timer: Routine,Calls,Time,% = IterSCF        1      12.361  17.50
   scf:    2    -4147.299802    -4135.894040    -4135.895745  0.452087 -4.222668 11.590433
     spin moment: S , {S} =    1.98981   0.00000   0.00000   1.98981
   scf:    3    -4108.228173    -4133.572466    -4133.586566  0.422303 -4.330773 11.838097
     spin moment: S , {S} =    2.05878  -0.00000  -0.00000   2.05878
   scf:    4    -4149.546620    -4144.906458    -4144.906458  0.314141 -3.902121  7.053981
     spin moment: S , {S} =    0.00010   0.00000  -0.00000   0.00010
   scf:    5    -4146.234053    -4145.675512    -4145.675512  0.036247 -3.689712  4.487466
     spin moment: S , {S} =    0.00006   0.00000   0.00000   0.00006
   scf:    6    -4146.456312    -4146.075522    -4146.075522  0.024402 -3.546505  2.165180
     spin moment: S , {S} =    0.00003  -0.00000  -0.00000   0.00003
   scf:    7    -4146.428059    -4146.248480    -4146.248480  0.021277 -3.759471  0.885211
     spin moment: S , {S} =    0.00001  -0.00000  -0.00000   0.00001
   scf:    8    -4146.368047    -4146.306293    -4146.306293  0.012335 -3.689503  0.500730
     spin moment: S , {S} =    0.00000  -0.00000  -0.00000   0.00000
   scf:    9    -4146.344605    -4146.324774    -4146.324774  0.006494 -3.804162  0.374252
     spin moment: S , {S} =    0.00000   0.00000  -0.00000   0.00000
   scf:   10    -4146.375574    -4146.344190    -4146.344190  0.021201 -3.792870  0.221568
     spin moment: S , {S} =    0.00000  -0.00000   0.00000  -0.00000
   scf:   11    -4146.347868    -4146.346016    -4146.346016  0.005641 -3.781995  0.058614
     spin moment: S , {S} =    0.00000   0.00000  -0.00000  -0.00000
   scf:   12    -4146.347060    -4146.346551    -4146.346551  0.001009 -3.777337  0.025641
     spin moment: S , {S} =    0.00000   0.00000   0.00000   0.00000
   scf:   13    -4146.347000    -4146.346772    -4146.346772  0.001285 -3.775697  0.016578
     spin moment: S , {S} =    0.00000   0.00000   0.00000   0.00000
   scf:   14    -4146.347018    -4146.346889    -4146.346889  0.001088 -3.773989  0.011213
     spin moment: S , {S} =    0.00000   0.00000   0.00000   0.00000
   scf:   15    -4146.346991    -4146.346936    -4146.346936  0.000898 -3.774406  0.008404
     spin moment: S , {S} =    0.00000   0.00000   0.00000   0.00000
   scf:   16    -4146.347013    -4146.346970    -4146.346970  0.001036 -3.775051  0.005552
     spin moment: S , {S} =    0.00000   0.00000  -0.00000   0.00000
   scf:   17    -4146.346988    -4146.346978    -4146.346978  0.000455 -3.775074  0.004201
     spin moment: S , {S} =    0.00000   0.00000  -0.00000   0.00000
   scf:   18    -4146.346988    -4146.346982    -4146.346982  0.000356 -3.775277  0.002545
     spin moment: S , {S} =    0.00000   0.00000  -0.00000   0.00000
   scf:   19    -4146.346987    -4146.346984    -4146.346984  0.000273 -3.775425  0.001589
     spin moment: S , {S} =    0.00000   0.00000  -0.00000   0.00000
   scf:   20    -4146.346987    -4146.346985    -4146.346985  0.000200 -3.775419  0.000859
     spin moment: S , {S} =    0.00000   0.00000  -0.00000   0.00000
   scf:   21    -4146.346986    -4146.346986    -4146.346986  0.000144 -3.775398  0.000336
     spin moment: S , {S} =    0.00000   0.00000  -0.00000   0.00000
   scf:   22    -4146.346986    -4146.346986    -4146.346986  0.000058 -3.775365  0.000137
     spin moment: S , {S} =    0.00000   0.00000  -0.00000   0.00000
   scf:   23    -4146.346986    -4146.346986    -4146.346986  0.000015 -3.775360  0.000089
     spin moment: S , {S} =    0.00000   0.00000  -0.00000   0.00000
   scf:   24    -4146.346986    -4146.346986    -4146.346986  0.000006 -3.775357  0.000043
     spin moment: S , {S} =    0.00000   0.00000  -0.00000   0.00000
mix: Pulay -- resetting history
   scf:   25    -4146.346986    -4146.346986    -4146.346986  0.000004 -3.775355  0.000028
     spin moment: S , {S} =    0.00000   0.00000  -0.00000   0.00000
   scf:   26    -4146.346986    -4146.346986    -4146.346986  0.000001 -3.775354  0.000022
     spin moment: S , {S} =    0.00000   0.00000  -0.00000   0.00000
   scf:   27    -4146.346986    -4146.346986    -4146.346986  0.000002 -3.775352  0.000013
     spin moment: S , {S} =    0.00000   0.00000  -0.00000  -0.00000
   scf:   28    -4146.346986    -4146.346986    -4146.346986  0.000001 -3.775352  0.000008
     spin moment: S , {S} =    0.00000   0.00000  -0.00000  -0.00000
   scf:   29    -4146.346986    -4146.346986    -4146.346986  0.000001 -3.775352  0.000004
     spin moment: S , {S} =    0.00000   0.00000  -0.00000  -0.00000
   scf:   30    -4146.346986    -4146.346986    -4146.346986  0.000001 -3.775352  0.000003
     spin moment: S , {S} =    0.00000   0.00000  -0.00000  -0.00000
   scf:   31    -4146.346986    -4146.346986    -4146.346986  0.000000 -3.775352  0.000001
     spin moment: S , {S} =    0.00000   0.00000  -0.00000  -0.00000
   scf:   32    -4146.346986    -4146.346986    -4146.346986  0.000000 -3.775352  0.000001
     spin moment: S , {S} =    0.00000   0.00000  -0.00000   0.00000

SCF Convergence by DM+H criterion
max |DM_out - DM_in|         :     0.0000001653
max |H_out - H_in|      (eV) :     0.0000006840
SCF cycle converged after 32 iterations

Using DM_out to compute the final energy and forces
No. of atoms with KB's overlaping orbs in proc 0. Max # of overlaps:      29     142

siesta: E_KS(eV) =            -4146.3470

siesta: E_KS - E_eggbox =     -4146.3470
     spin moment: S , {S} =    0.00000   0.00000  -0.00000   0.00000

siesta: Atomic forces (eV/Ang):
     1    2.595507   -2.762206   -0.000000
     2    0.007324    0.030357   -0.000000
     3    0.774456   -0.396547    0.000000
     4    0.748110   -0.018546   -0.000000
     5    0.037551   -0.088075    0.000000
     6    1.789669    0.674057    0.000000
     7    0.042689   -0.259153    0.000000
     8   -0.422970    0.292640   -0.000000
     9   -0.195182    1.287368   -0.000000
    10   -1.047124    0.365129   -0.000000
    11   -0.025109   -0.021055    0.000000
    12   -0.335537   -0.199178   -0.000000
    13    0.122683   -0.134600    0.000000
    14    0.213677   -0.101233   -0.000000
    15   -1.379792   -0.944390    0.000000
    16   -0.150227    0.115431   -0.000000
    17    1.030958   -1.123043   -0.000000
    18   -0.219414    0.200943    0.000000
    19   -0.196589   -1.273886   -0.000000
    20   -0.013381   -0.424570    0.000000
    21   -0.314411    1.059343    0.000000
    22   -2.195991   -0.894076   -0.000000
    23    0.256009    0.559968   -0.000000
    24    0.139833   -0.016210   -0.000000
    25   -0.002975    0.044579    0.000000
    26   -0.271503   -0.160924    0.000000
    27    1.695978    1.337853    0.000000
    28    4.136036    0.492947   -0.000000
    29   -0.092836    0.093015    0.000000
----------------------------------------
   Tot    6.727439   -2.264062    0.000000
----------------------------------------
   Max    4.136036
   Res    0.825699    sqrt( Sum f_i^2 / 3N )
----------------------------------------
   Max    4.136036    constrained

Stress tensor Voigt[x,y,z,yz,xz,xy] (kbar):        0.07        1.64       -0.08        0.00       -0.00        1.37
(Free)E + p*V (eV/cell)    -4148.1766
Target enthalpy (eV/cell)    -4146.3470

mulliken: Atomic and Orbital Populations:

Species: O                   

Atom      Orb        Charge      Spin       Svec
----------------------------------------------------------------
    1  1 2s         1.74835   0.00000     -0.000  -0.000  -0.000
    1  2 2s         0.06581   0.00000      0.000   0.000   0.000
    1  3 2py        1.42827   0.00000      0.000  -0.000  -0.000
    1  4 2pz        1.54545   0.00000     -0.000  -0.000  -0.000
    1  5 2px        1.62569   0.00000     -0.000  -0.000  -0.000
    1  6 2py        0.03828   0.00000     -0.000   0.000   0.000
    1  7 2pz       -0.00616   0.00000      0.000   0.000   0.000
    1  8 2px        0.00496   0.00000      0.000   0.000   0.000
    1  9 3Pdxy      0.00702   0.00000     -0.000   0.000   0.000
    1 10 3Pdyz      0.00903   0.00000      0.000  -0.000   0.000
    1 11 3Pdz2      0.00158   0.00000     -0.000   0.000  -0.000
    1 12 3Pdxz      0.00038   0.00000     -0.000   0.000   0.000
    1 13 3Pdx2-y2   0.00691   0.00000     -0.000  -0.000   0.000
    1     Total     6.47557   0.00000     -0.000  -0.000  -0.000

   28  1 2s         1.74943   0.00000      0.000  -0.000   0.000
   28  2 2s         0.06316   0.00000     -0.000   0.000   0.000
   28  3 2py        1.41091   0.00000      0.000  -0.000  -0.000
   28  4 2pz        1.54489   0.00000      0.000  -0.000  -0.000
   28  5 2px        1.64591   0.00000      0.000   0.000  -0.000
   28  6 2py        0.04121   0.00000     -0.000  -0.000   0.000
   28  7 2pz       -0.00539   0.00000     -0.000   0.000   0.000
   28  8 2px        0.01009   0.00000     -0.000  -0.000   0.000
   28  9 3Pdxy      0.00640   0.00000     -0.000  -0.000   0.000
   28 10 3Pdyz      0.00972   0.00000     -0.000   0.000  -0.000
   28 11 3Pdz2      0.00125   0.00000      0.000   0.000  -0.000
   28 12 3Pdxz     -0.00018   0.00000     -0.000  -0.000   0.000
   28 13 3Pdx2-y2   0.00770   0.00000      0.000  -0.000  -0.000
   28     Total     6.48511   0.00000      0.000  -0.000   0.000

----------------------------------------------------------------
Total              12.96068   0.00000      0.000  -0.000  -0.000


Species: N                   

Atom      Orb        Charge      Spin       Svec
----------------------------------------------------------------
    2  1 2s         1.55116   0.00000      0.000  -0.000  -0.000
    2  2 2s         0.08425   0.00000     -0.000   0.000   0.000
    2  3 2py        1.04389   0.00000     -0.000  -0.000  -0.000
    2  4 2pz        1.22425   0.00000     -0.000  -0.000  -0.000
    2  5 2px        0.98982   0.00000     -0.000   0.000  -0.000
    2  6 2py        0.18840   0.00000      0.000   0.000   0.000
    2  7 2pz        0.05542   0.00000      0.000  -0.000   0.000
    2  8 2px        0.19581   0.00000      0.000  -0.000   0.000
    2  9 3Pdxy      0.00839   0.00000     -0.000   0.000  -0.000
    2 10 3Pdyz      0.01098   0.00000      0.000   0.000   0.000
    2 11 3Pdz2      0.00195   0.00000      0.000   0.000   0.000
    2 12 3Pdxz      0.00758   0.00000      0.000  -0.000   0.000
    2 13 3Pdx2-y2   0.00908   0.00000      0.000   0.000  -0.000
    2     Total     5.37099   0.00000     -0.000  -0.000  -0.000

    3  1 2s         1.40072   0.00000      0.000   0.000  -0.000
    3  2 2s         0.11638   0.00000      0.000  -0.000   0.000
    3  3 2py        0.94180   0.00000      0.000   0.000  -0.000
    3  4 2pz        1.54373   0.00000      0.000  -0.000  -0.000
    3  5 2px        1.08264   0.00000     -0.000  -0.000  -0.000
    3  6 2py        0.24846   0.00000     -0.000  -0.000   0.000
    3  7 2pz        0.00713   0.00000     -0.000  -0.000   0.000
    3  8 2px        0.17819   0.00000      0.000   0.000   0.000
    3  9 3Pdxy      0.00398   0.00000     -0.000  -0.000   0.000
    3 10 3Pdyz      0.00416   0.00000      0.000  -0.000  -0.000
    3 11 3Pdz2      0.00075   0.00000      0.000  -0.000   0.000
    3 12 3Pdxz      0.00278   0.00000     -0.000   0.000  -0.000
    3 13 3Pdx2-y2   0.00282   0.00000     -0.000  -0.000  -0.000
    3     Total     5.53354   0.00000      0.000  -0.000  -0.000

    4  1 2s         1.45989   0.00000      0.000   0.000  -0.000
    4  2 2s         0.11889   0.00000     -0.000  -0.000   0.000
    4  3 2py        1.13080   0.00000      0.000  -0.000  -0.000
    4  4 2pz        1.29474   0.00000     -0.000   0.000  -0.000
    4  5 2px        0.82601   0.00000     -0.000  -0.000  -0.000
    4  6 2py        0.14960   0.00000     -0.000   0.000   0.000
    4  7 2pz        0.05354   0.00000      0.000  -0.000   0.000
    4  8 2px        0.29226   0.00000      0.000   0.000   0.000
    4  9 3Pdxy      0.00869   0.00000     -0.000  -0.000  -0.000
    4 10 3Pdyz      0.01045   0.00000     -0.000  -0.000   0.000
    4 11 3Pdz2      0.00126   0.00000      0.000   0.000   0.000
    4 12 3Pdxz      0.00497   0.00000     -0.000  -0.000  -0.000
    4 13 3Pdx2-y2   0.00798   0.00000      0.000  -0.000  -0.000
    4     Total     5.35909   0.00000      0.000   0.000  -0.000

    5  1 2s         1.37622   0.00000     -0.000   0.000  -0.000
    5  2 2s         0.12795   0.00000      0.000  -0.000   0.000
    5  3 2py        1.02631   0.00000     -0.000   0.000  -0.000
    5  4 2pz        1.50081   0.00000     -0.000   0.000  -0.000
    5  5 2px        1.06001   0.00000     -0.000  -0.000  -0.000
    5  6 2py        0.20366   0.00000      0.000  -0.000   0.000
    5  7 2pz        0.01338   0.00000      0.000  -0.000   0.000
    5  8 2px        0.20099   0.00000     -0.000   0.000   0.000
    5  9 3Pdxy      0.00393   0.00000      0.000  -0.000   0.000
    5 10 3Pdyz      0.00241   0.00000     -0.000  -0.000   0.000
    5 11 3Pdz2      0.00142   0.00000      0.000  -0.000   0.000
    5 12 3Pdxz      0.00684   0.00000      0.000   0.000   0.000
    5 13 3Pdx2-y2   0.00559   0.00000      0.000  -0.000   0.000
    5     Total     5.52953   0.00000     -0.000  -0.000  -0.000

    6  1 2s         1.26995   0.00000     -0.000   0.000  -0.000
    6  2 2s         0.17905   0.00000      0.000  -0.000   0.000
    6  3 2py        1.07764   0.00000     -0.000   0.000  -0.000
    6  4 2pz        1.57303   0.00000      0.000   0.000  -0.000
    6  5 2px        0.95672   0.00000     -0.000  -0.000  -0.000
    6  6 2py        0.18773   0.00000      0.000   0.000   0.000
    6  7 2pz        0.02990   0.00000     -0.000  -0.000   0.000
    6  8 2px        0.25551   0.00000     -0.000   0.000   0.000
    6  9 3Pdxy      0.00242   0.00000      0.000  -0.000   0.000
    6 10 3Pdyz      0.00016   0.00000      0.000  -0.000  -0.000
    6 11 3Pdz2      0.00176   0.00000      0.000   0.000   0.000
    6 12 3Pdxz      0.00327   0.00000     -0.000  -0.000   0.000
    6 13 3Pdx2-y2   0.00397   0.00000     -0.000  -0.000   0.000
    6     Total     5.54111   0.00000      0.000   0.000  -0.000

   21  1 2s         1.42387   0.00000      0.000  -0.000  -0.000
   21  2 2s         0.12812   0.00000     -0.000   0.000   0.000
   21  3 2py        0.87166   0.00000     -0.000   0.000  -0.000
   21  4 2pz        1.29505   0.00000      0.000   0.000  -0.000
   21  5 2px        1.15683   0.00000      0.000   0.000  -0.000
   21  6 2py        0.27550   0.00000      0.000  -0.000   0.000
   21  7 2pz        0.04888   0.00000     -0.000   0.000   0.000
   21  8 2px        0.16295   0.00000     -0.000  -0.000   0.000
   21  9 3Pdxy      0.00646   0.00000      0.000   0.000   0.000
   21 10 3Pdyz      0.00505   0.00000      0.000  -0.000  -0.000
   21 11 3Pdz2      0.00016   0.00000     -0.000  -0.000  -0.000
   21 12 3Pdxz      0.00577   0.00000      0.000   0.000  -0.000
   21 13 3Pdx2-y2   0.00561   0.00000     -0.000   0.000  -0.000
   21     Total     5.38591   0.00000      0.000   0.000  -0.000

   22  1 2s         1.29467   0.00000     -0.000   0.000  -0.000
   22  2 2s         0.16775   0.00000      0.000  -0.000   0.000
   22  3 2py        1.05735   0.00000     -0.000   0.000  -0.000
   22  4 2pz        1.55604   0.00000      0.000  -0.000  -0.000
   22  5 2px        0.98390   0.00000      0.000   0.000  -0.000
   22  6 2py        0.19646   0.00000      0.000  -0.000   0.000
   22  7 2pz        0.02839   0.00000     -0.000   0.000   0.000
   22  8 2px        0.23481   0.00000     -0.000   0.000   0.000
   22  9 3Pdxy      0.00327   0.00000     -0.000  -0.000   0.000
   22 10 3Pdyz      0.00034   0.00000     -0.000   0.000  -0.000
   22 11 3Pdz2      0.00255   0.00000      0.000  -0.000   0.000
   22 12 3Pdxz      0.00318   0.00000      0.000  -0.000   0.000
   22 13 3Pdx2-y2   0.00476   0.00000      0.000  -0.000  -0.000
   22     Total     5.53347   0.00000      0.000  -0.000  -0.000

   23  1 2s         1.39698   0.00000     -0.000   0.000  -0.000
   23  2 2s         0.11799   0.00000      0.000  -0.000  -0.000
   23  3 2py        1.00699   0.00000      0.000   0.000  -0.000
   23  4 2pz        1.52503   0.00000      0.000  -0.000  -0.000
   23  5 2px        1.06482   0.00000      0.000  -0.000  -0.000
   23  6 2py        0.21150   0.00000     -0.000  -0.000   0.000
   23  7 2pz        0.00497   0.00000     -0.000  -0.000   0.000
   23  8 2px        0.19801   0.00000     -0.000   0.000   0.000
   23  9 3Pdxy      0.00528   0.00000      0.000  -0.000   0.000
   23 10 3Pdyz      0.00445   0.00000      0.000   0.000  -0.000
   23 11 3Pdz2      0.00062   0.00000     -0.000  -0.000  -0.000
   23 12 3Pdxz      0.00244   0.00000      0.000   0.000  -0.000
   23 13 3Pdx2-y2   0.00136   0.00000     -0.000  -0.000  -0.000
   23     Total     5.54044   0.00000      0.000  -0.000  -0.000

----------------------------------------------------------------
Total              56.75477   0.00000      0.000  -0.000  -0.000


Species: Si                  

Atom      Orb        Charge      Spin       Svec
----------------------------------------------------------------
    7  1 3s         0.66794   0.00000      0.000  -0.000   0.000
    7  2 3s         0.36485   0.00000     -0.000   0.000   0.000
    7  3 3py        0.48819   0.00000     -0.000  -0.000   0.000
    7  4 3pz        0.69119   0.00000     -0.000   0.000  -0.000
    7  5 3px        0.12513   0.00000      0.000   0.000  -0.000
    7  6 3py        0.26434   0.00000      0.000   0.000   0.000
    7  7 3pz        0.25896   0.00000      0.000  -0.000   0.000
    7  8 3px        0.43812   0.00000     -0.000  -0.000   0.000
    7  9 3Pdxy      0.24556   0.00000     -0.000   0.000   0.000
    7 10 3Pdyz      0.02934   0.00000      0.000  -0.000   0.000
    7 11 3Pdz2      0.01177   0.00000     -0.000   0.000   0.000
    7 12 3Pdxz      0.14556   0.00000      0.000   0.000  -0.000
    7 13 3Pdx2-y2   0.11292   0.00000     -0.000   0.000  -0.000
    7     Total     3.84388   0.00000     -0.000   0.000   0.000

    8  1 3s         0.65686   0.00000      0.000  -0.000  -0.000
    8  2 3s         0.36849   0.00000     -0.000   0.000   0.000
    8  3 3py        0.38810   0.00000      0.000   0.000  -0.000
    8  4 3pz        0.52515   0.00000     -0.000  -0.000   0.000
    8  5 3px       -0.03064   0.00000      0.000   0.000  -0.000
    8  6 3py        0.30887   0.00000     -0.000  -0.000   0.000
    8  7 3pz        0.20203   0.00000      0.000   0.000   0.000
    8  8 3px        0.51466   0.00000     -0.000  -0.000   0.000
    8  9 3Pdxy      0.24598   0.00000     -0.000   0.000   0.000
    8 10 3Pdyz      0.11217   0.00000      0.000  -0.000  -0.000
    8 11 3Pdz2      0.01451   0.00000     -0.000  -0.000   0.000
    8 12 3Pdxz      0.15337   0.00000     -0.000   0.000   0.000
    8 13 3Pdx2-y2   0.20025   0.00000     -0.000   0.000   0.000
    8     Total     3.65979   0.00000     -0.000  -0.000   0.000

    9  1 3s         0.60463   0.00000      0.000   0.000   0.000
    9  2 3s         0.36606   0.00000     -0.000  -0.000  -0.000
    9  3 3py        0.07514   0.00000     -0.000   0.000  -0.000
    9  4 3pz        0.48501   0.00000      0.000   0.000  -0.000
    9  5 3px        0.37930   0.00000      0.000   0.000  -0.000
    9  6 3py        0.44748   0.00000     -0.000  -0.000  -0.000
    9  7 3pz        0.18714   0.00000     -0.000   0.000  -0.000
    9  8 3px        0.27331   0.00000     -0.000  -0.000   0.000
    9  9 3Pdxy      0.31251   0.00000     -0.000  -0.000   0.000
    9 10 3Pdyz      0.19007   0.00000      0.000   0.000  -0.000
    9 11 3Pdz2      0.01644   0.00000     -0.000  -0.000  -0.000
    9 12 3Pdxz      0.09743   0.00000     -0.000  -0.000  -0.000
    9 13 3Pdx2-y2   0.17203   0.00000      0.000   0.000   0.000
    9     Total     3.60656   0.00000      0.000   0.000  -0.000

   10  1 3s         0.48266   0.00000      0.000   0.000   0.000
   10  2 3s         0.37773   0.00000     -0.000  -0.000   0.000
   10  3 3py        0.24143   0.00000     -0.000   0.000   0.000
   10  4 3pz        0.40868   0.00000     -0.000   0.000   0.000
   10  5 3px        0.10111   0.00000      0.000   0.000  -0.000
   10  6 3py        0.32758   0.00000      0.000  -0.000   0.000
   10  7 3pz        0.22256   0.00000     -0.000  -0.000   0.000
   10  8 3px        0.42889   0.00000     -0.000  -0.000   0.000
   10  9 3Pdxy      0.16947   0.00000      0.000  -0.000  -0.000
   10 10 3Pdyz      0.13986   0.00000     -0.000  -0.000   0.000
   10 11 3Pdz2      0.01034   0.00000      0.000  -0.000   0.000
   10 12 3Pdxz      0.17478   0.00000     -0.000   0.000   0.000
   10 13 3Pdx2-y2   0.31005   0.00000      0.000   0.000  -0.000
   10     Total     3.39513   0.00000     -0.000  -0.000   0.000

   11  1 3s         0.55264   0.00000      0.000  -0.000   0.000
   11  2 3s         0.38536   0.00000     -0.000   0.000   0.000
   11  3 3py        0.32184   0.00000      0.000  -0.000   0.000
   11  4 3pz        0.54047   0.00000      0.000   0.000   0.000
   11  5 3px        0.12438   0.00000      0.000  -0.000   0.000
   11  6 3py        0.28680   0.00000      0.000   0.000   0.000
   11  7 3pz        0.17747   0.00000     -0.000   0.000   0.000
   11  8 3px        0.44636   0.00000     -0.000   0.000  -0.000
   11  9 3Pdxy      0.22533   0.00000     -0.000  -0.000   0.000
   11 10 3Pdyz      0.12630   0.00000      0.000  -0.000   0.000
   11 11 3Pdz2      0.00958   0.00000      0.000  -0.000  -0.000
   11 12 3Pdxz      0.05275   0.00000     -0.000  -0.000   0.000
   11 13 3Pdx2-y2   0.20383   0.00000      0.000   0.000   0.000
   11     Total     3.45311   0.00000      0.000  -0.000   0.000

   17  1 3s         0.63896   0.00000     -0.000  -0.000   0.000
   17  2 3s         0.36075   0.00000      0.000   0.000  -0.000
   17  3 3py        0.22727   0.00000     -0.000   0.000   0.000
   17  4 3pz        0.42300   0.00000     -0.000  -0.000   0.000
   17  5 3px        0.24485   0.00000      0.000  -0.000   0.000
   17  6 3py        0.38766   0.00000     -0.000  -0.000  -0.000
   17  7 3pz        0.21143   0.00000      0.000  -0.000   0.000
   17  8 3px        0.36871   0.00000     -0.000   0.000  -0.000
   17  9 3Pdxy      0.30173   0.00000      0.000  -0.000  -0.000
   17 10 3Pdyz      0.14284   0.00000      0.000   0.000   0.000
   17 11 3Pdz2      0.00905   0.00000     -0.000   0.000   0.000
   17 12 3Pdxz      0.14329   0.00000      0.000  -0.000   0.000
   17 13 3Pdx2-y2   0.16350   0.00000     -0.000  -0.000   0.000
   17     Total     3.62305   0.00000      0.000  -0.000   0.000

   18  1 3s         0.74430   0.00000     -0.000   0.000   0.000
   18  2 3s         0.33955   0.00000      0.000  -0.000   0.000
   18  3 3py        0.07922   0.00000      0.000  -0.000   0.000
   18  4 3pz        0.82155   0.00000     -0.000   0.000   0.000
   18  5 3px        0.55521   0.00000      0.000   0.000   0.000
   18  6 3py        0.51821   0.00000     -0.000   0.000   0.000
   18  7 3pz        0.19772   0.00000      0.000   0.000   0.000
   18  8 3px        0.25023   0.00000     -0.000  -0.000   0.000
   18  9 3Pdxy      0.10333   0.00000      0.000   0.000  -0.000
   18 10 3Pdyz      0.02745   0.00000      0.000  -0.000  -0.000
   18 11 3Pdz2      0.00872   0.00000     -0.000   0.000  -0.000
   18 12 3Pdxz      0.03026   0.00000     -0.000  -0.000  -0.000
   18 13 3Pdx2-y2   0.11300   0.00000     -0.000   0.000   0.000
   18     Total     3.78876   0.00000     -0.000   0.000   0.000

   19  1 3s         0.45941   0.00000     -0.000   0.000   0.000
   19  2 3s         0.36507   0.00000      0.000   0.000  -0.000
   19  3 3py        0.08290   0.00000      0.000   0.000   0.000
   19  4 3pz        0.42954   0.00000     -0.000   0.000   0.000
   19  5 3px        0.35732   0.00000      0.000  -0.000   0.000
   19  6 3py        0.47023   0.00000     -0.000  -0.000  -0.000
   19  7 3pz        0.18274   0.00000      0.000  -0.000  -0.000
   19  8 3px        0.23841   0.00000     -0.000   0.000  -0.000
   19  9 3Pdxy      0.34169   0.00000     -0.000   0.000  -0.000
   19 10 3Pdyz      0.18868   0.00000      0.000   0.000  -0.000
   19 11 3Pdz2      0.01598   0.00000      0.000   0.000   0.000
   19 12 3Pdxz      0.08802   0.00000     -0.000   0.000   0.000
   19 13 3Pdx2-y2   0.23781   0.00000      0.000   0.000   0.000
   19     Total     3.45780   0.00000     -0.000   0.000  -0.000

   20  1 3s         0.67342   0.00000      0.000  -0.000  -0.000
   20  2 3s         0.37798   0.00000     -0.000   0.000   0.000
   20  3 3py        0.33071   0.00000     -0.000   0.000  -0.000
   20  4 3pz        0.59069   0.00000      0.000  -0.000  -0.000
   20  5 3px        0.13817   0.00000     -0.000   0.000  -0.000
   20  6 3py        0.29220   0.00000      0.000  -0.000  -0.000
   20  7 3pz        0.16376   0.00000     -0.000   0.000  -0.000
   20  8 3px        0.49969   0.00000      0.000   0.000   0.000
   20  9 3Pdxy      0.10019   0.00000      0.000   0.000  -0.000
   20 10 3Pdyz      0.13372   0.00000     -0.000   0.000  -0.000
   20 11 3Pdz2      0.00736   0.00000      0.000  -0.000   0.000
   20 12 3Pdxz      0.02694   0.00000      0.000  -0.000  -0.000
   20 13 3Pdx2-y2   0.17211   0.00000     -0.000   0.000  -0.000
   20     Total     3.50694   0.00000     -0.000   0.000  -0.000

----------------------------------------------------------------
Total              89.08978   0.00000     -0.000   0.000   0.000


Species: H                   

Atom      Orb        Charge      Spin       Svec
----------------------------------------------------------------
   12  1 1s         0.49589   0.00000      0.000   0.000   0.000
   12  2 1s         0.18190   0.00000     -0.000  -0.000   0.000
   12  3 2Ppy       0.02906   0.00000     -0.000   0.000   0.000
   12  4 2Ppz       0.03399   0.00000      0.000  -0.000  -0.000
   12  5 2Ppx       0.02274   0.00000      0.000  -0.000   0.000
   12     Total     0.76358   0.00000      0.000  -0.000   0.000

   13  1 1s         1.01866   0.00000      0.000   0.000  -0.000
   13  2 1s         0.09577   0.00000     -0.000  -0.000   0.000
   13  3 2Ppy       0.01808   0.00000      0.000   0.000   0.000
   13  4 2Ppz       0.02007   0.00000     -0.000  -0.000   0.000
   13  5 2Ppx       0.03513   0.00000     -0.000  -0.000   0.000
   13     Total     1.18771   0.00000      0.000   0.000  -0.000

   14  1 1s         0.46005   0.00000      0.000   0.000   0.000
   14  2 1s         0.20002   0.00000     -0.000   0.000   0.000
   14  3 2Ppy       0.01789   0.00000      0.000  -0.000  -0.000
   14  4 2Ppz       0.04542   0.00000     -0.000   0.000   0.000
   14  5 2Ppx       0.01712   0.00000      0.000   0.000   0.000
   14     Total     0.74050   0.00000      0.000   0.000   0.000

   15  1 1s         0.49567   0.00000      0.000  -0.000  -0.000
   15  2 1s         0.17868   0.00000      0.000   0.000   0.000
   15  3 2Ppy       0.00505   0.00000      0.000  -0.000   0.000
   15  4 2Ppz       0.04218   0.00000     -0.000  -0.000  -0.000
   15  5 2Ppx       0.02805   0.00000     -0.000  -0.000   0.000
   15     Total     0.74963   0.00000      0.000  -0.000   0.000

   16  1 1s         0.50982   0.00000      0.000  -0.000   0.000
   16  2 1s         0.18736   0.00000      0.000   0.000   0.000
   16  3 2Ppy       0.02979   0.00000      0.000  -0.000   0.000
   16  4 2Ppz       0.03981   0.00000      0.000  -0.000   0.000
   16  5 2Ppx       0.02359   0.00000     -0.000   0.000   0.000
   16     Total     0.79037   0.00000      0.000  -0.000   0.000

   24  1 1s         1.06317   0.00000      0.000  -0.000  -0.000
   24  2 1s         0.07427   0.00000     -0.000   0.000   0.000
   24  3 2Ppy       0.03211   0.00000      0.000  -0.000   0.000
   24  4 2Ppz       0.03070   0.00000      0.000   0.000   0.000
   24  5 2Ppx       0.01729   0.00000      0.000  -0.000  -0.000
   24     Total     1.21754   0.00000      0.000  -0.000  -0.000

   25  1 1s         1.04319   0.00000      0.000  -0.000  -0.000
   25  2 1s         0.08655   0.00000     -0.000   0.000  -0.000
   25  3 2Ppy       0.01226   0.00000     -0.000   0.000  -0.000
   25  4 2Ppz       0.01848   0.00000     -0.000  -0.000  -0.000
   25  5 2Ppx       0.03570   0.00000     -0.000  -0.000   0.000
   25     Total     1.19618   0.00000      0.000  -0.000  -0.000

   26  1 1s         0.47476   0.00000     -0.000   0.000   0.000
   26  2 1s         0.19624   0.00000      0.000  -0.000   0.000
   26  3 2Ppy       0.02097   0.00000     -0.000  -0.000  -0.000
   26  4 2Ppz       0.04889   0.00000     -0.000  -0.000  -0.000
   26  5 2Ppx       0.01603   0.00000     -0.000   0.000  -0.000
   26     Total     0.75689   0.00000     -0.000   0.000   0.000

   27  1 1s         0.51029   0.00000     -0.000  -0.000  -0.000
   27  2 1s         0.16914   0.00000     -0.000   0.000   0.000
   27  3 2Ppy       0.00658   0.00000      0.000  -0.000  -0.000
   27  4 2Ppz       0.03732   0.00000      0.000   0.000  -0.000
   27  5 2Ppx       0.02852   0.00000     -0.000  -0.000   0.000
   27     Total     0.75185   0.00000     -0.000   0.000  -0.000

   29  1 1s         0.48476   0.00000     -0.000   0.000   0.000
   29  2 1s         0.18761   0.00000      0.000   0.000   0.000
   29  3 2Ppy       0.02512   0.00000     -0.000   0.000  -0.000
   29  4 2Ppz       0.03432   0.00000      0.000  -0.000  -0.000
   29  5 2Ppx       0.02416   0.00000      0.000   0.000   0.000
   29     Total     0.75597   0.00000     -0.000   0.000   0.000

----------------------------------------------------------------
Total              98.00000   0.00000      0.000  -0.000   0.000


siesta: Eigenvalues (eV):
ik =     1
  -21.9001  -21.9001  -21.7811  -21.7811  -21.5868  -21.5868  -21.5696  -21.5696  -21.2408  -21.2408
  -20.9951  -20.9951  -20.8397  -20.8397  -19.8322  -19.8322  -19.3831  -19.3831  -19.3700  -19.3700
  -14.7376  -14.7376  -13.8922  -13.8922  -13.3343  -13.3343  -13.1956  -13.1956  -13.1130  -13.1130
  -12.8688  -12.8688  -12.8593  -12.8593  -12.4597  -12.4597  -12.3826  -12.3826  -12.0149  -12.0149
  -11.4562  -11.4562  -10.7962  -10.7962  -10.7643  -10.7643  -10.7158  -10.7158  -10.0828  -10.0828
   -9.5311   -9.5311   -9.2460   -9.2460   -8.8710   -8.8710   -8.7119   -8.7119   -8.6563   -8.6563
   -8.6549   -8.6549   -8.3875   -8.3875   -8.1956   -8.1956   -7.8267   -7.8267   -7.6544   -7.6544
   -7.5626   -7.5626   -7.3379   -7.3379   -7.3086   -7.3086   -6.8952   -6.8952   -6.7379   -6.7379
   -6.5260   -6.5260   -6.4928   -6.4928   -6.1089   -6.1089   -6.0926   -6.0926   -6.0820   -6.0820
   -5.7072   -5.7072   -5.6483   -5.6483   -5.4389   -5.4389   -4.3182   -4.3182   -3.2310   -3.2310
   -2.3278   -2.3278   -2.2875   -2.2875   -2.2510   -2.2510   -1.8863   -1.8863   -1.8692   -1.8692
   -1.8268   -1.8268   -1.7639   -1.7639   -1.5602   -1.5602   -1.5446   -1.5446   -0.9764   -0.9764
   -0.9606   -0.9606   -0.8246   -0.8246   -0.3908   -0.3908   -0.1657   -0.1657    0.0327    0.0327
    0.3312    0.3312    0.4284    0.4284    0.5411    0.5411    0.7123    0.7123    0.7699    0.7699
    0.9841    0.9841    1.2421    1.2421    1.2901    1.2901    1.4003    1.4003    1.4524    1.4524
    1.6769    1.6769    1.8240    1.8240    1.9156    1.9156    2.3557    2.3557    2.7344    2.7344
    2.7397    2.7397    2.8333    2.8333    3.0153    3.0153    3.1265    3.1265    3.3267    3.3267
    3.3798    3.3798    3.7759    3.7759    3.8605    3.8605    4.0922    4.0922    4.2947    4.2947
    4.4279    4.4279    4.5139    4.5139    4.5798    4.5798    4.5972    4.5972    4.8465    4.8465
    4.9487    4.9487    4.9939    4.9939    5.2368    5.2368    5.4988    5.4988    5.6708    5.6708
    5.7027    5.7027    5.7793    5.7793    5.9102    5.9102    5.9776    5.9776    5.9795    5.9795
    6.1829    6.1829    6.3299    6.3299    6.6309    6.6309    6.7321    6.7321    6.8149    6.8149
    7.0548    7.0548    7.1925    7.1925    7.3860    7.3860    7.5300    7.5300    7.7387    7.7387
    7.8048    7.8048    8.0272    8.0272    8.0948    8.0948    8.2365    8.2365    8.2646    8.2646
    8.5272    8.5272    8.6799    8.6799    8.7642    8.7642    8.9469    8.9469    9.1973    9.1973
    9.2250    9.2250    9.2630    9.2630    9.7275    9.7275    9.8194    9.8194    9.8448    9.8448
    9.9887    9.9887   10.1663   10.1663   10.4306   10.4306   10.7711   10.7711   10.8467   10.8467
   10.9380   10.9380   11.0818   11.0818   11.1960   11.1960   11.6985   11.6985   11.8444   11.8444
   11.8886   11.8886   11.9234   11.9234   12.1935   12.1935   12.3890   12.3891   12.5339   12.5339
   12.7035   12.7035   12.7392   12.7392   13.3937   13.3937   13.5117   13.5117   13.7295   13.7295
   13.7812   13.7812   14.0504   14.0504   14.2278   14.2278   14.4536   14.4536   14.8237   14.8237
   14.8547   14.8547   15.3340   15.3340   15.9864   15.9864   16.4193   16.4193   16.6761   16.6761
   16.9489   16.9489   17.4033   17.4033   17.6803   17.6803   18.2271   18.2271   18.3332   18.3332
   18.5710   18.5710   19.0930   19.0930   19.3449   19.3449   19.9550   19.9550   20.2529   20.2529
   20.8920   20.8920   21.3231   21.3231   21.7948   21.7948   22.1802   22.1802   22.4441   22.4441
   23.1097   23.1097   23.2900   23.2900   23.7731   23.7731   23.8279   23.8279   23.8807   23.8807
   24.8267   24.8267   25.2066   25.2066   25.9920   25.9920   26.8024   26.8024   27.4466   27.4466
   28.4923   28.4923   29.0973   29.0973   29.1127   29.1127   29.5140   29.5140   29.5892   29.5892
   30.0621   30.0621   30.1494   30.1494   30.2434   30.2434   30.6212   30.6212   30.8084   30.8084
   31.0152   31.0152   31.1631   31.1631   31.4663   31.4663   31.5985   31.5985   32.2589   32.2589
   32.6857   32.6857   33.8684   33.8684   34.5088   34.5088   34.6811   34.6811   34.9476   34.9476
   34.9543   34.9543   35.0960   35.0960   35.3702   35.3702   35.6687   35.6687   35.8550   35.8550
   36.7556   36.7556   36.8347   36.8347   37.0397   37.0397   37.2253   37.2253   37.5843   37.5843
   38.1810   38.1810   38.3215   38.3215   39.3377   39.3377   39.4794   39.4794   39.8911   39.8911
   40.2400   40.2400   40.5637   40.5637   40.5703   40.5703   40.6821   40.6821   40.9583   40.9583
   41.1176   41.1176   41.4769   41.4769   42.3922   42.3922   42.6710   42.6710   43.0022   43.0022
   43.1616   43.1616   43.7574   43.7574   43.9145   43.9145   44.0493   44.0493   44.2418   44.2418
   44.6809   44.6809   44.7076   44.7076   45.0915   45.0915   45.3867   45.3867   46.0837   46.0837
   46.4264   46.4264   46.8542   46.8542   47.1902   47.1902   48.6072   48.6072   49.0370   49.0370
   49.4813   49.4813   50.3072   50.3072   50.5131   50.5131   50.7022   50.7022   50.9245   50.9245
   51.3796   51.3796   51.5451   51.5451   52.6993   52.6993   52.7471   52.7471   54.1982   54.1982
   54.3516   54.3516   54.4406   54.4406   54.8764   54.8764   55.8035   55.8035   55.8832   55.8832
   55.8935   55.8935   56.1121   56.1121   56.4951   56.4951   57.9026   57.9026   58.2506   58.2506
   58.6790   58.6790   60.1653   60.1653   60.4420   60.4420   60.7473   60.7473   61.1441   61.1441
   61.8130   61.8130   62.0337   62.0337   62.2503   62.2503   64.4851   64.4851   66.4511   66.4511
   67.1696   67.1696   67.2197   67.2197   68.1619   68.1619   68.7858   68.7858   70.8426   70.8426
   74.0923   74.0923   79.9955   79.9955   91.0745   91.0745   91.9008   91.9008   93.3620   93.3620
   98.3909   98.3909   98.8336   98.8336   99.7257   99.7257  103.3554  103.3554  103.7786  103.7786
  110.1469  110.1469  111.6547  111.6547  123.6386  123.6386  125.7019  125.7019  130.0033  130.0033
  135.0682  135.0682  138.3769  138.3769
siesta: Fermi energy =      -3.775352 eV

siesta: Program's energy decomposition (eV):
siesta: Ebs     =     -1134.328052
siesta: Eions   =      3585.165840
siesta: Ena     =       382.019150
siesta: Ekin    =      2903.107049
siesta: Enl     =     -2787.936999
siesta: Eso     =        -0.004280
siesta: Edftu   =         0.000000
siesta: DEna    =        47.018978
siesta: DUscf   =        14.327606
siesta: DUext   =         0.000000
siesta: Exc     =     -1119.712649
siesta: eta*DQ  =         0.000000
siesta: Emadel  =         0.000000
siesta: Emeta   =         0.000000
siesta: Emolmec =         0.000000
siesta: Ekinion =         0.000000
siesta: Eharris =     -4146.346986
siesta: Etot    =     -4146.346986
siesta: FreeEng =     -4146.346986

siesta: Final energy (eV):
siesta:  Band Struct. =   -1134.328052
siesta:       Kinetic =    2903.107049
siesta:       Hartree =    8205.469561
siesta:       Edftu   =       0.000000
siesta:       Eso     =      -0.004280
siesta:    Ext. field =       0.000000
siesta:   Exch.-corr. =   -1119.712649
siesta:  Ion-electron =  -18994.853782
siesta:       Ion-ion =    4859.647115
siesta:       Ekinion =       0.000000
siesta:         Total =   -4146.346986
siesta:         Fermi =      -3.775352

siesta: Atomic forces (eV/Ang):
siesta:      1    2.595507   -2.762206   -0.000000
siesta:      2    0.007324    0.030357   -0.000000
siesta:      3    0.774456   -0.396547    0.000000
siesta:      4    0.748110   -0.018546   -0.000000
siesta:      5    0.037551   -0.088075    0.000000
siesta:      6    1.789669    0.674057    0.000000
siesta:      7    0.042689   -0.259153    0.000000
siesta:      8   -0.422970    0.292640   -0.000000
siesta:      9   -0.195182    1.287368   -0.000000
siesta:     10   -1.047124    0.365129   -0.000000
siesta:     11   -0.025109   -0.021055    0.000000
siesta:     12   -0.335537   -0.199178   -0.000000
siesta:     13    0.122683   -0.134600    0.000000
siesta:     14    0.213677   -0.101233   -0.000000
siesta:     15   -1.379792   -0.944390    0.000000
siesta:     16   -0.150227    0.115431   -0.000000
siesta:     17    1.030958   -1.123043   -0.000000
siesta:     18   -0.219414    0.200943    0.000000
siesta:     19   -0.196589   -1.273886   -0.000000
siesta:     20   -0.013381   -0.424570    0.000000
siesta:     21   -0.314411    1.059343    0.000000
siesta:     22   -2.195991   -0.894076   -0.000000
siesta:     23    0.256009    0.559968   -0.000000
siesta:     24    0.139833   -0.016210   -0.000000
siesta:     25   -0.002975    0.044579    0.000000
siesta:     26   -0.271503   -0.160924    0.000000
siesta:     27    1.695978    1.337853    0.000000
siesta:     28    4.136036    0.492947   -0.000000
siesta:     29   -0.092836    0.093015    0.000000
siesta: ----------------------------------------
siesta:    Tot    6.727439   -2.264062    0.000000

siesta: Stress tensor (static) (eV/Ang**3):
siesta:     0.000043    0.000855   -0.000000
siesta:     0.000855    0.001022    0.000000
siesta:    -0.000000    0.000000   -0.000053

siesta: Cell volume =       5428.835108 Ang**3

siesta: Pressure (static):
siesta:                Solid            Molecule  Units
siesta:          -0.00000367         -0.00000586  Ry/Bohr**3
siesta:          -0.00033702         -0.00053806  eV/Ang**3
siesta:          -0.53997490         -0.86208439  kBar
(Free)E+ p_basis*V_orbitals  =       -4126.496568
(Free)Eharris+ p_basis*V_orbitals  =       -4126.496568
     spin moment: S , {S} =    0.00000   0.00000  -0.00000   0.00000

siesta: Electric dipole (a.u.)  =    1.558136    0.031337   -0.000000
siesta: Electric dipole (Debye) =    3.960388    0.079650   -0.000000

cite: Please see "GC.bib" for an exhaustive BiBTeX file.
cite: Please clearly indicate Siesta version in published work: v4.1.5-1-g384057250
cite: This calculation has made use of the following articles
cite: which are encouraged to be cited in a published work.
        Primary SIESTA paper
          DOI: www.doi.org/10.1088/0953-8984/14/11/302
        Spin-orbit coupling (on-site approximation)
          DOI: www.doi.org/10.1088/0953-8984/19/19/489001


WARNING: alloc-realloc-dealloc name mismatch
         Name: atomlist isa
         Size:              -116. Bytes
         Node:     0
         Subsequent mismatches will not be reported
>> End of run:  28-JUN-2023  20:22:12
Job completed
