Siesta Version  : v4.1.5-1-g384057250
Architecture    : gcc
Compiler version: GNU Fortran (Debian 10.2.1-6) 10.2.1 20210110
Compiler flags  : mpifort -O2 -fPIC -ftree-vectorize -fallow-argument-mismatch
PP flags        : -DFC_HAVE_ABORT -DMPI -DSIESTA__FLOOK -DSIESTA__METIS -DSIESTA__MUMPS -DCDF -DNCDF -DNCDF_4 -DNCDF_PARALLEL -DSIESTA__MRRR -DSIESTA__ELPA
Libraries       : libncdf.a libfdict.a  -lflookall -ldl -lnetcdff -lnetcdf -lhdf5_hl -lhdf5 -lhdf5_fortran -lz -lscalapack-openmpi -lopenblas -lmetis -lzmumps -lcmumps -ldmumps -lmumps_common -lpord -lsmumps -lesmumps -lscotch -lscotcherr -fopenmp -lelpa
PARALLEL version
NetCDF support
NetCDF-4 support
NetCDF-4 MPI-IO support
METIS ordering support
Lua support

* Running on 6 nodes in parallel
>> Start of run:  22-MAY-2023   9:47:40

                           ***********************       
                           *  WELCOME TO SIESTA  *       
                           ***********************       

reinit: Reading from standard input
reinit: Dumped input in INPUT_TMP.63077
************************** Dump of input data file ****************************
SystemLabel      AT
NumberOfAtoms    30
NumberOfSpecies  4
%block ChemicalSpeciesLabel
    1    1  H
    2    7  N
    3   14  Si
    4    8  O
%endblock ChemicalSpeciesLabel
# Single point calculation
MD.TypeOfRun                CG
MD.Steps                    0
SCF.MustConverge            F # In case it does not. There can be 2 very close atoms
AtomicCoordinatesFormat NotScaledCartesianAng
%block AtomicCoordinatesAndAtomicSpecies
2.582377650    -5.776830440   0.000000000       1
1.654759240    -5.269361980   0.000000000       2
0.063128840    -6.101704590   0.000000000       3
0.119223240    -7.596849500   0.000000000       1
-1.376892050   -5.182603740   0.000000000       2
-0.824371900   -3.460866440   0.000000000       3
-1.170571480   -1.270002100   0.000000000       3
-2.706933680   -0.417515780   0.000000000       2
-2.754569660   0.634858620    0.000000000       1
-3.637675640   -0.909967860   0.000000000       1
0.218091790    -0.234193970   0.000000000       2
1.872004100    -0.697162300   0.000000000       3
2.828001130    0.461464770    0.000000000       1
2.648150080    -2.255024470   0.000000000       2
1.391921380    -3.454727220   0.000000000       3
1.893240208    5.106509652    0.000000000       2
0.565868688    6.316713952    0.000000000       3
1.205869958    7.678032192    0.000000000       1
-1.519877252   5.646182602    0.000000000       3
-3.549439852   6.776298792    0.000000000       3
-3.395204082   7.936529002    0.940305280       1
-4.535374572   5.754378172    0.512613700       1
-3.965654812   7.252524642    -1.366678340      1
-1.453381832   3.372205982    0.000000000       3
-2.492430562   2.179146482    0.000000000       4
0.203609748    2.738230792    0.000000000       2
0.185592378    1.675785962    0.000000000       1
1.827212818    3.335301002    0.000000000       3
3.022228988    2.320875802    0.000000000       4
2.893277578    5.452016752    0.000000000       1
%endblock AtomicCoordinatesAndAtomicSpecies
%include ../../../Defaults.fdf
************************** End of input data file *****************************

reinit: -----------------------------------------------------------------------
reinit: System Name: 
reinit: -----------------------------------------------------------------------
reinit: System Label: AT
reinit: -----------------------------------------------------------------------

initatom: Reading input for the pseudopotentials and atomic orbitals ----------
Species number:   1 Atomic number:    1 Label: H
Species number:   2 Atomic number:    7 Label: N
Species number:   3 Atomic number:   14 Label: Si
Species number:   4 Atomic number:    8 Label: O

Ground state valence configuration:   1s01
Reading pseudopotential information in formatted form from H.psf

Pseudopotential generated from a relativistic atomic calculation

Valence configuration for pseudopotential generation:
1s( 1.00) rc: 0.01
2p( 0.00) rc: 0.60
3d( 0.00) rc: 1.99
4f( 0.00) rc: 2.49
Ground state valence configuration:   2s02  2p03
Reading pseudopotential information in formatted form from N.psf

Pseudopotential generated from a relativistic atomic calculation

Valence configuration for pseudopotential generation:
2s( 2.00) rc: 0.94
2p( 3.00) rc: 0.59
3d( 0.00) rc: 3.46
4f( 0.00) rc: 2.47
Ground state valence configuration:   3s02  3p02
Reading pseudopotential information in formatted form from Si.psf

Pseudopotential generated from a relativistic atomic calculation

Valence configuration for pseudopotential generation:
3s( 2.00) rc: 1.67
3p( 2.00) rc: 2.04
3d( 0.00) rc: 2.89
4f( 0.00) rc: 2.49
Ground state valence configuration:   2s02  2p04
Reading pseudopotential information in formatted form from O.psf

Pseudopotential generated from a relativistic atomic calculation

Valence configuration for pseudopotential generation:
2s( 2.00) rc: 0.45
2p( 4.00) rc: 0.92
3d( 0.00) rc: 2.24
4f( 0.00) rc: 0.25
For H, standard SIESTA heuristics set lmxkb to 2
 (one more than the basis l, including polarization orbitals).
Use PS.lmax or PS.KBprojectors blocks to override.
For N, standard SIESTA heuristics set lmxkb to 3
 (one more than the basis l, including polarization orbitals).
Use PS.lmax or PS.KBprojectors blocks to override.
For Si, standard SIESTA heuristics set lmxkb to 3
 (one more than the basis l, including polarization orbitals).
Use PS.lmax or PS.KBprojectors blocks to override.
For O, standard SIESTA heuristics set lmxkb to 3
 (one more than the basis l, including polarization orbitals).
Use PS.lmax or PS.KBprojectors blocks to override.

<basis_specs>
===============================================================================
H                    Z=   1    Mass=  1.0100        Charge= 0.17977+309
Lmxo=0 Lmxkb= 2    BasisType=split      Semic=F
L=0  Nsemic=0  Cnfigmx=1
          i=1  nzeta=2  polorb=1  (1s)
            splnorm:   0.62000    
               vcte:    0.0000    
               rinn:    0.0000    
               qcoe:    0.0000    
               qyuk:    0.0000    
               qwid:   0.10000E-01
                rcs:    0.0000      0.0000    
            lambdas:    1.0000      1.0000    
-------------------------------------------------------------------------------
L=0  Nkbl=1  erefs: 0.17977+309
L=1  Nkbl=1  erefs: 0.17977+309
L=2  Nkbl=1  erefs: 0.17977+309
===============================================================================
</basis_specs>

atom: Called for H                     (Z =   1)

read_vps: Pseudopotential generation method:
read_vps: ATM4.2.7  Troullier-Martins                       
Valence charge for ps generation:    1.00000

xc_check: Exchange-correlation functional:
xc_check: GGA Perdew, Burke & Ernzerhof 1996
V l=0 = -2*Zval/r beyond r=  0.0098
V l=1 = -2*Zval/r beyond r=  0.5817
V l=2 = -2*Zval/r beyond r=  1.9372
All V_l potentials equal beyond r=  1.9372
This should be close to max(r_c) in ps generation
All pots = -2*Zval/r beyond r=  1.9372

VLOCAL1: 99.0% of the norm of Vloc inside     11.567 Ry
VLOCAL1: 99.9% of the norm of Vloc inside     26.362 Ry
atom: Maximum radius for 4*pi*r*r*local-pseudopot. charge    2.25106
atom: Maximum radius for r*vlocal+2*Zval:    1.91306
GHOST: No ghost state for L =  0
GHOST: No ghost state for L =  1
GHOST: No ghost state for L =  2

KBgen: Kleinman-Bylander projectors: 
   l= 0   rc=  2.036604   el= -0.477180   Ekb= -6.081590   kbcos= -0.277285
   l= 1   rc=  2.195416   el=  0.001076   Ekb= -0.926943   kbcos= -0.034643
   l= 2   rc=  2.251056   el=  0.002010   Ekb= -0.130941   kbcos= -0.009788

KBgen: Total number of Kleinman-Bylander projectors:    9
atom: -------------------------------------------------------------------------

atom: SANKEY-TYPE ORBITALS:
atom: Selected multiple-zeta basis: split     

SPLIT: Orbitals with angular momentum L= 0

SPLIT: Basis orbitals for state 1s

SPLIT: PAO cut-off radius determined from an
SPLIT: energy shift=  0.002000 Ry

   izeta = 1
                 lambda =    1.000000
                     rc =    6.518340
                 energy =   -0.475305
                kinetic =    0.912139
    potential(screened) =   -1.387444
       potential(ionic) =   -1.907295

   izeta = 2
                 rmatch =    2.141150
              splitnorm =    0.620000
                 energy =    0.566467
                kinetic =    3.772856
    potential(screened) =   -3.206389
       potential(ionic) =   -3.759093

POLgen: Perturbative polarization orbital with L=  1

POLgen: Polarization orbital for state 1s

   izeta = 1
                     rc =    6.518340
                 energy =    0.533861
                kinetic =    1.121086
    potential(screened) =   -0.587225
       potential(ionic) =   -1.053027
atom: Total number of Sankey-type orbitals:  5

atm_pop: Valence configuration (for local Pseudopot. screening):
 1s( 1.00)                                                            
Vna: chval, zval:    1.00000   1.00000

Vna:  Cut-off radius for the neutral-atom potential:   6.518340

atom: _________________________________________________________________________

<basis_specs>
===============================================================================
N                    Z=   7    Mass=  14.010        Charge= 0.17977+309
Lmxo=1 Lmxkb= 3    BasisType=split      Semic=F
L=0  Nsemic=0  Cnfigmx=2
          i=1  nzeta=2  polorb=0  (2s)
            splnorm:   0.28000    
               vcte:    0.0000    
               rinn:    0.0000    
               qcoe:    0.0000    
               qyuk:    0.0000    
               qwid:   0.10000E-01
                rcs:    0.0000      0.0000    
            lambdas:    1.0000      1.0000    
L=1  Nsemic=0  Cnfigmx=2
          i=1  nzeta=2  polorb=1  (2p)
            splnorm:   0.28000    
               vcte:    0.0000    
               rinn:    0.0000    
               qcoe:    0.0000    
               qyuk:    0.0000    
               qwid:   0.10000E-01
                rcs:    0.0000      0.0000    
            lambdas:    1.0000      1.0000    
-------------------------------------------------------------------------------
L=0  Nkbl=1  erefs: 0.17977+309
L=1  Nkbl=1  erefs: 0.17977+309
L=2  Nkbl=1  erefs: 0.17977+309
L=3  Nkbl=1  erefs: 0.17977+309
===============================================================================
</basis_specs>

atom: Called for N                     (Z =   7)

read_vps: Pseudopotential generation method:
read_vps: ATM4.2.7  Troullier-Martins                       
Valence charge for ps generation:    5.00000

xc_check: Exchange-correlation functional:
xc_check: GGA Perdew, Burke & Ernzerhof 1996
V l=0 = -2*Zval/r beyond r=  1.2889
V l=1 = -2*Zval/r beyond r=  1.2889
V l=2 = -2*Zval/r beyond r=  3.4178
V l=3 = -2*Zval/r beyond r=  2.4084
All V_l potentials equal beyond r=  3.3753
This should be close to max(r_c) in ps generation
All pots = -2*Zval/r beyond r=  3.4178

VLOCAL1: 99.0% of the norm of Vloc inside      3.810 Ry
VLOCAL1: 99.9% of the norm of Vloc inside      8.683 Ry
atom: Maximum radius for 4*pi*r*r*local-pseudopot. charge    4.02088
atom: Maximum radius for r*vlocal+2*Zval:    3.54838
GHOST: No ghost state for L =  0
GHOST: No ghost state for L =  1
GHOST: No ghost state for L =  2
GHOST: No ghost state for L =  3

KBgen: Kleinman-Bylander projectors: 
   l= 0   rc=  3.417763   el= -1.365098   Ekb= -4.433130   kbcos= -0.707855
   l= 1   rc=  3.375302   el= -0.521201   Ekb=-13.264039   kbcos= -0.535594
   l= 2   rc=  3.872880   el=  0.001991   Ekb= -0.641094   kbcos= -0.062456
   l= 3   rc=  3.970931   el=  0.003093   Ekb= -0.474517   kbcos= -0.018236

KBgen: Total number of Kleinman-Bylander projectors:   16
atom: -------------------------------------------------------------------------

atom: SANKEY-TYPE ORBITALS:
atom: Selected multiple-zeta basis: split     

SPLIT: Orbitals with angular momentum L= 0

SPLIT: Basis orbitals for state 2s

SPLIT: PAO cut-off radius determined from an
SPLIT: energy shift=  0.002000 Ry

   izeta = 1
                 lambda =    1.000000
                     rc =    4.730425
                 energy =   -1.363399
                kinetic =    1.245246
    potential(screened) =   -2.608645
       potential(ionic) =   -8.121105

   izeta = 2
                 rmatch =    2.531849
              splitnorm =    0.280000
                 energy =   -0.959908
                kinetic =    2.409435
    potential(screened) =   -3.369343
       potential(ionic) =   -9.427975

SPLIT: Orbitals with angular momentum L= 1

SPLIT: Basis orbitals for state 2p

SPLIT: PAO cut-off radius determined from an
SPLIT: energy shift=  0.002000 Ry

   izeta = 1
                 lambda =    1.000000
                     rc =    5.924108
                 energy =   -0.519262
                kinetic =    3.672940
    potential(screened) =   -4.192202
       potential(ionic) =   -9.518354

   izeta = 2
                 rmatch =    2.531849
              splitnorm =    0.280000
                 energy =   -0.104258
                kinetic =    6.807538
    potential(screened) =   -6.911796
       potential(ionic) =  -13.149920

POLgen: Perturbative polarization orbital with L=  2

POLgen: Polarization orbital for state 2p

   izeta = 1
                     rc =    5.924108
                 energy =    1.427508
                kinetic =    2.872379
    potential(screened) =   -1.444871
       potential(ionic) =   -5.563644
atom: Total number of Sankey-type orbitals: 13

atm_pop: Valence configuration (for local Pseudopot. screening):
 2s( 2.00)                                                            
 2p( 3.00)                                                            
Vna: chval, zval:    5.00000   5.00000

Vna:  Cut-off radius for the neutral-atom potential:   5.924108

atom: _________________________________________________________________________

<basis_specs>
===============================================================================
Si                   Z=  14    Mass=  28.090        Charge= 0.17977+309
Lmxo=1 Lmxkb= 3    BasisType=split      Semic=F
L=0  Nsemic=0  Cnfigmx=3
          i=1  nzeta=2  polorb=0  (3s)
            splnorm:   0.28000    
               vcte:    0.0000    
               rinn:    0.0000    
               qcoe:    0.0000    
               qyuk:    0.0000    
               qwid:   0.10000E-01
                rcs:    0.0000      0.0000    
            lambdas:    1.0000      1.0000    
L=1  Nsemic=0  Cnfigmx=3
          i=1  nzeta=2  polorb=1  (3p)
            splnorm:   0.28000    
               vcte:    0.0000    
               rinn:    0.0000    
               qcoe:    0.0000    
               qyuk:    0.0000    
               qwid:   0.10000E-01
                rcs:    0.0000      0.0000    
            lambdas:    1.0000      1.0000    
-------------------------------------------------------------------------------
L=0  Nkbl=1  erefs: 0.17977+309
L=1  Nkbl=1  erefs: 0.17977+309
L=2  Nkbl=1  erefs: 0.17977+309
L=3  Nkbl=1  erefs: 0.17977+309
===============================================================================
</basis_specs>

atom: Called for Si                    (Z =  14)

read_vps: Pseudopotential generation method:
read_vps: ATM4.2.7  Troullier-Martins                       
Valence charge for ps generation:    4.00000

xc_check: Exchange-correlation functional:
xc_check: GGA Perdew, Burke & Ernzerhof 1996
V l=0 = -2*Zval/r beyond r=  2.7826
V l=1 = -2*Zval/r beyond r=  2.7826
V l=2 = -2*Zval/r beyond r=  2.9253
V l=3 = -2*Zval/r beyond r=  2.7826
All V_l potentials equal beyond r=  2.8530
This should be close to max(r_c) in ps generation
All pots = -2*Zval/r beyond r=  2.9253

VLOCAL1: 99.0% of the norm of Vloc inside      5.333 Ry
VLOCAL1: 99.9% of the norm of Vloc inside     12.154 Ry
atom: Maximum radius for 4*pi*r*r*local-pseudopot. charge    3.39869
atom: Maximum radius for r*vlocal+2*Zval:    2.96205
GHOST: No ghost state for L =  0
GHOST: No ghost state for L =  1
GHOST: No ghost state for L =  2
GHOST: No ghost state for L =  3

KBgen: Kleinman-Bylander projectors: 
   l= 0   rc=  3.075247   el= -0.794092   Ekb=  5.879390   kbcos=  0.167461
   l= 1   rc=  3.153101   el= -0.300068   Ekb=  2.642817   kbcos=  0.058301
   l= 2   rc=  3.273594   el=  0.001958   Ekb= -1.185135   kbcos= -0.104411
   l= 3   rc=  3.232927   el=  0.003046   Ekb= -0.497174   kbcos= -0.015889

KBgen: Total number of Kleinman-Bylander projectors:   16
atom: -------------------------------------------------------------------------

atom: SANKEY-TYPE ORBITALS:
atom: Selected multiple-zeta basis: split     

SPLIT: Orbitals with angular momentum L= 0

SPLIT: Basis orbitals for state 3s

SPLIT: PAO cut-off radius determined from an
SPLIT: energy shift=  0.002000 Ry

   izeta = 1
                 lambda =    1.000000
                     rc =    6.429618
                 energy =   -0.792283
                kinetic =    0.525293
    potential(screened) =   -1.317576
       potential(ionic) =   -3.744923

   izeta = 2
                 rmatch =    3.998416
              splitnorm =    0.280000
                 energy =   -0.583081
                kinetic =    1.069570
    potential(screened) =   -1.652651
       potential(ionic) =   -4.235185

SPLIT: Orbitals with angular momentum L= 1

SPLIT: Basis orbitals for state 3p

SPLIT: PAO cut-off radius determined from an
SPLIT: energy shift=  0.002000 Ry

   izeta = 1
                 lambda =    1.000000
                     rc =    8.464845
                 energy =   -0.298236
                kinetic =    0.785360
    potential(screened) =   -1.083596
       potential(ionic) =   -3.273779

   izeta = 2
                 rmatch =    4.587816
              splitnorm =    0.280000
                 energy =   -0.131871
                kinetic =    1.403687
    potential(screened) =   -1.535557
       potential(ionic) =   -4.015310

POLgen: Perturbative polarization orbital with L=  2

POLgen: Polarization orbital for state 3p

   izeta = 1
                     rc =    8.464845
                 energy =    0.321949
                kinetic =    1.055677
    potential(screened) =   -0.733728
       potential(ionic) =   -2.672950
atom: Total number of Sankey-type orbitals: 13

atm_pop: Valence configuration (for local Pseudopot. screening):
 3s( 2.00)                                                            
 3p( 2.00)                                                            
Vna: chval, zval:    4.00000   4.00000

Vna:  Cut-off radius for the neutral-atom potential:   8.464845

atom: _________________________________________________________________________

<basis_specs>
===============================================================================
O                    Z=   8    Mass=  16.000        Charge= 0.17977+309
Lmxo=1 Lmxkb= 3    BasisType=split      Semic=F
L=0  Nsemic=0  Cnfigmx=2
          i=1  nzeta=2  polorb=0  (2s)
            splnorm:   0.28000    
               vcte:    0.0000    
               rinn:    0.0000    
               qcoe:    0.0000    
               qyuk:    0.0000    
               qwid:   0.10000E-01
                rcs:    0.0000      0.0000    
            lambdas:    1.0000      1.0000    
L=1  Nsemic=0  Cnfigmx=2
          i=1  nzeta=2  polorb=1  (2p)
            splnorm:   0.28000    
               vcte:    0.0000    
               rinn:    0.0000    
               qcoe:    0.0000    
               qyuk:    0.0000    
               qwid:   0.10000E-01
                rcs:    0.0000      0.0000    
            lambdas:    1.0000      1.0000    
-------------------------------------------------------------------------------
L=0  Nkbl=1  erefs: 0.17977+309
L=1  Nkbl=1  erefs: 0.17977+309
L=2  Nkbl=1  erefs: 0.17977+309
L=3  Nkbl=1  erefs: 0.17977+309
===============================================================================
</basis_specs>

atom: Called for O                     (Z =   8)

read_vps: Pseudopotential generation method:
read_vps: ATM4.2.7  Troullier-Martins                       
Valence charge for ps generation:    6.00000

xc_check: Exchange-correlation functional:
xc_check: GGA Perdew, Burke & Ernzerhof 1996
V l=0 = -2*Zval/r beyond r=  1.1000
V l=1 = -2*Zval/r beyond r=  1.1000
V l=2 = -2*Zval/r beyond r=  2.2154
V l=3 = -2*Zval/r beyond r=  1.1000
All V_l potentials equal beyond r=  2.2154
This should be close to max(r_c) in ps generation
All pots = -2*Zval/r beyond r=  2.2154

VLOCAL1: 99.0% of the norm of Vloc inside      8.845 Ry
VLOCAL1: 99.9% of the norm of Vloc inside     20.157 Ry
atom: Maximum radius for 4*pi*r*r*local-pseudopot. charge    2.67231
atom: Maximum radius for r*vlocal+2*Zval:    2.32897
GHOST: No ghost state for L =  0
GHOST: No ghost state for L =  1
GHOST: No ghost state for L =  2
GHOST: No ghost state for L =  3

KBgen: Kleinman-Bylander projectors: 
   l= 0   rc=  2.243238   el= -1.759686   Ekb=**********   kbcos= -0.171774
   l= 1   rc=  2.328968   el= -0.663873   Ekb=-14.506792   kbcos= -0.519897
   l= 2   rc=  2.573941   el=  0.002031   Ekb= -1.137373   kbcos= -0.019581
   l= 3   rc=  2.606321   el=  0.003153   Ekb= -1.013546   kbcos= -0.003122

KBgen: Total number of Kleinman-Bylander projectors:   16
atom: -------------------------------------------------------------------------

atom: SANKEY-TYPE ORBITALS:
atom: Selected multiple-zeta basis: split     

SPLIT: Orbitals with angular momentum L= 0

SPLIT: Basis orbitals for state 2s

SPLIT: PAO cut-off radius determined from an
SPLIT: energy shift=  0.002000 Ry

   izeta = 1
                 lambda =    1.000000
                     rc =    4.243912
                 energy =   -1.758270
                kinetic =    3.286084
    potential(screened) =   -5.044353
       potential(ionic) =  -12.921184

   izeta = 2
                 rmatch =    2.187845
              splitnorm =    0.280000
                 energy =   -0.885018
                kinetic =    8.134434
    potential(screened) =   -9.019452
       potential(ionic) =  -17.710645

SPLIT: Orbitals with angular momentum L= 1

SPLIT: Basis orbitals for state 2p

SPLIT: PAO cut-off radius determined from an
SPLIT: energy shift=  0.002000 Ry

   izeta = 1
                 lambda =    1.000000
                     rc =    5.314825
                 energy =   -0.661986
                kinetic =    4.917472
    potential(screened) =   -5.579458
       potential(ionic) =  -13.236259

   izeta = 2
                 rmatch =    2.160663
              splitnorm =    0.280000
                 energy =   -0.068760
                kinetic =    9.183374
    potential(screened) =   -9.252135
       potential(ionic) =  -18.274251

POLgen: Perturbative polarization orbital with L=  2

POLgen: Polarization orbital for state 2p

   izeta = 1
                     rc =    5.314825
                 energy =    1.970580
                kinetic =    3.886128
    potential(screened) =   -1.915547
       potential(ionic) =   -7.749584
atom: Total number of Sankey-type orbitals: 13

atm_pop: Valence configuration (for local Pseudopot. screening):
 2s( 2.00)                                                            
 2p( 4.00)                                                            
Vna: chval, zval:    6.00000   6.00000

Vna:  Cut-off radius for the neutral-atom potential:   5.314825

atom: _________________________________________________________________________

prinput: Basis input ----------------------------------------------------------

PAO.BasisType split     

%block ChemicalSpeciesLabel
    1    1 H                       # Species index, atomic number, species label
    2    7 N                       # Species index, atomic number, species label
    3   14 Si                      # Species index, atomic number, species label
    4    8 O                       # Species index, atomic number, species label
%endblock ChemicalSpeciesLabel

%block PAO.Basis                 # Define Basis set
H                     1                    # Species label, number of l-shells
 n=1   0   2 P   1                   # n, l, Nzeta, Polarization, NzetaPol
   6.518      2.141   
   1.000      1.000   
N                     2                    # Species label, number of l-shells
 n=2   0   2                         # n, l, Nzeta 
   4.730      2.532   
   1.000      1.000   
 n=2   1   2 P   1                   # n, l, Nzeta, Polarization, NzetaPol
   5.924      2.532   
   1.000      1.000   
Si                    2                    # Species label, number of l-shells
 n=3   0   2                         # n, l, Nzeta 
   6.430      3.998   
   1.000      1.000   
 n=3   1   2 P   1                   # n, l, Nzeta, Polarization, NzetaPol
   8.465      4.588   
   1.000      1.000   
O                     2                    # Species label, number of l-shells
 n=2   0   2                         # n, l, Nzeta 
   4.244      2.188   
   1.000      1.000   
 n=2   1   2 P   1                   # n, l, Nzeta, Polarization, NzetaPol
   5.315      2.161   
   1.000      1.000   
%endblock PAO.Basis

prinput: ----------------------------------------------------------------------

Dumping basis to NetCDF file H.ion.nc
Dumping basis to NetCDF file N.ion.nc
Dumping basis to NetCDF file Si.ion.nc
Dumping basis to NetCDF file O.ion.nc
coor:   Atomic-coordinates input format  =     Cartesian coordinates
coor:                                          (in Angstroms)

siesta: Atomic coordinates (Bohr) and species
siesta:      4.87999 -10.91663   0.00000  1        1
siesta:      3.12704  -9.95765   0.00000  2        2
siesta:      0.11930 -11.53056   0.00000  3        3
siesta:      0.22530 -14.35597   0.00000  1        4
siesta:     -2.60195  -9.79371   0.00000  2        5
siesta:     -1.55784  -6.54009   0.00000  3        6
siesta:     -2.21206  -2.39996   0.00000  3        7
siesta:     -5.11537  -0.78899   0.00000  2        8
siesta:     -5.20538   1.19971   0.00000  1        9
siesta:     -6.87421  -1.71959   0.00000  1       10
siesta:      0.41213  -0.44256   0.00000  2       11
siesta:      3.53758  -1.31745   0.00000  3       12
siesta:      5.34415   0.87204   0.00000  1       13
siesta:      5.00428  -4.26138   0.00000  2       14
siesta:      2.63035  -6.52849   0.00000  3       15
siesta:      3.57771   9.64991   0.00000  2       16
siesta:      1.06934  11.93686   0.00000  3       17
siesta:      2.27876  14.50938   0.00000  1       18
siesta:     -2.87215  10.66974   0.00000  3       19
siesta:     -6.70747  12.80535   0.00000  3       20
siesta:     -6.41601  14.99787   1.77692  1       21
siesta:     -8.57062  10.87420   0.96870  1       22
siesta:     -7.49400  13.70529  -2.58265  1       23
siesta:     -2.74649   6.37255   0.00000  3       24
siesta:     -4.71001   4.11799   0.00000  4       25
siesta:      0.38477   5.17451   0.00000  2       26
siesta:      0.35072   3.16678   0.00000  1       27
siesta:      3.45293   6.30281   0.00000  3       28
siesta:      5.71119   4.38582   0.00000  4       29
siesta:      5.46750  10.30282   0.00000  1       30

siesta: Automatic unit cell vectors (Ang):
siesta:   15.818272    0.000000    0.000000
siesta:    0.000000   24.675299    0.000000
siesta:    0.000000    0.000000   10.224979

siesta: System type = molecule  

initatomlists: Number of atoms, orbitals, and projectors:     30   302   403

siesta: ******************** Simulation parameters ****************************
siesta:
siesta: The following are some of the parameters of the simulation.
siesta: A complete list of the parameters used, including default values,
siesta: can be found in file out.fdf
siesta:
redata: Spin configuration                          = spin-orbit
redata: Number of spin components                   = 8
redata: Time-Reversal Symmetry                      = F
redata: Spin spiral                                 = F
############################################################
This spin-orbit implementation uses a local approximation.
From 4.2 and onwards the full non-local approximation is implemented
You are strongly advised to use >=4.2 versions!
############################################################
redata: Long output                                 =   F
redata: Number of Atomic Species                    =        4
redata: Charge density info will appear in .RHO file
redata: Write Mulliken Pop.                         = Atomic and Orbital charges
redata: Matel table size (NRTAB)                    =     1024
redata: Mesh Cutoff                                 =   340.0000 Ry
redata: Net charge of the system                    =     0.0000 |e|
redata: Min. number of SCF Iter                     =        1
redata: Max. number of SCF Iter                     =      200
redata: SCF mix quantity                            = Hamiltonian
redata: Mix DM or H after convergence               =   F
redata: Recompute H after scf cycle                 =   F
redata: Mix DM in first SCF step                    =   T
redata: Write Pulay info on disk                    =   F
redata: New DM Occupancy tolerance                  = 0.000000000001
redata: No kicks to SCF
redata: DM Mixing Weight for Kicks                  =     0.5000
redata: Require Harris convergence for SCF          =   F
redata: Harris energy tolerance for SCF             =     0.000100 eV
redata: Require DM convergence for SCF              =   T
redata: DM tolerance for SCF                        =     0.000008
redata: Require EDM convergence for SCF             =   F
redata: EDM tolerance for SCF                       =     0.001000 eV
redata: Require H convergence for SCF               =   T
redata: Hamiltonian tolerance for SCF               =     0.000001 eV
redata: Require (free) Energy convergence for SCF   =   F
redata: (free) Energy tolerance for SCF             =     0.000100 eV
redata: Using Saved Data (generic)                  =   F
redata: Use continuation files for DM               =   F
redata: Neglect nonoverlap interactions             =   F
redata: Method of Calculation                       = Diagonalization
redata: Electronic Temperature                      =   299.9978 K
redata: Fix the spin of the system                  =   F
redata: Dynamics option                             = Single-point calculation
mix.SCF: Pulay mixing                            = Pulay
mix.SCF:    Variant                              = stable
mix.SCF:    History steps                        = 6
mix.SCF:    Linear mixing weight                 =     0.250000
mix.SCF:    Mixing weight                        =     0.250000
mix.SCF:    SVD condition                        = 0.1000E-07
mix.SCF:    Restart steps                        = 24
mix.SCF:    Restart save steps                   = 3
mix.SCF: Spin-component mixing                   all
redata: Save all siesta data in one NC              =   F
redata: ***********************************************************************

%block SCF.Mixers
  Pulay
%endblock SCF.Mixers

%block SCF.Mixer.Pulay
  # Mixing method
  method pulay
  variant stable

  # Mixing options
  weight 0.2500
  weight.linear 0.2500
  history 6
  restart 24
  restart.save 3
%endblock SCF.Mixer.Pulay

DM_history_depth set to one: no extrapolation allowed by default for geometry relaxation
Size of DM history Fstack: 1
Total number of electrons:    98.000000
Total ionic charge:    98.000000

* ProcessorY, Blocksize:    2  24


* Orbital distribution balance (max,min):    62    48


Time-reversal symmetry not used.

siesta: k-grid: Number of k-points =     1
siesta: k-grid: Cutoff (effective) =     5.112 Ang
siesta: k-grid: Supercell and displacements
siesta: k-grid:    1   0   0      0.000
siesta: k-grid:    0   1   0      0.000
siesta: k-grid:    0   0   1      0.000

diag: Algorithm                                     = ELPA-1stage
diag: Parallel over k                               =   F
diag: Use parallel 2D distribution                  =   T
diag: Parallel block-size                           = 24
diag: Parallel distribution                         =     2 x     3
diag: Used triangular part                          = Lower
diag: Absolute tolerance                            =  0.100E-15
diag: Orthogonalization factor                      =  0.100E-05
diag: Memory factor                                 =  1.0000


ts: **************************************************************
ts: Save H and S matrices                           =    F
ts: Save DM and EDM matrices                        =    F
ts: Only save the overlap matrix S                  =    F
ts: **************************************************************

************************ Begin: TS CHECKS AND WARNINGS ************************
************************ End: TS CHECKS AND WARNINGS **************************


                     ====================================
                        Single-point calculation
                     ====================================

outcoor: Atomic coordinates (Ang):                          
    2.58237765   -5.77683044    0.00000000   1       1  H
    1.65475924   -5.26936198    0.00000000   2       2  N
    0.06312884   -6.10170459    0.00000000   3       3  Si
    0.11922324   -7.59684950    0.00000000   1       4  H
   -1.37689205   -5.18260374    0.00000000   2       5  N
   -0.82437190   -3.46086644    0.00000000   3       6  Si
   -1.17057148   -1.27000210    0.00000000   3       7  Si
   -2.70693368   -0.41751578    0.00000000   2       8  N
   -2.75456966    0.63485862    0.00000000   1       9  H
   -3.63767564   -0.90996786    0.00000000   1      10  H
    0.21809179   -0.23419397    0.00000000   2      11  N
    1.87200410   -0.69716230    0.00000000   3      12  Si
    2.82800113    0.46146477    0.00000000   1      13  H
    2.64815008   -2.25502447    0.00000000   2      14  N
    1.39192138   -3.45472722    0.00000000   3      15  Si
    1.89324021    5.10650965    0.00000000   2      16  N
    0.56586869    6.31671395    0.00000000   3      17  Si
    1.20586996    7.67803219    0.00000000   1      18  H
   -1.51987725    5.64618260    0.00000000   3      19  Si
   -3.54943985    6.77629879    0.00000000   3      20  Si
   -3.39520408    7.93652900    0.94030528   1      21  H
   -4.53537457    5.75437817    0.51261370   1      22  H
   -3.96565481    7.25252464   -1.36667834   1      23  H
   -1.45338183    3.37220598    0.00000000   3      24  Si
   -2.49243056    2.17914648    0.00000000   4      25  O
    0.20360975    2.73823079    0.00000000   2      26  N
    0.18559238    1.67578596    0.00000000   1      27  H
    1.82721282    3.33530100    0.00000000   3      28  Si
    3.02222899    2.32087580    0.00000000   4      29  O
    2.89327758    5.45201675    0.00000000   1      30  H

outcell: Unit cell vectors (Ang):
       15.818272    0.000000    0.000000
        0.000000   24.675299    0.000000
        0.000000    0.000000   10.224979

outcell: Cell vector modules (Ang)   :   15.818272   24.675299   10.224979
outcell: Cell angles (23,13,12) (deg):     90.0000     90.0000     90.0000
outcell: Cell volume (Ang**3)        :   3991.0199
<dSpData1D:S at geom step 0
  <sparsity:sparsity for geom step 0
    nrows_g=302 nrows=62 sparsity=.1522 nnzs=13877, refcount: 8>
  <dData1D:(new from dSpData1D) n=13877, refcount: 1>
refcount: 1>
new_DM -- step:     1
Initializing Density Matrix...
DM filled with atomic data:
<dSpData2D:DM initialized from atoms
  <sparsity:sparsity for geom step 0
    nrows_g=302 nrows=62 sparsity=.1522 nnzs=13877, refcount: 9>
  <dData2D:DM n=13877 m=8, refcount: 1>
refcount: 1>
     spin moment: S , {S} =   56.00000   0.00000   0.00000  56.00000
No. of atoms with KB's overlaping orbs in proc 0. Max # of overlaps:      24     207

Initializing spin-orbit part of the Hamiltonian
  Adding spin-orbit effects for H 
  Adding spin-orbit effects for N 
  Adding spin-orbit effects for Si
  Adding spin-orbit effects for O 


New grid distribution:   1
           1       1:   90    1:   72    1:   20
           2       1:   90    1:   72   21:   40
           3       1:   90    1:   72   41:   60
           4       1:   90   73:  144    1:   20
           5       1:   90   73:  144   21:   40
           6       1:   90   73:  144   41:   60

InitMesh: MESH =   180 x   288 x   120 =     6220800
InitMesh: (bp) =    90 x   144 x    60 =      777600
InitMesh: Mesh cutoff (required, used) =   340.000   357.873 Ry
ExtMesh (bp) on 0 =   194 x   180 x   128 =     4469760
New grid distribution:   2
           1      14:   90   20:   40    1:   60
           2       1:   12   41:  144    1:   60
           3       1:   13    1:   40    1:   60
           4      13:   90   41:  123    1:   60
           5      13:   90  124:  144    1:   60
           6      14:   90    1:   19    1:   60
New grid distribution:   3
           1      24:   90    1:   28    1:   60
           2      24:   90   29:   52    1:   60
           3       1:   23    1:   52    1:   60
           4      19:   90   53:  117    1:   60
           5      19:   90  118:  144    1:   60
           6       1:   18   53:  144    1:   60
Setting up quadratic distribution...
ExtMesh (bp) on 0 =   181 x   129 x   168 =     3922632
PhiOnMesh: Number of (b)points on node 0 =                97020
PhiOnMesh: nlist on node 0 =              1848235

stepf: Fermi-Dirac step function

siesta: Program's energy decomposition (eV):
siesta: Ebs     =      -611.156045
siesta: Eions   =      3553.971015
siesta: Ena     =       377.505736
siesta: Ekin    =      3180.203384
siesta: Enl     =     -2995.048608
siesta: Eso     =        -0.003971
siesta: Edftu   =         0.000000
siesta: DEna    =       130.970615
siesta: DUscf   =        74.183536
siesta: DUext   =         0.000000
siesta: Exc     =     -1171.410681
siesta: eta*DQ  =         0.000000
siesta: Emadel  =         0.000000
siesta: Emeta   =         0.000000
siesta: Emolmec =         0.000000
siesta: Ekinion =         0.000000
siesta: Eharris =     -3885.549620
siesta: Etot    =     -3957.571004
siesta: FreeEng =     -3957.575446

        iscf     Eharris(eV)        E_KS(eV)     FreeEng(eV)     dDmax    Ef(eV) dHmax(eV)
   scf:    1    -3885.549620    -3957.571004    -3957.575446  0.968671 -4.946235 20.289208
     spin moment: S , {S} =    2.03403   0.00004   0.00000   2.03403
timer: Routine,Calls,Time,% = IterSCF        1       5.559  20.93
   scf:    2    -4001.313290    -3991.213804    -3991.213807  0.452731 -4.375287  9.822513
     spin moment: S , {S} =    2.00011  -0.00000   0.00003   2.00011
   scf:    3    -3994.657220    -3996.301369    -3996.305374  0.417156 -4.232004  7.311588
     spin moment: S , {S} =    0.02980   0.00001  -0.00000   0.02980
   scf:    4    -3998.943835    -3997.765648    -3997.765649  0.025509 -3.871260  5.422278
     spin moment: S , {S} =    0.00009   0.00001  -0.00000   0.00009
   scf:    5    -3999.448108    -3998.642425    -3998.642705  0.033674 -3.826524  2.815251
     spin moment: S , {S} =    0.00135   0.00001  -0.00000   0.00135
   scf:    6    -3999.268825    -3998.969720    -3998.976647  0.028835 -3.859030  0.832005
     spin moment: S , {S} =    0.05935   0.00001   0.00001   0.05935
   scf:    7    -3999.177043    -3999.068624    -3999.075067  0.017141 -3.911944  0.495408
     spin moment: S , {S} =    0.00429   0.00001   0.00001   0.00429
   scf:    8    -3999.141601    -3999.108191    -3999.110130  0.009035 -3.934812  0.171802
     spin moment: S , {S} =    0.00476   0.00000   0.00000  -0.00476
   scf:    9    -3999.122064    -3999.115128    -3999.117983  0.003781 -3.936301  0.124130
     spin moment: S , {S} =    0.00890   0.00000   0.00000  -0.00890
   scf:   10    -3999.142979    -3999.127903    -3999.130169  0.008309 -3.942550  0.091823
     spin moment: S , {S} =    0.00502   0.00000   0.00000  -0.00502
   scf:   11    -3999.137746    -3999.132225    -3999.135010  0.007081 -3.941639  0.049270
     spin moment: S , {S} =    0.00386   0.00000   0.00000  -0.00386
   scf:   12    -3999.135715    -3999.133764    -3999.136329  0.004416 -3.941257  0.026855
     spin moment: S , {S} =    0.00168   0.00000   0.00000  -0.00168
   scf:   13    -3999.134399    -3999.134041    -3999.136626  0.002364 -3.940135  0.018065
     spin moment: S , {S} =    0.00115   0.00000   0.00000  -0.00115
   scf:   14    -3999.134366    -3999.134190    -3999.136745  0.001611 -3.939488  0.012018
     spin moment: S , {S} =    0.00082   0.00000   0.00000  -0.00082
   scf:   15    -3999.134357    -3999.134265    -3999.136810  0.001377 -3.939088  0.007845
     spin moment: S , {S} =    0.00050   0.00000   0.00000  -0.00050
   scf:   16    -3999.134343    -3999.134299    -3999.136838  0.001075 -3.939076  0.004184
     spin moment: S , {S} =    0.00021   0.00000   0.00000  -0.00021
   scf:   17    -3999.134315    -3999.134306    -3999.136844  0.000516 -3.939105  0.002205
     spin moment: S , {S} =    0.00008   0.00000   0.00000  -0.00008
   scf:   18    -3999.134304    -3999.134304    -3999.136846  0.000263 -3.939165  0.001387
     spin moment: S , {S} =    0.00002   0.00000   0.00000  -0.00002
   scf:   19    -3999.134304    -3999.134304    -3999.136847  0.000184 -3.939176  0.000747
     spin moment: S , {S} =    0.00000   0.00000   0.00000  -0.00000
   scf:   20    -3999.134304    -3999.134304    -3999.136847  0.000069 -3.939179  0.000527
     spin moment: S , {S} =    0.00001   0.00000   0.00000  -0.00001
   scf:   21    -3999.134305    -3999.134305    -3999.136847  0.000048 -3.939181  0.000345
     spin moment: S , {S} =    0.00001   0.00000   0.00000  -0.00001
   scf:   22    -3999.134305    -3999.134305    -3999.136847  0.000031 -3.939186  0.000193
     spin moment: S , {S} =    0.00001   0.00000   0.00000  -0.00001
   scf:   23    -3999.134305    -3999.134305    -3999.136847  0.000016 -3.939189  0.000111
     spin moment: S , {S} =    0.00001   0.00000   0.00000  -0.00001
   scf:   24    -3999.134305    -3999.134305    -3999.136847  0.000008 -3.939189  0.000067
     spin moment: S , {S} =    0.00001   0.00000   0.00000  -0.00001
mix: Pulay -- resetting history
   scf:   25    -3999.134305    -3999.134305    -3999.136847  0.000006 -3.939188  0.000035
     spin moment: S , {S} =    0.00000   0.00000   0.00000  -0.00000
   scf:   26    -3999.134305    -3999.134305    -3999.136847  0.000003 -3.939186  0.000022
     spin moment: S , {S} =    0.00000   0.00000   0.00000  -0.00000
   scf:   27    -3999.134305    -3999.134305    -3999.136847  0.000002 -3.939184  0.000006
     spin moment: S , {S} =    0.00000   0.00000   0.00000  -0.00000
   scf:   28    -3999.134305    -3999.134305    -3999.136847  0.000000 -3.939184  0.000006
     spin moment: S , {S} =    0.00000   0.00000   0.00000  -0.00000
   scf:   29    -3999.134305    -3999.134305    -3999.136847  0.000001 -3.939185  0.000004
     spin moment: S , {S} =    0.00000   0.00000   0.00000  -0.00000
   scf:   30    -3999.134305    -3999.134305    -3999.136847  0.000001 -3.939185  0.000002
     spin moment: S , {S} =    0.00000  -0.00000   0.00000  -0.00000
   scf:   31    -3999.134305    -3999.134305    -3999.136847  0.000000 -3.939185  0.000002
     spin moment: S , {S} =    0.00000  -0.00000   0.00000  -0.00000
   scf:   32    -3999.134305    -3999.134305    -3999.136847  0.000000 -3.939185  0.000001
     spin moment: S , {S} =    0.00000  -0.00000   0.00000  -0.00000
   scf:   33    -3999.134305    -3999.134305    -3999.136847  0.000000 -3.939185  0.000001
     spin moment: S , {S} =    0.00000  -0.00000   0.00000  -0.00000

SCF Convergence by DM+H criterion
max |DM_out - DM_in|         :     0.0000001802
max |H_out - H_in|      (eV) :     0.0000009242
SCF cycle converged after 33 iterations

Using DM_out to compute the final energy and forces
No. of atoms with KB's overlaping orbs in proc 0. Max # of overlaps:      24     207

siesta: E_KS(eV) =            -3999.1343

siesta: E_KS - E_eggbox =     -3999.1343
     spin moment: S , {S} =    0.00000  -0.00000   0.00000  -0.00000

siesta: Atomic forces (eV/Ang):
     1   -0.015701    0.028224    0.000007
     2   -0.026270   -0.091868   -0.000034
     3    0.040128    0.051171   -0.000060
     4   -0.034988   -0.042813    0.000039
     5   -0.011338   -0.029130   -0.000046
     6    0.162752   -0.017813    0.000219
     7   -1.068029    0.225752    0.000123
     8    0.268880   -1.554396   -0.000608
     9    0.117693    0.755501    0.000701
    10    0.124020   -0.185050    0.000076
    11    0.030550    0.139348   -0.000234
    12    0.660778   -0.183433   -0.000212
    13   -0.170222   -0.304703   -0.000056
    14   -0.180356   -0.226471    0.000205
    15    0.054659    0.011072   -0.000096
    16    0.108425    0.044799    0.007614
    17    0.067058   -0.076722   -0.038472
    18   -0.080610    0.083876    0.007916
    19   -0.155110   -0.039255   -0.041829
    20    0.051462   -0.028824    0.021570
    21   -0.138170    0.167558    0.073542
    22   -0.052125    0.025253    0.028034
    23    0.042461    0.083193   -0.049818
    24    0.717163    0.113712   -0.026500
    25    2.103757   -1.067744    0.003325
    26   -0.098752    1.167911    0.007265
    27   -0.089357   -1.234778    0.002920
    28   -0.575301    0.059895   -0.000743
    29   -0.063542   -1.320204   -0.001110
    30    0.062659    0.240655    0.007623
----------------------------------------
   Tot    1.852576   -3.205285    0.001359
----------------------------------------
   Max    2.103757
   Res    0.426109    sqrt( Sum f_i^2 / 3N )
----------------------------------------
   Max    2.103757    constrained

Stress tensor Voigt[x,y,z,yz,xz,xy] (kbar):       -1.73       -3.12       -0.22       -0.05        0.05        0.02
(Free)E + p*V (eV/cell)    -3994.9271
Target enthalpy (eV/cell)    -3999.1368

mulliken: Atomic and Orbital Populations:

Species: H                   

Atom      Orb        Charge      Spin       Svec
----------------------------------------------------------------
    1  1 1s         0.51096   0.00000      0.000  -0.000   0.000
    1  2 1s         0.18764   0.00000     -0.000   0.000   0.000
    1  3 2Ppy       0.02822   0.00000      0.000  -0.000  -0.000
    1  4 2Ppz       0.04023   0.00000      0.000   0.000  -0.000
    1  5 2Ppx       0.02524   0.00000     -0.000  -0.000   0.000
    1     Total     0.79228   0.00000      0.000  -0.000   0.000

    4  1 1s         1.02474   0.00000     -0.000   0.000  -0.000
    4  2 1s         0.09504   0.00000      0.000  -0.000   0.000
    4  3 2Ppy       0.03891   0.00000     -0.000  -0.000   0.000
    4  4 2Ppz       0.02009   0.00000     -0.000   0.000   0.000
    4  5 2Ppx       0.01359   0.00000     -0.000  -0.000   0.000
    4     Total     1.19235   0.00000     -0.000   0.000  -0.000

    9  1 1s         0.42535   0.00000     -0.000  -0.000   0.000
    9  2 1s         0.19478   0.00000      0.000   0.000   0.000
    9  3 2Ppy       0.10670   0.00000     -0.000   0.000   0.000
    9  4 2Ppz       0.05328   0.00000     -0.000  -0.000  -0.000
    9  5 2Ppx       0.02481   0.00000     -0.000  -0.000  -0.000
    9     Total     0.80491   0.00000     -0.000  -0.000   0.000

   10  1 1s         0.50667   0.00000     -0.000   0.000   0.000
   10  2 1s         0.19179   0.00000     -0.000   0.000   0.000
   10  3 2Ppy       0.01038   0.00000     -0.000  -0.000  -0.000
   10  4 2Ppz       0.05421   0.00000      0.000  -0.000  -0.000
   10  5 2Ppx       0.03106   0.00000     -0.000   0.000  -0.000
   10     Total     0.79412   0.00000     -0.000  -0.000   0.000

   13  1 1s         0.91976   0.00000      0.000   0.000   0.000
   13  2 1s         0.10684   0.00000      0.000  -0.000   0.000
   13  3 2Ppy       0.06160   0.00000     -0.000  -0.000   0.000
   13  4 2Ppz       0.01717   0.00000     -0.000  -0.000  -0.000
   13  5 2Ppx       0.02637   0.00000      0.000  -0.000   0.000
   13     Total     1.13174   0.00000     -0.000  -0.000   0.000

   18  1 1s         1.04783   0.00000     -0.000   0.000   0.000
   18  2 1s         0.08392   0.00000      0.000  -0.000  -0.000
   18  3 2Ppy       0.02805   0.00000      0.000  -0.000   0.000
   18  4 2Ppz       0.01925   0.00000     -0.000   0.000  -0.000
   18  5 2Ppx       0.01751   0.00000      0.000   0.000   0.000
   18     Total     1.19655   0.00000     -0.000   0.000   0.000

   21  1 1s         1.06637   0.00000      0.000  -0.000  -0.000
   21  2 1s         0.08250   0.00000     -0.000  -0.000   0.000
   21  3 2Ppy       0.02234   0.00000     -0.000  -0.000  -0.000
   21  4 2Ppz       0.02107   0.00000      0.000  -0.000   0.000
   21  5 2Ppx       0.01159   0.00000     -0.000  -0.000  -0.000
   21     Total     1.20386   0.00000     -0.000  -0.000  -0.000

   22  1 1s         1.05387   0.00000     -0.000   0.000  -0.000
   22  2 1s         0.08320   0.00000      0.000  -0.000   0.000
   22  3 2Ppy       0.01995   0.00000      0.000  -0.000   0.000
   22  4 2Ppz       0.01774   0.00000      0.000   0.000  -0.000
   22  5 2Ppx       0.01716   0.00000     -0.000   0.000  -0.000
   22     Total     1.19193   0.00000     -0.000   0.000  -0.000

   23  1 1s         1.06451   0.00000     -0.000   0.000  -0.000
   23  2 1s         0.08222   0.00000      0.000  -0.000   0.000
   23  3 2Ppy       0.01685   0.00000     -0.000  -0.000  -0.000
   23  4 2Ppz       0.02463   0.00000     -0.000  -0.000   0.000
   23  5 2Ppx       0.01347   0.00000      0.000  -0.000  -0.000
   23     Total     1.20168   0.00000     -0.000   0.000  -0.000

   27  1 1s         0.45657   0.00000     -0.000   0.000   0.000
   27  2 1s         0.18245   0.00000      0.000  -0.000   0.000
   27  3 2Ppy       0.08453   0.00000     -0.000  -0.000  -0.000
   27  4 2Ppz       0.02594   0.00000      0.000  -0.000   0.000
   27  5 2Ppx       0.03405   0.00000      0.000  -0.000   0.000
   27     Total     0.78354   0.00000     -0.000  -0.000   0.000

   30  1 1s         0.48985   0.00000     -0.000  -0.000   0.000
   30  2 1s         0.18854   0.00000     -0.000  -0.000   0.000
   30  3 2Ppy       0.02870   0.00000     -0.000  -0.000   0.000
   30  4 2Ppz       0.03460   0.00000      0.000  -0.000  -0.000
   30  5 2Ppx       0.02470   0.00000      0.000   0.000  -0.000
   30     Total     0.76638   0.00000     -0.000  -0.000   0.000

----------------------------------------------------------------
Total              11.05934   0.00000     -0.000  -0.000  -0.000


Species: N                   

Atom      Orb        Charge      Spin       Svec
----------------------------------------------------------------
    2  1 2s         1.38006   0.00000     -0.000   0.000  -0.000
    2  2 2s         0.12720   0.00000      0.000  -0.000   0.000
    2  3 2py        1.07003   0.00000     -0.000   0.000  -0.000
    2  4 2pz        1.49366   0.00000     -0.000  -0.000  -0.000
    2  5 2px        1.01538   0.00000     -0.000   0.000  -0.000
    2  6 2py        0.19574   0.00000      0.000  -0.000  -0.000
    2  7 2pz        0.01463   0.00000      0.000   0.000   0.000
    2  8 2px        0.21062   0.00000      0.000  -0.000   0.000
    2  9 3Pdxy      0.00688   0.00000      0.000  -0.000  -0.000
    2 10 3Pdyz      0.00605   0.00000     -0.000  -0.000  -0.000
    2 11 3Pdz2      0.00158   0.00000      0.000  -0.000   0.000
    2 12 3Pdxz      0.00303   0.00000      0.000   0.000   0.000
    2 13 3Pdx2-y2   0.00298   0.00000      0.000   0.000  -0.000
    2     Total     5.52783   0.00000     -0.000  -0.000  -0.000

    5  1 2s         1.55751   0.00000      0.000  -0.000  -0.000
    5  2 2s         0.08161   0.00000     -0.000   0.000   0.000
    5  3 2py        0.90331   0.00000     -0.000  -0.000  -0.000
    5  4 2pz        1.22302   0.00000      0.000  -0.000  -0.000
    5  5 2px        1.14409   0.00000      0.000  -0.000  -0.000
    5  6 2py        0.22949   0.00000     -0.000   0.000   0.000
    5  7 2pz        0.05523   0.00000     -0.000   0.000   0.000
    5  8 2px        0.14594   0.00000     -0.000  -0.000   0.000
    5  9 3Pdxy      0.00857   0.00000      0.000   0.000  -0.000
    5 10 3Pdyz      0.00707   0.00000     -0.000  -0.000   0.000
    5 11 3Pdz2      0.00190   0.00000      0.000  -0.000   0.000
    5 12 3Pdxz      0.01128   0.00000      0.000   0.000  -0.000
    5 13 3Pdx2-y2   0.00920   0.00000     -0.000  -0.000  -0.000
    5     Total     5.37822   0.00000      0.000  -0.000  -0.000

    8  1 2s         1.28350   0.00000      0.000  -0.000  -0.000
    8  2 2s         0.17200   0.00000     -0.000   0.000   0.000
    8  3 2py        1.09705   0.00000      0.000   0.000  -0.000
    8  4 2pz        1.51572   0.00000      0.000   0.000  -0.000
    8  5 2px        0.97231   0.00000     -0.000   0.000  -0.000
    8  6 2py        0.19955   0.00000      0.000  -0.000  -0.000
    8  7 2pz        0.03072   0.00000     -0.000  -0.000   0.000
    8  8 2px        0.23482   0.00000      0.000  -0.000  -0.000
    8  9 3Pdxy      0.00328   0.00000     -0.000   0.000   0.000
    8 10 3Pdyz      0.00121   0.00000      0.000   0.000  -0.000
    8 11 3Pdz2      0.00238   0.00000     -0.000   0.000  -0.000
    8 12 3Pdxz      0.00236   0.00000     -0.000  -0.000  -0.000
    8 13 3Pdx2-y2   0.00404   0.00000     -0.000  -0.000   0.000
    8     Total     5.51893   0.00000      0.000   0.000  -0.000

   11  1 2s         1.45982   0.00000     -0.000  -0.000   0.000
   11  2 2s         0.10630   0.00000      0.000   0.000  -0.000
   11  3 2py        1.24113   0.00000     -0.000   0.000   0.000
   11  4 2pz        1.33529   0.00000     -0.000  -0.000   0.000
   11  5 2px        0.83413   0.00000     -0.000   0.000   0.000
   11  6 2py        0.10313   0.00000      0.000  -0.000  -0.000
   11  7 2pz        0.03324   0.00000      0.000   0.000  -0.000
   11  8 2px        0.30574   0.00000      0.000  -0.000   0.000
   11  9 3Pdxy      0.00665   0.00000     -0.000   0.000   0.000
   11 10 3Pdyz      0.00486   0.00000     -0.000  -0.000  -0.000
   11 11 3Pdz2      0.00072   0.00000      0.000   0.000  -0.000
   11 12 3Pdxz      0.00510   0.00000     -0.000  -0.000  -0.000
   11 13 3Pdx2-y2   0.00617   0.00000      0.000  -0.000   0.000
   11     Total     5.44230   0.00000     -0.000  -0.000   0.000

   14  1 2s         1.50046   0.00000     -0.000  -0.000   0.000
   14  2 2s         0.10553   0.00000      0.000   0.000   0.000
   14  3 2py        0.84795   0.00000     -0.000   0.000   0.000
   14  4 2pz        1.23538   0.00000      0.000   0.000   0.000
   14  5 2px        1.15640   0.00000     -0.000  -0.000   0.000
   14  6 2py        0.27799   0.00000      0.000  -0.000  -0.000
   14  7 2pz        0.05543   0.00000     -0.000  -0.000   0.000
   14  8 2px        0.13834   0.00000      0.000  -0.000   0.000
   14  9 3Pdxy      0.00931   0.00000      0.000  -0.000  -0.000
   14 10 3Pdyz      0.00460   0.00000     -0.000   0.000  -0.000
   14 11 3Pdz2      0.00152   0.00000     -0.000   0.000  -0.000
   14 12 3Pdxz      0.01067   0.00000     -0.000  -0.000  -0.000
   14 13 3Pdx2-y2   0.00833   0.00000     -0.000   0.000  -0.000
   14     Total     5.35192   0.00000      0.000   0.000   0.000

   16  1 2s         1.35923   0.00000     -0.000   0.000  -0.000
   16  2 2s         0.13601   0.00000      0.000  -0.000  -0.000
   16  3 2py        0.98814   0.00000     -0.000  -0.000   0.000
   16  4 2pz        1.54252   0.00000      0.000   0.000  -0.000
   16  5 2px        1.07721   0.00000      0.000   0.000   0.000
   16  6 2py        0.24145   0.00000      0.000   0.000  -0.000
   16  7 2pz        0.00462   0.00000     -0.000  -0.000  -0.000
   16  8 2px        0.18201   0.00000     -0.000  -0.000  -0.000
   16  9 3Pdxy      0.00184   0.00000     -0.000  -0.000   0.000
   16 10 3Pdyz      0.00478   0.00000     -0.000  -0.000  -0.000
   16 11 3Pdz2      0.00121   0.00000     -0.000  -0.000   0.000
   16 12 3Pdxz      0.00234   0.00000      0.000   0.000  -0.000
   16 13 3Pdx2-y2   0.00602   0.00000     -0.000  -0.000  -0.000
   16     Total     5.54738   0.00000     -0.000   0.000  -0.000

   26  1 2s         1.35524   0.00000      0.000   0.000  -0.000
   26  2 2s         0.13290   0.00000     -0.000  -0.000  -0.000
   26  3 2py        1.12083   0.00000     -0.000  -0.000  -0.000
   26  4 2pz        1.49574   0.00000     -0.000   0.000   0.000
   26  5 2px        0.89539   0.00000     -0.000   0.000  -0.000
   26  6 2py        0.18353   0.00000      0.000  -0.000   0.000
   26  7 2pz        0.00859   0.00000     -0.000  -0.000  -0.000
   26  8 2px        0.28510   0.00000      0.000  -0.000   0.000
   26  9 3Pdxy      0.00098   0.00000     -0.000   0.000   0.000
   26 10 3Pdyz      0.00129   0.00000      0.000   0.000  -0.000
   26 11 3Pdz2     -0.00142   0.00000      0.000   0.000  -0.000
   26 12 3Pdxz      0.00430   0.00000     -0.000  -0.000  -0.000
   26 13 3Pdx2-y2   0.00276   0.00000     -0.000   0.000  -0.000
   26     Total     5.48522   0.00000     -0.000   0.000  -0.000

----------------------------------------------------------------
Total              49.31115   0.00000     -0.000   0.000   0.000


Species: Si                  

Atom      Orb        Charge      Spin       Svec
----------------------------------------------------------------
    3  1 3s         0.55014   0.00000     -0.000   0.000   0.000
    3  2 3s         0.38745   0.00000      0.000  -0.000   0.000
    3  3 3py        0.08363   0.00000      0.000   0.000   0.000
    3  4 3pz        0.53973   0.00000     -0.000   0.000   0.000
    3  5 3px        0.37112   0.00000     -0.000   0.000   0.000
    3  6 3py        0.49684   0.00000      0.000  -0.000  -0.000
    3  7 3pz        0.17457   0.00000      0.000   0.000   0.000
    3  8 3px        0.23639   0.00000      0.000  -0.000   0.000
    3  9 3Pdxy      0.10906   0.00000     -0.000  -0.000  -0.000
    3 10 3Pdyz      0.05258   0.00000     -0.000  -0.000   0.000
    3 11 3Pdz2      0.01027   0.00000     -0.000  -0.000  -0.000
    3 12 3Pdxz      0.13369   0.00000      0.000   0.000   0.000
    3 13 3Pdx2-y2   0.32486   0.00000      0.000  -0.000   0.000
    3     Total     3.47034   0.00000     -0.000   0.000   0.000

    6  1 3s         0.65771   0.00000      0.000  -0.000  -0.000
    6  2 3s         0.37153   0.00000     -0.000   0.000   0.000
    6  3 3py        0.12615   0.00000     -0.000   0.000   0.000
    6  4 3pz        0.69550   0.00000     -0.000  -0.000   0.000
    6  5 3px        0.49042   0.00000      0.000  -0.000   0.000
    6  6 3py        0.47022   0.00000      0.000   0.000   0.000
    6  7 3pz        0.24189   0.00000      0.000   0.000   0.000
    6  8 3px        0.24659   0.00000     -0.000   0.000   0.000
    6  9 3Pdxy      0.18208   0.00000      0.000   0.000   0.000
    6 10 3Pdyz      0.14579   0.00000      0.000   0.000   0.000
    6 11 3Pdz2      0.01128   0.00000      0.000  -0.000   0.000
    6 12 3Pdxz      0.03718   0.00000     -0.000   0.000   0.000
    6 13 3Pdx2-y2   0.18556   0.00000     -0.000  -0.000  -0.000
    6     Total     3.86189   0.00000      0.000  -0.000   0.000

    7  1 3s         0.63336   0.00000     -0.000   0.000  -0.000
    7  2 3s         0.36598   0.00000      0.000  -0.000  -0.000
    7  3 3py        0.35809   0.00000     -0.000  -0.000   0.000
    7  4 3pz        0.50054   0.00000     -0.000  -0.000  -0.000
    7  5 3px        0.08382   0.00000     -0.000   0.000   0.000
    7  6 3py        0.30616   0.00000      0.000   0.000  -0.000
    7  7 3pz        0.20510   0.00000      0.000  -0.000  -0.000
    7  8 3px        0.42367   0.00000      0.000  -0.000  -0.000
    7  9 3Pdxy      0.19954   0.00000      0.000   0.000   0.000
    7 10 3Pdyz      0.14226   0.00000     -0.000  -0.000   0.000
    7 11 3Pdz2      0.00947   0.00000     -0.000   0.000   0.000
    7 12 3Pdxz      0.15676   0.00000     -0.000  -0.000  -0.000
    7 13 3Pdx2-y2   0.23220   0.00000      0.000  -0.000  -0.000
    7     Total     3.61695   0.00000     -0.000  -0.000  -0.000

   12  1 3s         0.57599   0.00000      0.000   0.000  -0.000
   12  2 3s         0.39037   0.00000     -0.000  -0.000   0.000
   12  3 3py        0.16792   0.00000     -0.000  -0.000  -0.000
   12  4 3pz        0.42383   0.00000     -0.000   0.000  -0.000
   12  5 3px        0.31365   0.00000      0.000   0.000  -0.000
   12  6 3py        0.44190   0.00000      0.000   0.000   0.000
   12  7 3pz        0.15998   0.00000      0.000  -0.000  -0.000
   12  8 3px        0.33437   0.00000     -0.000  -0.000  -0.000
   12  9 3Pdxy      0.36642   0.00000     -0.000  -0.000  -0.000
   12 10 3Pdyz      0.08435   0.00000     -0.000   0.000  -0.000
   12 11 3Pdz2      0.01072   0.00000      0.000   0.000  -0.000
   12 12 3Pdxz      0.09337   0.00000     -0.000   0.000  -0.000
   12 13 3Pdx2-y2   0.16545   0.00000     -0.000   0.000  -0.000
   12     Total     3.52830   0.00000     -0.000   0.000  -0.000

   15  1 3s         0.66782   0.00000      0.000   0.000  -0.000
   15  2 3s         0.36592   0.00000     -0.000  -0.000   0.000
   15  3 3py       -0.01220   0.00000      0.000  -0.000   0.000
   15  4 3pz        0.51089   0.00000      0.000   0.000  -0.000
   15  5 3px        0.39904   0.00000      0.000   0.000   0.000
   15  6 3py        0.46516   0.00000     -0.000  -0.000   0.000
   15  7 3pz        0.19689   0.00000     -0.000   0.000  -0.000
   15  8 3px        0.33800   0.00000     -0.000  -0.000  -0.000
   15  9 3Pdxy      0.14212   0.00000      0.000   0.000  -0.000
   15 10 3Pdyz      0.12663   0.00000      0.000   0.000  -0.000
   15 11 3Pdz2      0.01454   0.00000      0.000   0.000   0.000
   15 12 3Pdxz      0.12651   0.00000      0.000   0.000   0.000
   15 13 3Pdx2-y2   0.30857   0.00000      0.000  -0.000  -0.000
   15     Total     3.64990   0.00000      0.000   0.000  -0.000

   17  1 3s         0.72909   0.00000      0.000  -0.000  -0.000
   17  2 3s         0.35678   0.00000     -0.000   0.000  -0.000
   17  3 3py        0.09858   0.00000      0.000  -0.000  -0.000
   17  4 3pz        0.62951   0.00000      0.000   0.000  -0.000
   17  5 3px        0.35977   0.00000     -0.000  -0.000  -0.000
   17  6 3py        0.45300   0.00000     -0.000  -0.000   0.000
   17  7 3pz        0.15253   0.00000     -0.000   0.000  -0.000
   17  8 3px        0.33176   0.00000      0.000   0.000  -0.000
   17  9 3Pdxy      0.15080   0.00000     -0.000  -0.000  -0.000
   17 10 3Pdyz      0.02378   0.00000      0.000  -0.000  -0.000
   17 11 3Pdz2      0.00889   0.00000     -0.000  -0.000   0.000
   17 12 3Pdxz      0.12781   0.00000      0.000   0.000  -0.000
   17 13 3Pdx2-y2   0.12728   0.00000     -0.000   0.000  -0.000
   17     Total     3.54959   0.00000      0.000   0.000  -0.000

   19  1 3s         0.86059   0.00000     -0.000   0.000   0.000
   19  2 3s         0.31466   0.00000      0.000  -0.000   0.000
   19  3 3py        0.42274   0.00000      0.000   0.000   0.000
   19  4 3pz        0.65985   0.00000     -0.000  -0.000   0.000
   19  5 3px        0.35065   0.00000     -0.000   0.000   0.000
   19  6 3py        0.33133   0.00000     -0.000  -0.000  -0.000
   19  7 3pz        0.27044   0.00000      0.000   0.000   0.000
   19  8 3px        0.35859   0.00000      0.000  -0.000   0.000
   19  9 3Pdxy      0.09344   0.00000     -0.000  -0.000   0.000
   19 10 3Pdyz      0.02942   0.00000     -0.000   0.000  -0.000
   19 11 3Pdz2      0.01433   0.00000     -0.000   0.000  -0.000
   19 12 3Pdxz      0.05732   0.00000      0.000   0.000  -0.000
   19 13 3Pdx2-y2   0.13166   0.00000      0.000   0.000   0.000
   19     Total     3.89501   0.00000     -0.000  -0.000   0.000

   20  1 3s         0.54103   0.00000     -0.000  -0.000   0.000
   20  2 3s         0.44370   0.00000      0.000   0.000   0.000
   20  3 3py        0.31047   0.00000      0.000   0.000   0.000
   20  4 3pz        0.25508   0.00000      0.000  -0.000   0.000
   20  5 3px        0.45521   0.00000      0.000   0.000   0.000
   20  6 3py        0.38722   0.00000      0.000  -0.000   0.000
   20  7 3pz        0.42323   0.00000     -0.000   0.000   0.000
   20  8 3px        0.27770   0.00000     -0.000  -0.000  -0.000
   20  9 3Pdxy      0.07005   0.00000      0.000  -0.000   0.000
   20 10 3Pdyz      0.08445   0.00000     -0.000  -0.000   0.000
   20 11 3Pdz2      0.05104   0.00000     -0.000   0.000  -0.000
   20 12 3Pdxz      0.07228   0.00000      0.000  -0.000   0.000
   20 13 3Pdx2-y2   0.04586   0.00000      0.000  -0.000   0.000
   20     Total     3.41731   0.00000      0.000  -0.000   0.000

   24  1 3s         0.60194   0.00000      0.000   0.000  -0.000
   24  2 3s         0.37225   0.00000     -0.000   0.000  -0.000
   24  3 3py        0.26574   0.00000      0.000  -0.000   0.000
   24  4 3pz        0.39145   0.00000      0.000   0.000  -0.000
   24  5 3px        0.18961   0.00000      0.000  -0.000   0.000
   24  6 3py        0.38236   0.00000      0.000   0.000  -0.000
   24  7 3pz        0.19729   0.00000     -0.000   0.000  -0.000
   24  8 3px        0.34946   0.00000     -0.000   0.000  -0.000
   24  9 3Pdxy      0.14089   0.00000      0.000   0.000   0.000
   24 10 3Pdyz      0.14198   0.00000     -0.000  -0.000   0.000
   24 11 3Pdz2      0.00974   0.00000     -0.000  -0.000   0.000
   24 12 3Pdxz      0.12220   0.00000     -0.000   0.000  -0.000
   24 13 3Pdx2-y2   0.32995   0.00000      0.000  -0.000  -0.000
   24     Total     3.49486   0.00000      0.000   0.000  -0.000

   28  1 3s         0.44003   0.00000      0.000   0.000   0.000
   28  2 3s         0.37422   0.00000     -0.000  -0.000  -0.000
   28  3 3py        0.09231   0.00000     -0.000   0.000  -0.000
   28  4 3pz        0.38911   0.00000      0.000   0.000  -0.000
   28  5 3px        0.19061   0.00000      0.000   0.000  -0.000
   28  6 3py        0.40879   0.00000      0.000  -0.000   0.000
   28  7 3pz        0.20541   0.00000     -0.000   0.000  -0.000
   28  8 3px        0.37462   0.00000      0.000  -0.000   0.000
   28  9 3Pdxy      0.14303   0.00000     -0.000  -0.000  -0.000
   28 10 3Pdyz      0.12575   0.00000      0.000  -0.000  -0.000
   28 11 3Pdz2      0.01170   0.00000      0.000  -0.000  -0.000
   28 12 3Pdxz      0.15738   0.00000      0.000   0.000  -0.000
   28 13 3Pdx2-y2   0.34515   0.00000      0.000  -0.000  -0.000
   28     Total     3.25809   0.00000      0.000   0.000  -0.000

----------------------------------------------------------------
Total              85.05340   0.00000      0.000   0.000  -0.000


Species: O                   

Atom      Orb        Charge      Spin       Svec
----------------------------------------------------------------
   25  1 2s         1.73936   0.00000     -0.000   0.000   0.000
   25  2 2s         0.05634   0.00000     -0.000  -0.000  -0.000
   25  3 2py        1.41151   0.00000      0.000  -0.000   0.000
   25  4 2pz        1.56649   0.00000      0.000  -0.000   0.000
   25  5 2px        1.58738   0.00000     -0.000  -0.000   0.000
   25  6 2py        0.06595   0.00000     -0.000   0.000  -0.000
   25  7 2pz       -0.00990   0.00000     -0.000   0.000   0.000
   25  8 2px        0.03270   0.00000     -0.000  -0.000   0.000
   25  9 3Pdxy      0.00598   0.00000      0.000   0.000  -0.000
   25 10 3Pdyz      0.00491   0.00000      0.000  -0.000  -0.000
   25 11 3Pdz2      0.00204   0.00000      0.000   0.000   0.000
   25 12 3Pdxz      0.00392   0.00000      0.000   0.000  -0.000
   25 13 3Pdx2-y2   0.01021   0.00000     -0.000  -0.000   0.000
   25     Total     6.47686   0.00000     -0.000  -0.000   0.000

   29  1 2s         1.75314   0.00000      0.000   0.000  -0.000
   29  2 2s         0.05846   0.00000     -0.000  -0.000   0.000
   29  3 2py        1.45556   0.00000     -0.000   0.000   0.000
   29  4 2pz        1.55412   0.00000     -0.000   0.000   0.000
   29  5 2px        1.52831   0.00000     -0.000   0.000   0.000
   29  6 2py        0.04952   0.00000     -0.000   0.000   0.000
   29  7 2pz       -0.00084   0.00000      0.000   0.000   0.000
   29  8 2px        0.04054   0.00000      0.000  -0.000   0.000
   29  9 3Pdxy      0.00772   0.00000     -0.000   0.000   0.000
   29 10 3Pdyz      0.00409   0.00000     -0.000  -0.000  -0.000
   29 11 3Pdz2      0.00215   0.00000      0.000  -0.000   0.000
   29 12 3Pdxz      0.00623   0.00000      0.000  -0.000  -0.000
   29 13 3Pdx2-y2   0.01075   0.00000     -0.000   0.000   0.000
   29     Total     6.46974   0.00000     -0.000   0.000   0.000

----------------------------------------------------------------
Total              98.00000   0.00000     -0.000   0.000  -0.000


siesta: Eigenvalues (eV):
ik =     1
  -23.1919  -23.1919  -23.0532  -23.0532  -22.0581  -22.0581  -21.1186  -21.1186  -20.9007  -20.9007
  -20.0683  -20.0683  -19.3213  -19.3213  -19.1471  -19.1471  -18.5909  -18.5909  -15.3747  -15.3747
  -14.4240  -14.4240  -13.6557  -13.6557  -13.5172  -13.5172  -13.3586  -13.3586  -12.7988  -12.7988
  -12.3221  -12.3221  -12.0858  -12.0858  -11.7374  -11.7374  -11.3874  -11.3874  -11.3736  -11.3736
  -10.7802  -10.7802  -10.7187  -10.7187  -10.0928  -10.0928   -9.8732   -9.8732   -9.6149   -9.6149
   -9.4608   -9.4608   -9.2118   -9.2118   -9.0969   -9.0969   -8.9389   -8.9389   -8.7167   -8.7167
   -8.6321   -8.6321   -8.3219   -8.3219   -8.2119   -8.2119   -8.0277   -8.0277   -7.9466   -7.9466
   -7.6809   -7.6809   -7.5928   -7.5928   -7.2854   -7.2854   -7.2169   -7.2169   -6.8906   -6.8906
   -6.8411   -6.8411   -6.5375   -6.5375   -6.5311   -6.5311   -6.1875   -6.1875   -6.1586   -6.1586
   -6.0299   -6.0299   -5.5461   -5.5461   -5.4871   -5.4871   -4.0836   -4.0836   -3.7947   -3.7947
   -2.9467   -2.9467   -2.5863   -2.5863   -2.3034   -2.3034   -2.1064   -2.1064   -2.0777   -2.0777
   -1.8983   -1.8983   -1.7032   -1.7032   -1.5164   -1.5164   -1.4218   -1.4218   -1.1610   -1.1610
   -1.1279   -1.1279   -0.4460   -0.4460   -0.4072   -0.4072   -0.2590   -0.2590   -0.1566   -0.1566
   -0.0898   -0.0898    0.0571    0.0571    0.2178    0.2178    0.3330    0.3330    0.7003    0.7003
    0.7541    0.7541    0.8909    0.8909    1.0170    1.0170    1.3179    1.3179    1.4120    1.4120
    1.7175    1.7175    1.8778    1.8778    2.2139    2.2139    2.2991    2.2991    2.4894    2.4894
    2.5318    2.5318    2.7525    2.7525    2.8880    2.8880    2.9829    2.9829    3.0570    3.0570
    3.1463    3.1463    3.1812    3.1812    3.5536    3.5536    3.8135    3.8135    3.9148    3.9148
    4.2797    4.2797    4.3091    4.3091    4.4748    4.4748    4.5512    4.5512    4.6457    4.6457
    4.7883    4.7883    5.0079    5.0079    5.1027    5.1027    5.1269    5.1269    5.2014    5.2014
    5.4666    5.4666    5.4909    5.4909    5.8576    5.8576    5.9184    5.9184    6.2401    6.2401
    6.2645    6.2645    6.4137    6.4137    6.4575    6.4575    6.7373    6.7373    6.8459    6.8459
    6.9859    6.9859    7.0225    7.0225    7.1033    7.1033    7.4963    7.4963    7.5776    7.5776
    7.5977    7.5977    7.7431    7.7431    7.9595    7.9595    8.1302    8.1302    8.2639    8.2639
    8.3841    8.3841    8.4872    8.4872    8.7686    8.7686    8.8003    8.8003    8.9489    8.9489
    9.3059    9.3059    9.3608    9.3608    9.5108    9.5108    9.6054    9.6054    9.7170    9.7170
    9.8611    9.8611   10.1437   10.1437   10.1743   10.1743   10.2693   10.2693   10.3670   10.3670
   10.6989   10.6989   10.9297   10.9297   10.9649   10.9649   11.2540   11.2540   11.3781   11.3781
   11.7090   11.7090   11.7990   11.7990   11.9479   11.9479   12.0561   12.0561   12.1817   12.1817
   12.3672   12.3672   12.6459   12.6459   12.8976   12.8976   13.0589   13.0589   13.1875   13.1875
   13.3591   13.3591   13.4954   13.4954   13.9698   13.9698   13.9957   13.9957   14.1393   14.1393
   14.3052   14.3052   14.3837   14.3837   15.0004   15.0004   15.2306   15.2306   15.2873   15.2873
   15.7134   15.7134   15.7525   15.7525   16.1430   16.1430   16.4434   16.4434   16.5661   16.5661
   16.7557   16.7557   17.1395   17.1395   17.5668   17.5668   17.6649   17.6649   18.1189   18.1189
   18.3037   18.3037   18.6096   18.6096   18.7616   18.7616   18.9192   18.9192   19.3515   19.3515
   19.7403   19.7403   19.8760   19.8760   20.3110   20.3110   20.7594   20.7594   21.1047   21.1047
   21.4385   21.4385   21.7973   21.7973   22.2685   22.2685   22.6923   22.6923   22.7554   22.7554
   23.1649   23.1649   23.4619   23.4619   24.0159   24.0159   24.1169   24.1169   24.7517   24.7517
   25.1008   25.1008   25.5203   25.5203   25.7694   25.7694   25.9678   25.9678   26.7400   26.7400
   27.2232   27.2232   27.6543   27.6543   28.0456   28.0456   28.4644   28.4644   28.7171   28.7171
   29.1491   29.1491   29.5276   29.5276   30.8922   30.8922   30.9657   30.9657   31.4017   31.4017
   31.4383   31.4383   31.5492   31.5492   32.0315   32.0315   32.5033   32.5033   33.6525   33.6525
   33.7346   33.7346   34.4710   34.4710   34.7337   34.7337   35.2075   35.2075   36.0055   36.0055
   36.2860   36.2860   36.3226   36.3226   36.9951   36.9951   37.3679   37.3679   37.7337   37.7337
   38.0099   38.0099   38.1692   38.1692   38.8161   38.8161   39.8882   39.8882   40.2391   40.2391
   40.4151   40.4151   40.5955   40.5955   40.9212   40.9212   41.2933   41.2933   41.9408   41.9408
   42.5219   42.5219   42.9874   42.9874   43.4614   43.4614   43.4837   43.4837   43.7759   43.7759
   43.9873   43.9873   44.2227   44.2227   44.4460   44.4460   45.0825   45.0825   45.6227   45.6227
   45.6271   45.6271   46.3569   46.3569   47.0232   47.0232   47.0648   47.0648   47.3491   47.3491
   47.9893   47.9893   48.6292   48.6292   48.6724   48.6724   49.1744   49.1744   49.4946   49.4946
   49.7966   49.7966   50.2100   50.2100   50.2814   50.2814   50.4606   50.4606   51.4873   51.4873
   51.5252   51.5252   51.8101   51.8101   53.3384   53.3384   53.8862   53.8862   54.4883   54.4883
   54.5475   54.5475   55.8106   55.8106   56.1347   56.1347   56.4942   56.4942   57.5882   57.5882
   57.7906   57.7906   59.1052   59.1052   59.6670   59.6670   59.7405   59.7405   60.0070   60.0070
   61.4551   61.4551   61.6491   61.6491   62.9932   62.9932   63.9348   63.9348   64.6675   64.6675
   64.9888   64.9888   65.3042   65.3042   66.1437   66.1437   66.7613   66.7613   67.8534   67.8534
   69.3483   69.3483   69.9631   69.9631   70.9490   70.9490   72.1678   72.1678   73.1541   73.1541
   76.6898   76.6898   78.5025   78.5025   89.7596   89.7596   90.4987   90.4987   92.6601   92.6601
   93.6791   93.6791   96.8857   96.8857   98.3807   98.3807  101.0869  101.0869  102.0840  102.0840
  103.9413  103.9413  106.3910  106.3910  117.6372  117.6372  123.7873  123.7873  125.6899  125.6899
  143.5372  143.5372  148.9572  148.9572
siesta: Fermi energy =      -3.939185 eV

siesta: Program's energy decomposition (eV):
siesta: Ebs     =     -1114.396941
siesta: Eions   =      3553.971015
siesta: Ena     =       377.505736
siesta: Ekin    =      2757.919509
siesta: Enl     =     -2536.898241
siesta: Eso     =        -0.004780
siesta: Edftu   =         0.000000
siesta: DEna    =        37.743060
siesta: DUscf   =        13.794427
siesta: DUext   =         0.000000
siesta: Exc     =     -1095.223002
siesta: eta*DQ  =         0.000000
siesta: Emadel  =         0.000000
siesta: Emeta   =         0.000000
siesta: Emolmec =         0.000000
siesta: Ekinion =         0.000000
siesta: Eharris =     -3999.134305
siesta: Etot    =     -3999.134305
siesta: FreeEng =     -3999.136847

siesta: Final energy (eV):
siesta:  Band Struct. =   -1114.396941
siesta:       Kinetic =    2757.919509
siesta:       Hartree =    8142.108691
siesta:       Edftu   =       0.000000
siesta:       Eso     =      -0.004780
siesta:    Ext. field =       0.000000
siesta:   Exch.-corr. =   -1095.223002
siesta:  Ion-electron =  -18734.908592
siesta:       Ion-ion =    4930.973868
siesta:       Ekinion =       0.000000
siesta:         Total =   -3999.134305
siesta:         Fermi =      -3.939185

siesta: Atomic forces (eV/Ang):
siesta:      1   -0.015701    0.028224    0.000007
siesta:      2   -0.026270   -0.091868   -0.000034
siesta:      3    0.040128    0.051171   -0.000060
siesta:      4   -0.034988   -0.042813    0.000039
siesta:      5   -0.011338   -0.029130   -0.000046
siesta:      6    0.162752   -0.017813    0.000219
siesta:      7   -1.068029    0.225752    0.000123
siesta:      8    0.268880   -1.554396   -0.000608
siesta:      9    0.117693    0.755501    0.000701
siesta:     10    0.124020   -0.185050    0.000076
siesta:     11    0.030550    0.139348   -0.000234
siesta:     12    0.660778   -0.183433   -0.000212
siesta:     13   -0.170222   -0.304703   -0.000056
siesta:     14   -0.180356   -0.226471    0.000205
siesta:     15    0.054659    0.011072   -0.000096
siesta:     16    0.108425    0.044799    0.007614
siesta:     17    0.067058   -0.076722   -0.038472
siesta:     18   -0.080610    0.083876    0.007916
siesta:     19   -0.155110   -0.039255   -0.041829
siesta:     20    0.051462   -0.028824    0.021570
siesta:     21   -0.138170    0.167558    0.073542
siesta:     22   -0.052125    0.025253    0.028034
siesta:     23    0.042461    0.083193   -0.049818
siesta:     24    0.717163    0.113712   -0.026500
siesta:     25    2.103757   -1.067744    0.003325
siesta:     26   -0.098752    1.167911    0.007265
siesta:     27   -0.089357   -1.234778    0.002920
siesta:     28   -0.575301    0.059895   -0.000743
siesta:     29   -0.063542   -1.320204   -0.001110
siesta:     30    0.062659    0.240655    0.007623
siesta: ----------------------------------------
siesta:    Tot    1.852576   -3.205285    0.001359

siesta: Stress tensor (static) (eV/Ang**3):
siesta:    -0.001079    0.000014    0.000034
siesta:     0.000014   -0.001950   -0.000030
siesta:     0.000034   -0.000030   -0.000136

siesta: Cell volume =       3991.019863 Ang**3

siesta: Pressure (static):
siesta:                Solid            Molecule  Units
siesta:           0.00001149          0.00001240  Ry/Bohr**3
siesta:           0.00105480          0.00113825  eV/Ang**3
siesta:           1.68999446          1.82369159  kBar
(Free)E+ p_basis*V_orbitals  =       -3978.008762
(Free)Eharris+ p_basis*V_orbitals  =       -3978.008762
     spin moment: S , {S} =    0.00000  -0.00000   0.00000  -0.00000

siesta: Electric dipole (a.u.)  =   -0.078910    2.929898   -0.013016
siesta: Electric dipole (Debye) =   -0.200568    7.447062   -0.033084

cite: Please see "AT.bib" for an exhaustive BiBTeX file.
cite: Please clearly indicate Siesta version in published work: v4.1.5-1-g384057250
cite: This calculation has made use of the following articles
cite: which are encouraged to be cited in a published work.
        Primary SIESTA paper
          DOI: www.doi.org/10.1088/0953-8984/14/11/302
        Spin-orbit coupling (on-site approximation)
          DOI: www.doi.org/10.1088/0953-8984/19/19/489001


WARNING: alloc-realloc-dealloc name mismatch
         Name: atomlist isa
         Size:              -120. Bytes
         Node:     0
         Subsequent mismatches will not be reported
>> End of run:  22-MAY-2023   9:49:44
Job completed
